
    -----------------------------------------------------------------------
          Psi4: An Open-Source Ab Initio Electronic Structure Package
                               Psi4 1.9.1 release

                         Git: Rev {} zzzzzzz 


    D. G. A. Smith, L. A. Burns, A. C. Simmonett, R. M. Parrish,
    M. C. Schieber, R. Galvelis, P. Kraus, H. Kruse, R. Di Remigio,
    A. Alenaizan, A. M. James, S. Lehtola, J. P. Misiewicz, M. Scheurer,
    R. A. Shaw, J. B. Schriber, Y. Xie, Z. L. Glick, D. A. Sirianni,
    J. S. O'Brien, J. M. Waldrop, A. Kumar, E. G. Hohenstein,
    B. P. Pritchard, B. R. Brooks, H. F. Schaefer III, A. Yu. Sokolov,
    K. Patkowski, A. E. DePrince III, U. Bozkaya, R. A. King,
    F. A. Evangelista, J. M. Turney, T. D. Crawford, C. D. Sherrill,
    J. Chem. Phys. 152(18) 184108 (2020). https://doi.org/10.1063/5.0006002

                            Additional Code Authors
    E. T. Seidl, C. L. Janssen, E. F. Valeev, M. L. Leininger,
    J. F. Gonthier, R. M. Richard, H. R. McAlexander, M. Saitow, X. Wang,
    P. Verma, M. H. Lechner, A. Jiang, S. Behnle, A. G. Heide,
    M. F. Herbst, and D. L. Poole

             Previous Authors, Complete List of Code Contributors,
                       and Citations for Specific Modules
    https://github.com/psi4/psi4/blob/master/codemeta.json
    https://github.com/psi4/psi4/graphs/contributors
    http://psicode.org/psi4manual/master/introduction.html#citing-psifour

    -----------------------------------------------------------------------


    Psi4 started on: Thursday, 17 July 2025 01:44PM

    Process ID: 74356
    Host:       Joses-MacBook-Pro-2.local
    PSIDATADIR: /Users/joseantoniorodriguesromero/anaconda3/share/psi4
    Memory:     500.0 MiB
    Threads:    1
    
  ==> Input File <==

--------------------------------------------------------------------------
molecule { 
1 2
C   0.00000        0.60000        0.00000
Si   0.00000       -0.60000        0.00000
}

set { 
basis              cc-pvdz
reference          uks
maxiter            500
geom_maxiter       500
DAMPING_PERCENTAGE 1
guess              SAP
}

optimize('b3lyp')
--------------------------------------------------------------------------

Scratch directory: /tmp/
gradient() will perform analytic gradient computation.
   => Libint2 <=

    Primary   basis highest AM E, G, H:  6, 6, 3
    Auxiliary basis highest AM E, G, H:  7, 7, 4
    Onebody   basis highest AM E, G, H:  -, -, -
    Solid Harmonics ordering:            Gaussian

*** tstart() called on Joses-MacBook-Pro-2.local
*** at Thu Jul 17 13:44:29 2025

   => Loading Basis Set <=

    Name: CC-PVDZ
    Role: ORBITAL
    Keyword: BASIS
    atoms 1 entry C          line   138 file /Users/joseantoniorodriguesromero/anaconda3/share/psi4/basis/cc-pvdz.gbs 
    atoms 2 entry SI         line   478 file /Users/joseantoniorodriguesromero/anaconda3/share/psi4/basis/cc-pvdz.gbs 


         ---------------------------------------------------------
                                   SCF
               by Justin Turney, Rob Parrish, Andy Simmonett
                          and Daniel G. A. Smith
                              UKS Reference
                        1 Threads,    500 MiB Core
         ---------------------------------------------------------

  ==> Geometry <==

    Molecular point group: c2v
    Full point group: C_inf_v

    Geometry (in Angstrom), charge = 1, multiplicity = 2:

       Center              X                  Y                   Z               Mass       
    ------------   -----------------  -----------------  -----------------  -----------------
         C            0.000000000000     0.000000000000     0.839792218956    12.000000000000
         SI           0.000000000000     0.000000000000    -0.360207781044    27.976926534650

  Running in c2v symmetry.

  Rotational constants: A = ************  B =      1.39400  C =      1.39400 [cm^-1]
  Rotational constants: A = ************  B =  41791.00938  C =  41791.00938 [MHz]
  Nuclear repulsion =   37.042404746900004

  Charge       = 1
  Multiplicity = 2
  Electrons    = 19
  Nalpha       = 10
  Nbeta        = 9

  ==> Algorithm <==

  SCF Algorithm Type is DF.
  DIIS enabled.
  MOM disabled.
  Fractional occupation disabled.
  Guess Type is SAP.
  Energy threshold   = 1.00e-08
  Density threshold  = 1.00e-08
  Integral threshold = 1.00e-12

  ==> Primary Basis <==

  Basis Set: CC-PVDZ
    Blend: CC-PVDZ
    Number of shells: 14
    Number of basis functions: 32
    Number of Cartesian functions: 34
    Spherical Harmonics?: true
    Max angular momentum: 2

  ==> DFT Potential <==

   => LibXC <=

    Version 6.2.2
    S. Lehtola, C. Steigemann, M. J.T. Oliveira, and M. A.L. Marques.,  SoftwareX 7, 1–5 (2018) (10.1016/j.softx.2017.11.002)

   => Composite Functional: B3LYP <= 

    B3LYP Hyb-GGA Exchange-Correlation Functional

    P. J. Stephens, F. J. Devlin, C. F. Chabalowski, and M. J. Frisch.,  J. Phys. Chem. 98, 11623 (1994) (10.1021/j100096a001)

    Deriv               =              1
    GGA                 =           TRUE
    Meta                =          FALSE

    Exchange Hybrid     =           TRUE
    MP2 Hybrid          =          FALSE

   => Exchange Functionals <=

    0.0800   Slater exchange
    0.7200         Becke 88

   => Exact (HF) Exchange <=

    0.2000               HF 

   => Correlation Functionals <=

    0.1900   Vosko, Wilk & Nusair (VWN5_RPA)
    0.8100   Lee, Yang & Parr

   => LibXC Density Thresholds  <==

    XC_HYB_GGA_XC_B3LYP:  1.00E-15 

   => Molecular Quadrature <=

    Radial Scheme          =       TREUTLER
    Pruning Scheme         =           NONE
    Nuclear Scheme         =       TREUTLER

    Blocking Scheme        =         OCTREE
    BS radius alpha        =              1
    Pruning alpha          =              1
    Radial Points          =             75
    Spherical Points       =            302
    Total Points           =          42360
    Total Blocks           =            390
    Max Points             =            255
    Max Functions          =             32
    Weights Tolerance      =       1.00E-15

   => Loading Basis Set <=

    Name: (CC-PVDZ AUX)
    Role: JKFIT
    Keyword: DF_BASIS_SCF
    atoms 1 entry C          line   121 file /Users/joseantoniorodriguesromero/anaconda3/share/psi4/basis/cc-pvdz-jkfit.gbs 
    atoms 2 entry SI         line   445 file /Users/joseantoniorodriguesromero/anaconda3/share/psi4/basis/cc-pvdz-jkfit.gbs 

  ==> Integral Setup <==

  DFHelper Memory: AOs need 0.002 GiB; user supplied 0.327 GiB. 
  Using in-core AOs.

  ==> MemDFJK: Density-Fitted J/K Matrices <==

    J tasked:                   Yes
    K tasked:                   Yes
    wK tasked:                   No
    OpenMP threads:               1
    Memory [MiB]:               334
    Algorithm:                 Core
    Schwarz Cutoff:           1E-12
    Mask sparsity (%):       0.0000
    Fitting Condition:        1E-10

   => Auxiliary Basis Set <=

  Basis Set: (CC-PVDZ AUX)
    Blend: CC-PVDZ-JKFIT
    Number of shells: 60
    Number of basis functions: 182
    Number of Cartesian functions: 211
    Spherical Harmonics?: true
    Max angular momentum: 3

  Cached 100.0% of DFT collocation blocks in 0.039 [GiB].

  Minimum eigenvalue in the overlap matrix is 7.5928676908E-03.
  Reciprocal condition number of the overlap matrix is 2.3577256891E-03.
    Using symmetric orthogonalization.

  ==> Pre-Iterations <==

  SCF Guess: Superposition of Atomic Potentials (doi:10.1021/acs.jctc.8b01089).

  ==> SAP guess <==

   => Molecular Quadrature <=

    Radial Scheme          =       TREUTLER
    Pruning Scheme         =           NONE
    Nuclear Scheme         =       TREUTLER

    Blocking Scheme        =         OCTREE
    BS radius alpha        =              1
    Pruning alpha          =              1
    Radial Points          =             75
    Spherical Points       =            302
    Total Points           =          42360
    Total Blocks           =            390
    Max Points             =            255
    Max Functions          =             32
    Weights Tolerance      =       1.00E-15

   -------------------------------------------------------
    Irrep   Nso     Nmo     Nalpha   Nbeta   Ndocc  Nsocc
   -------------------------------------------------------
     A1        16      16       6       5       5       1
     A2         2       2       0       0       0       0
     B1         7       7       2       2       2       0
     B2         7       7       2       2       2       0
   -------------------------------------------------------
    Total      32      32      10       9       9       1
   -------------------------------------------------------

  ==> Iterations <==

                           Total Energy        Delta E     RMS |[F,P]|

    Occupation by irrep:
             A1    A2    B1    B2 
    DOCC [     6,    0,    2,    1 ]
    SOCC [     0,    0,    0,    1 ]
    NA   [     6,    0,    2,    2 ]
    NB   [     6,    0,    2,    1 ]

   @DF-UKS iter   1:  -325.78672313792646   -3.25787e+02   5.56080e-02 ADIIS/DIIS
   @DF-UKS iter   2:  -323.61411873865131    2.17260e+00   8.54681e-02 ADIIS/DIIS/DAMP=1%
   @DF-UKS iter   3:  -326.40061140722207   -2.78649e+00   2.83861e-02 ADIIS/DIIS/DAMP=1%
   @DF-UKS iter   4:  -326.61363840070436   -2.13027e-01   4.76478e-03 ADIIS/DIIS/DAMP=1%
   @DF-UKS iter   5:  -326.62740551849942   -1.37671e-02   5.17706e-04 ADIIS/DIIS/DAMP=1%
   @DF-UKS iter   6:  -326.62983626984033   -2.43075e-03   5.58649e-04 ADIIS/DIIS/DAMP=1%
   @DF-UKS iter   7:  -326.62974175412029    9.45157e-05   2.02188e-04 ADIIS/DIIS/DAMP=1%
   @DF-UKS iter   8:  -326.62994085726541   -1.99103e-04   1.48733e-04 ADIIS/DIIS/DAMP=1%
   @DF-UKS iter   9:  -326.62996884239317   -2.79851e-05   2.26241e-05 DIIS/DAMP=1%
   @DF-UKS iter  10:  -326.63001642781330   -4.75854e-05   2.60358e-06 DIIS/DAMP=1%
   @DF-UKS iter  11:  -326.63001741842498   -9.90612e-07   6.92669e-07 DIIS/DAMP=1%
   @DF-UKS iter  12:  -326.63001794508602   -5.26661e-07   1.43676e-07 DIIS/DAMP=1%
   @DF-UKS iter  13:  -326.63001781656885    1.28517e-07   4.72890e-08 DIIS/DAMP=1%
   @DF-UKS iter  14:  -326.63001785624596   -3.96771e-08   5.83304e-09 DIIS/DAMP=1%
   @DF-UKS iter  15:  -326.63001784993094    6.31502e-09   8.51770e-10 DIIS/DAMP=1%
  Energy and wave function converged.


  ==> Post-Iterations <==

   Electrons on quadrature grid:
      Nalpha   =    9.9999997490 ; deviation = -2.510e-07
      Nbeta    =    8.9999996563 ; deviation = -3.437e-07
      Ntotal   =   18.9999994053 ; deviation = -5.947e-07 

   @Spin Contamination Metric:   4.132963397E-01
   @S^2 Expected:                7.500000000E-01
   @S^2 Observed:                1.163296340E+00
   @S   Expected:                5.000000000E-01
   @S   Observed:                5.000000000E-01

    Orbital Energies [Eh]
    ---------------------

    Alpha Occupied:                                                       

       1A1   -66.471191     2A1   -10.561696     3A1    -5.659938  
       4A1    -4.027762     1B2    -4.012335     1B1    -4.002636  
       5A1    -1.043452     2B2    -0.677372     6A1    -0.635670  
       2B1    -0.631377  

    Alpha Virtual:                                                        

       7A1    -0.471286     3B2    -0.278157     3B1    -0.258099  
       8A1    -0.138037     9A1     0.022409     4B2     0.040747  
       4B1     0.055394    10A1     0.062662     1A2     0.063043  
      11A1     0.114878     5B2     0.215901     5B1     0.230261  
      12A1     0.247542     6B2     0.323556     6B1     0.353843  
      13A1     0.637095     2A2     0.902118    14A1     0.902411  
       7B2     1.210243     7B1     1.238030    15A1     1.253861  
      16A1     1.407228  

    Beta Occupied:                                                        

       1A1   -66.472044     2A1   -10.540565     3A1    -5.660826  
       4A1    -4.034504     1B2    -4.007501     1B1    -4.004363  
       5A1    -0.988975     6A1    -0.620748     2B1    -0.608379  

    Beta Virtual:                                                         

       2B2    -0.514897     7A1    -0.415550     3B1    -0.268980  
       3B2    -0.256987     8A1    -0.139239     9A1     0.009112  
       4B1     0.051688     4B2     0.051876     1A2     0.068173  
      10A1     0.070175    11A1     0.122722     5B1     0.227105  
       5B2     0.228596    12A1     0.256832     6B1     0.365077  
       6B2     0.380627    13A1     0.689311     2A2     0.956843  
      14A1     0.962105     7B1     1.273902     7B2     1.282045  
      15A1     1.296600    16A1     1.439584  

    Final Occupation by Irrep:
             A1    A2    B1    B2 
    DOCC [     6,    0,    2,    1 ]
    SOCC [     0,    0,    0,    1 ]
    NA   [     6,    0,    2,    2 ]
    NB   [     6,    0,    2,    1 ]

  @DF-UKS Final Energy:  -326.63001784993094

   => Energetics <=

    Nuclear Repulsion Energy =             37.0424047469000044
    One-Electron Energy =                -517.5808388248087795
    Two-Electron Energy =                 175.0592299404700611
    DFT Exchange-Correlation Energy =     -21.1508137124922015
    Empirical Dispersion Energy =           0.0000000000000000
    VV10 Nonlocal Energy =                  0.0000000000000000
    Total Energy =                       -326.6300178499309368

  UHF NO Occupations:
  HONO-2 :    2 B1 1.9969891
  HONO-1 :    6 A1 1.7705781
  HONO-0 :    2 B2 1.0000000
  LUNO+0 :    7 A1 0.2294219
  LUNO+1 :    3 B1 0.0030109
  LUNO+2 :    8 A1 0.0005358
  LUNO+3 :    3 B2 0.0000006


Computation Completed


Properties will be evaluated at   0.000000,   0.000000,   0.000000 [a0]

Properties computed using the SCF density matrix


 Multipole Moments:

 ------------------------------------------------------------------------------------
     Multipole            Electronic (a.u.)      Nuclear  (a.u.)        Total (a.u.)
 ------------------------------------------------------------------------------------

 L = 1.  Multiply by 2.5417464519 to convert [e a0] to [Debye]
 Dipole X            :          0.0000000            0.0000000            0.0000000
 Dipole Y            :          0.0000000            0.0000000            0.0000000
 Dipole Z            :         -0.5925293           -0.0078530           -0.6003823
 Magnitude           :                                                    0.6003823

 ------------------------------------------------------------------------------------

*** tstop() called on Joses-MacBook-Pro-2.local at Thu Jul 17 13:44:30 2025
Module time:
	user time   =       4.37 seconds =       0.07 minutes
	system time =       6.42 seconds =       0.11 minutes
	total time  =          1 seconds =       0.02 minutes
Total time:
	user time   =       4.37 seconds =       0.07 minutes
	system time =       6.42 seconds =       0.11 minutes
	total time  =          1 seconds =       0.02 minutes

*** tstart() called on Joses-MacBook-Pro-2.local
*** at Thu Jul 17 13:44:30 2025


         ------------------------------------------------------------
                                   SCF GRAD                          
                          Rob Parrish, Justin Turney,                
                       Andy Simmonett, and Alex Sokolov              
         ------------------------------------------------------------

  ==> Geometry <==

    Molecular point group: c2v
    Full point group: C_inf_v

    Geometry (in Angstrom), charge = 1, multiplicity = 2:

       Center              X                  Y                   Z               Mass       
    ------------   -----------------  -----------------  -----------------  -----------------
         C            0.000000000000     0.000000000000     0.839792218956    12.000000000000
         SI           0.000000000000     0.000000000000    -0.360207781044    27.976926534650

  Nuclear repulsion =   37.042404746900004

  ==> Basis Set <==

  Basis Set: CC-PVDZ
    Blend: CC-PVDZ
    Number of shells: 14
    Number of basis functions: 32
    Number of Cartesian functions: 34
    Spherical Harmonics?: true
    Max angular momentum: 2

  ==> DFJKGrad: Density-Fitted SCF Gradients <==

    Gradient:                    1
    J tasked:                  Yes
    K tasked:                  Yes
    wK tasked:                  No
    OpenMP threads:              1
    Integrals threads:           1
    Memory [MiB]:              375
    Schwarz Cutoff:          1E-12
    Fitting Condition:       1E-10

   => Auxiliary Basis Set <=

  Basis Set: (CC-PVDZ AUX)
    Blend: CC-PVDZ-JKFIT
    Number of shells: 60
    Number of basis functions: 182
    Number of Cartesian functions: 211
    Spherical Harmonics?: true
    Max angular momentum: 3

  ==> DFT Potential <==

   => LibXC <=

    Version 6.2.2
    S. Lehtola, C. Steigemann, M. J.T. Oliveira, and M. A.L. Marques.,  SoftwareX 7, 1–5 (2018) (10.1016/j.softx.2017.11.002)

   => Composite Functional: B3LYP <= 

    B3LYP Hyb-GGA Exchange-Correlation Functional

    P. J. Stephens, F. J. Devlin, C. F. Chabalowski, and M. J. Frisch.,  J. Phys. Chem. 98, 11623 (1994) (10.1021/j100096a001)

    Deriv               =              1
    GGA                 =           TRUE
    Meta                =          FALSE

    Exchange Hybrid     =           TRUE
    MP2 Hybrid          =          FALSE

   => Exchange Functionals <=

    0.0800   Slater exchange
    0.7200         Becke 88

   => Exact (HF) Exchange <=

    0.2000               HF 

   => Correlation Functionals <=

    0.1900   Vosko, Wilk & Nusair (VWN5_RPA)
    0.8100   Lee, Yang & Parr

   => LibXC Density Thresholds  <==

    XC_HYB_GGA_XC_B3LYP:  1.00E-15 

   => Molecular Quadrature <=

    Radial Scheme          =       TREUTLER
    Pruning Scheme         =           NONE
    Nuclear Scheme         =       TREUTLER

    Blocking Scheme        =         OCTREE
    BS radius alpha        =              1
    Pruning alpha          =              1
    Radial Points          =             75
    Spherical Points       =            302
    Total Points           =          42360
    Total Blocks           =            390
    Max Points             =            255
    Max Functions          =             32
    Weights Tolerance      =       1.00E-15


  -Total Gradient:
     Atom            X                  Y                   Z
    ------   -----------------  -----------------  -----------------
       1        0.000000000000     0.000000000000    -1.159026486590
       2       -0.000000000000     0.000000000000     1.159003096597


*** tstop() called on Joses-MacBook-Pro-2.local at Thu Jul 17 13:44:30 2025
Module time:
	user time   =       0.97 seconds =       0.02 minutes
	system time =       1.52 seconds =       0.03 minutes
	total time  =          0 seconds =       0.00 minutes
Total time:
	user time   =       5.34 seconds =       0.09 minutes
	system time =       7.95 seconds =       0.13 minutes
	total time  =          1 seconds =       0.02 minutes

    			-----------------------------------------

    			 OPTKING 3.0: for geometry optimizations 

    			     By R.A. King, Bethel University     

    			        with contributions from          

    			    A.V. Copan, J. Cayton, A. Heide      

    			-----------------------------------------

    
	                            ===> Fragment 1 <== 

	 Z (Atomic Numbers)          Masses                          Geom                  
	       6.000000            12.000000          0.00000000  0.00000000  1.58697730   
	      14.000000            27.976927          0.00000000  0.00000000 -0.68069405   

	 - Coordinate -           - BOHR/RAD -       - ANG/DEG -
	 R(1,2)           =         2.267671           1.200000


	        --- Internal Coordinate Step in ANG or DEG, aJ/ANG or AJ/DEG ---
	-------------------------------------------------------------------------------
	           Coordinate      Previous         Force          Change          New 
	           ----------      --------        ------          ------        ------
	               R(1,2)       1.20000        9.54880        0.13684       1.33684
	-------------------------------------------------------------------------------

	                                 ==> Convergence Check <==                                  
    
	Measures of convergence in internal coordinates in au.
    
	Criteria marked as inactive (o), active & met (*), and active & unmet ( ).

	----------------------------------------------------------------------------------------------
	   Step    Total Energy     Delta E     Max Force     RMS Force      Max Disp      RMS Disp   
	----------------------------------------------------------------------------------------------
	  Convergence Criteria     1.00e-06 *    3.00e-04 *             o    1.20e-03 *             o
	----------------------------------------------------------------------------------------------
	     1    -326.63001785   -3.27e+02      1.16e+00      1.16e+00 o    2.59e-01      2.59e-01 o  ~
	----------------------------------------------------------------------------------------------

Next Geometry in Ang 
	Fragment 1 (Ang)

	    C   0.0000000000   0.0000000000   0.9082140119
	   Si   0.0000000000   0.0000000000  -0.4286295740


    Structure for next step:
    Molecular point group: c2v
    Full point group: C_inf_v

    Geometry (in Angstrom), charge = 1, multiplicity = 2:

    C            0.000000000000     0.000000000000     0.935559034443
    SI           0.000000000000     0.000000000000    -0.401284551375


Scratch directory: /tmp/
gradient() will perform analytic gradient computation.
   => Libint2 <=

    Primary   basis highest AM E, G, H:  6, 6, 3
    Auxiliary basis highest AM E, G, H:  7, 7, 4
    Onebody   basis highest AM E, G, H:  -, -, -
    Solid Harmonics ordering:            Gaussian

*** tstart() called on Joses-MacBook-Pro-2.local
*** at Thu Jul 17 13:44:30 2025

   => Loading Basis Set <=

    Name: CC-PVDZ
    Role: ORBITAL
    Keyword: BASIS
    atoms 1 entry C          line   138 file /Users/joseantoniorodriguesromero/anaconda3/share/psi4/basis/cc-pvdz.gbs 
    atoms 2 entry SI         line   478 file /Users/joseantoniorodriguesromero/anaconda3/share/psi4/basis/cc-pvdz.gbs 


         ---------------------------------------------------------
                                   SCF
               by Justin Turney, Rob Parrish, Andy Simmonett
                          and Daniel G. A. Smith
                              UKS Reference
                        1 Threads,    500 MiB Core
         ---------------------------------------------------------

  ==> Geometry <==

    Molecular point group: c2v
    Full point group: C_inf_v

    Geometry (in Angstrom), charge = 1, multiplicity = 2:

       Center              X                  Y                   Z               Mass       
    ------------   -----------------  -----------------  -----------------  -----------------
         C            0.000000000000     0.000000000000     0.935559034443    12.000000000000
         SI           0.000000000000     0.000000000000    -0.401284551375    27.976926534650

  Running in c2v symmetry.

  Rotational constants: A = ************  B =      1.12322  C =      1.12322 [cm^-1]
  Rotational constants: A = ************  B =  33673.18215  C =  33673.18215 [MHz]
  Nuclear repulsion =   33.250625703575238

  Charge       = 1
  Multiplicity = 2
  Electrons    = 19
  Nalpha       = 10
  Nbeta        = 9

  ==> Algorithm <==

  SCF Algorithm Type is DF.
  DIIS enabled.
  MOM disabled.
  Fractional occupation disabled.
  Guess Type is READ.
  Energy threshold   = 1.00e-08
  Density threshold  = 1.00e-08
  Integral threshold = 1.00e-12

  ==> Primary Basis <==

  Basis Set: CC-PVDZ
    Blend: CC-PVDZ
    Number of shells: 14
    Number of basis functions: 32
    Number of Cartesian functions: 34
    Spherical Harmonics?: true
    Max angular momentum: 2

  ==> DFT Potential <==

   => LibXC <=

    Version 6.2.2
    S. Lehtola, C. Steigemann, M. J.T. Oliveira, and M. A.L. Marques.,  SoftwareX 7, 1–5 (2018) (10.1016/j.softx.2017.11.002)

   => Composite Functional: B3LYP <= 

    B3LYP Hyb-GGA Exchange-Correlation Functional

    P. J. Stephens, F. J. Devlin, C. F. Chabalowski, and M. J. Frisch.,  J. Phys. Chem. 98, 11623 (1994) (10.1021/j100096a001)

    Deriv               =              1
    GGA                 =           TRUE
    Meta                =          FALSE

    Exchange Hybrid     =           TRUE
    MP2 Hybrid          =          FALSE

   => Exchange Functionals <=

    0.0800   Slater exchange
    0.7200         Becke 88

   => Exact (HF) Exchange <=

    0.2000               HF 

   => Correlation Functionals <=

    0.1900   Vosko, Wilk & Nusair (VWN5_RPA)
    0.8100   Lee, Yang & Parr

   => LibXC Density Thresholds  <==

    XC_HYB_GGA_XC_B3LYP:  1.00E-15 

   => Molecular Quadrature <=

    Radial Scheme          =       TREUTLER
    Pruning Scheme         =           NONE
    Nuclear Scheme         =       TREUTLER

    Blocking Scheme        =         OCTREE
    BS radius alpha        =              1
    Pruning alpha          =              1
    Radial Points          =             75
    Spherical Points       =            302
    Total Points           =          42404
    Total Blocks           =            389
    Max Points             =            256
    Max Functions          =             32
    Weights Tolerance      =       1.00E-15

   => Loading Basis Set <=

    Name: (CC-PVDZ AUX)
    Role: JKFIT
    Keyword: DF_BASIS_SCF
    atoms 1 entry C          line   121 file /Users/joseantoniorodriguesromero/anaconda3/share/psi4/basis/cc-pvdz-jkfit.gbs 
    atoms 2 entry SI         line   445 file /Users/joseantoniorodriguesromero/anaconda3/share/psi4/basis/cc-pvdz-jkfit.gbs 

   => Loading Basis Set <=

    Name: CC-PVDZ
    Role: ORBITAL
    Keyword: BASIS
    atoms 1 entry C          line   138 file /Users/joseantoniorodriguesromero/anaconda3/share/psi4/basis/cc-pvdz.gbs 
    atoms 2 entry SI         line   478 file /Users/joseantoniorodriguesromero/anaconda3/share/psi4/basis/cc-pvdz.gbs 

  Reading orbitals from file /tmp/doublet_CSi.default.74356.180.npy, no projection.

  ==> Integral Setup <==

  DFHelper Memory: AOs need 0.002 GiB; user supplied 0.327 GiB. 
  Using in-core AOs.

  ==> MemDFJK: Density-Fitted J/K Matrices <==

    J tasked:                   Yes
    K tasked:                   Yes
    wK tasked:                   No
    OpenMP threads:               1
    Memory [MiB]:               334
    Algorithm:                 Core
    Schwarz Cutoff:           1E-12
    Mask sparsity (%):       0.0000
    Fitting Condition:        1E-10

   => Auxiliary Basis Set <=

  Basis Set: (CC-PVDZ AUX)
    Blend: CC-PVDZ-JKFIT
    Number of shells: 60
    Number of basis functions: 182
    Number of Cartesian functions: 211
    Spherical Harmonics?: true
    Max angular momentum: 3

  Cached 100.0% of DFT collocation blocks in 0.039 [GiB].

  Minimum eigenvalue in the overlap matrix is 9.2811053476E-03.
  Reciprocal condition number of the overlap matrix is 2.9070580123E-03.
    Using symmetric orthogonalization.

  ==> Pre-Iterations <==

  SCF Guess: Orbitals guess was supplied from a previous computation.

   -------------------------------------------------------
    Irrep   Nso     Nmo     Nalpha   Nbeta   Ndocc  Nsocc
   -------------------------------------------------------
     A1        16      16       6       6       6       0
     A2         2       2       0       0       0       0
     B1         7       7       2       2       2       0
     B2         7       7       2       1       1       1
   -------------------------------------------------------
    Total      32      32      10       9       9       1
   -------------------------------------------------------

  ==> Iterations <==

                           Total Energy        Delta E     RMS |[F,P]|

   @DF-UKS iter   0:  -326.82681027168002   -3.26827e+02   4.13408e-02 
   @DF-UKS iter   1:  -326.84218445245904   -1.53742e-02   5.50762e-03 ADIIS/DIIS
   @DF-UKS iter   2:  -326.80510110353731    3.70833e-02   1.30288e-02 ADIIS/DIIS/DAMP=1%
   @DF-UKS iter   3:  -326.84994358717535   -4.48425e-02   3.98448e-04 ADIIS/DIIS/DAMP=1%
   @DF-UKS iter   4:  -326.84970071062008    2.42877e-04   1.51825e-04 ADIIS/DIIS/DAMP=1%
   @DF-UKS iter   5:  -326.84929358753328    4.07123e-04   4.25289e-05 DIIS/DAMP=1%
   @DF-UKS iter   6:  -326.84936561060874   -7.20231e-05   1.35777e-05 DIIS/DAMP=1%
   @DF-UKS iter   7:  -326.84935959113432    6.01947e-06   7.85162e-06 DIIS/DAMP=1%
   @DF-UKS iter   8:  -326.84936269212199   -3.10099e-06   2.40652e-06 DIIS/DAMP=1%
   @DF-UKS iter   9:  -326.84936371575736   -1.02364e-06   3.20018e-07 DIIS/DAMP=1%
   @DF-UKS iter  10:  -326.84936362857343    8.71839e-08   1.10837e-07 DIIS/DAMP=1%
   @DF-UKS iter  11:  -326.84936372611514   -9.75417e-08   2.23668e-08 DIIS/DAMP=1%
   @DF-UKS iter  12:  -326.84936370701161    1.91035e-08   3.51641e-09 DIIS/DAMP=1%
   @DF-UKS iter  13:  -326.84936370417984    2.83177e-09   3.98918e-10 DIIS/DAMP=1%
  Energy and wave function converged.


  ==> Post-Iterations <==

   Electrons on quadrature grid:
      Nalpha   =    9.9999995065 ; deviation = -4.935e-07
      Nbeta    =    8.9999996021 ; deviation = -3.979e-07
      Ntotal   =   18.9999991086 ; deviation = -8.914e-07 

   @Spin Contamination Metric:   4.169086019E-01
   @S^2 Expected:                7.500000000E-01
   @S^2 Observed:                1.166908602E+00
   @S   Expected:                5.000000000E-01
   @S   Observed:                5.000000000E-01

    Orbital Energies [Eh]
    ---------------------

    Alpha Occupied:                                                       

       1A1   -66.482983     2A1   -10.556321     3A1    -5.648494  
       4A1    -4.010209     1B2    -4.006650     1B1    -3.997718  
       5A1    -1.027316     6A1    -0.647660     2B2    -0.639174  
       2B1    -0.598034  

    Alpha Virtual:                                                        

       7A1    -0.481850     3B2    -0.292907     3B1    -0.272213  
       8A1    -0.144361     9A1     0.021729     4B2     0.043875  
       4B1     0.058262    10A1     0.070050     1A2     0.070507  
      11A1     0.116734     5B2     0.218936    12A1     0.220120  
       5B1     0.233577     6B2     0.273774     6B1     0.301658  
      13A1     0.610184     2A2     0.893220    14A1     0.893278  
      15A1     1.021685     7B2     1.180856     7B1     1.208293  
      16A1     1.368124  

    Beta Occupied:                                                        

       1A1   -66.484344     2A1   -10.535104     3A1    -5.650316  
       4A1    -4.016503     1B2    -4.003228     1B1    -4.000246  
       5A1    -0.977045     6A1    -0.631973     2B1    -0.574902  

    Beta Virtual:                                                         

       2B2    -0.486890     7A1    -0.427168     3B1    -0.280768  
       3B2    -0.265597     8A1    -0.147927     9A1     0.008735  
       4B1     0.054367     4B2     0.055435     1A2     0.072936  
      10A1     0.074946    11A1     0.123520     5B1     0.224001  
       5B2     0.225638    12A1     0.232645     6B1     0.318284  
       6B2     0.334886    13A1     0.661359     2A2     0.950976  
      14A1     0.955977    15A1     1.048517     7B1     1.244987  
       7B2     1.254659    16A1     1.414378  

    Final Occupation by Irrep:
             A1    A2    B1    B2 
    DOCC [     6,    0,    2,    1 ]
    SOCC [     0,    0,    0,    1 ]
    NA   [     6,    0,    2,    2 ]
    NB   [     6,    0,    2,    1 ]

  @DF-UKS Final Energy:  -326.84936370417984

   => Energetics <=

    Nuclear Repulsion Energy =             33.2506257035752384
    One-Electron Energy =                -510.6819254204116305
    Two-Electron Energy =                 171.6273430481307969
    DFT Exchange-Correlation Energy =     -21.0454070354742484
    Empirical Dispersion Energy =           0.0000000000000000
    VV10 Nonlocal Energy =                  0.0000000000000000
    Total Energy =                       -326.8493637041798365

  UHF NO Occupations:
  HONO-2 :    2 B1 1.9945163
  HONO-1 :    6 A1 1.7713859
  HONO-0 :    2 B2 1.0000000
  LUNO+0 :    7 A1 0.2286141
  LUNO+1 :    3 B1 0.0054837
  LUNO+2 :    8 A1 0.0005027
  LUNO+3 :    3 B2 0.0000005


Computation Completed


Properties will be evaluated at   0.000000,   0.000000,   0.000000 [a0]

Properties computed using the SCF density matrix


 Multipole Moments:

 ------------------------------------------------------------------------------------
     Multipole            Electronic (a.u.)      Nuclear  (a.u.)        Total (a.u.)
 ------------------------------------------------------------------------------------

 L = 1.  Multiply by 2.5417464519 to convert [e a0] to [Debye]
 Dipole X            :          0.0000000            0.0000000            0.0000000
 Dipole Y            :          0.0000000            0.0000000            0.0000000
 Dipole Z            :         -0.6368883           -0.0087485           -0.6456368
 Magnitude           :                                                    0.6456368

 ------------------------------------------------------------------------------------

*** tstop() called on Joses-MacBook-Pro-2.local at Thu Jul 17 13:44:31 2025
Module time:
	user time   =       3.53 seconds =       0.06 minutes
	system time =       5.40 seconds =       0.09 minutes
	total time  =          1 seconds =       0.02 minutes
Total time:
	user time   =       8.90 seconds =       0.15 minutes
	system time =      13.56 seconds =       0.23 minutes
	total time  =          2 seconds =       0.03 minutes

*** tstart() called on Joses-MacBook-Pro-2.local
*** at Thu Jul 17 13:44:31 2025


         ------------------------------------------------------------
                                   SCF GRAD                          
                          Rob Parrish, Justin Turney,                
                       Andy Simmonett, and Alex Sokolov              
         ------------------------------------------------------------

  ==> Geometry <==

    Molecular point group: c2v
    Full point group: C_inf_v

    Geometry (in Angstrom), charge = 1, multiplicity = 2:

       Center              X                  Y                   Z               Mass       
    ------------   -----------------  -----------------  -----------------  -----------------
         C            0.000000000000     0.000000000000     0.935559034443    12.000000000000
         SI           0.000000000000     0.000000000000    -0.401284551375    27.976926534650

  Nuclear repulsion =   33.250625703575238

  ==> Basis Set <==

  Basis Set: CC-PVDZ
    Blend: CC-PVDZ
    Number of shells: 14
    Number of basis functions: 32
    Number of Cartesian functions: 34
    Spherical Harmonics?: true
    Max angular momentum: 2

  ==> DFJKGrad: Density-Fitted SCF Gradients <==

    Gradient:                    1
    J tasked:                  Yes
    K tasked:                  Yes
    wK tasked:                  No
    OpenMP threads:              1
    Integrals threads:           1
    Memory [MiB]:              375
    Schwarz Cutoff:          1E-12
    Fitting Condition:       1E-10

   => Auxiliary Basis Set <=

  Basis Set: (CC-PVDZ AUX)
    Blend: CC-PVDZ-JKFIT
    Number of shells: 60
    Number of basis functions: 182
    Number of Cartesian functions: 211
    Spherical Harmonics?: true
    Max angular momentum: 3

  ==> DFT Potential <==

   => LibXC <=

    Version 6.2.2
    S. Lehtola, C. Steigemann, M. J.T. Oliveira, and M. A.L. Marques.,  SoftwareX 7, 1–5 (2018) (10.1016/j.softx.2017.11.002)

   => Composite Functional: B3LYP <= 

    B3LYP Hyb-GGA Exchange-Correlation Functional

    P. J. Stephens, F. J. Devlin, C. F. Chabalowski, and M. J. Frisch.,  J. Phys. Chem. 98, 11623 (1994) (10.1021/j100096a001)

    Deriv               =              1
    GGA                 =           TRUE
    Meta                =          FALSE

    Exchange Hybrid     =           TRUE
    MP2 Hybrid          =          FALSE

   => Exchange Functionals <=

    0.0800   Slater exchange
    0.7200         Becke 88

   => Exact (HF) Exchange <=

    0.2000               HF 

   => Correlation Functionals <=

    0.1900   Vosko, Wilk & Nusair (VWN5_RPA)
    0.8100   Lee, Yang & Parr

   => LibXC Density Thresholds  <==

    XC_HYB_GGA_XC_B3LYP:  1.00E-15 

   => Molecular Quadrature <=

    Radial Scheme          =       TREUTLER
    Pruning Scheme         =           NONE
    Nuclear Scheme         =       TREUTLER

    Blocking Scheme        =         OCTREE
    BS radius alpha        =              1
    Pruning alpha          =              1
    Radial Points          =             75
    Spherical Points       =            302
    Total Points           =          42404
    Total Blocks           =            389
    Max Points             =            256
    Max Functions          =             32
    Weights Tolerance      =       1.00E-15


  -Total Gradient:
     Atom            X                  Y                   Z
    ------   -----------------  -----------------  -----------------
       1       -0.000000000000     0.000000000000    -0.587665335953
       2        0.000000000000    -0.000000000000     0.587656039868


*** tstop() called on Joses-MacBook-Pro-2.local at Thu Jul 17 13:44:31 2025
Module time:
	user time   =       0.89 seconds =       0.01 minutes
	system time =       1.65 seconds =       0.03 minutes
	total time  =          0 seconds =       0.00 minutes
Total time:
	user time   =       9.79 seconds =       0.16 minutes
	system time =      15.21 seconds =       0.25 minutes
	total time  =          2 seconds =       0.03 minutes

    			-----------------------------------------

    			 OPTKING 3.0: for geometry optimizations 

    			     By R.A. King, Bethel University     

    			        with contributions from          

    			    A.V. Copan, J. Cayton, A. Heide      

    			-----------------------------------------

    
	                            ===> Fragment 1 <== 

	 Z (Atomic Numbers)          Masses                          Geom                  
	       6.000000            12.000000          0.00000000  0.00000000  1.76795035   
	      14.000000            27.976927          0.00000000  0.00000000 -0.75831790   

	 - Coordinate -           - BOHR/RAD -       - ANG/DEG -
	 R(1,2)           =         2.526268           1.336844


	        --- Internal Coordinate Step in ANG or DEG, aJ/ANG or AJ/DEG ---
	-------------------------------------------------------------------------------
	           Coordinate      Previous         Force          Change          New 
	           ----------      --------        ------          ------        ------
	               R(1,2)       1.33684        4.84157        0.13199       1.46884
	-------------------------------------------------------------------------------

	                                 ==> Convergence Check <==                                  
    
	Measures of convergence in internal coordinates in au.
    
	Criteria marked as inactive (o), active & met (*), and active & unmet ( ).

	----------------------------------------------------------------------------------------------
	   Step    Total Energy     Delta E     Max Force     RMS Force      Max Disp      RMS Disp   
	----------------------------------------------------------------------------------------------
	  Convergence Criteria     1.00e-06 *    3.00e-04 *             o    1.20e-03 *             o
	----------------------------------------------------------------------------------------------
	     2    -326.84936370   -2.19e-01      5.88e-01      5.88e-01 o    2.49e-01      2.49e-01 o  ~
	----------------------------------------------------------------------------------------------

Next Geometry in Ang 
	Fragment 1 (Ang)

	    C   0.0000000000   0.0000000000   1.0015552423
	   Si   0.0000000000   0.0000000000  -0.4672807592


    Structure for next step:
    Molecular point group: c2v
    Full point group: C_inf_v

    Geometry (in Angstrom), charge = 1, multiplicity = 2:

    C            0.000000000000     0.000000000000     1.027930870797
    SI           0.000000000000     0.000000000000    -0.440905130672


Scratch directory: /tmp/
gradient() will perform analytic gradient computation.
   => Libint2 <=

    Primary   basis highest AM E, G, H:  6, 6, 3
    Auxiliary basis highest AM E, G, H:  7, 7, 4
    Onebody   basis highest AM E, G, H:  -, -, -
    Solid Harmonics ordering:            Gaussian

*** tstart() called on Joses-MacBook-Pro-2.local
*** at Thu Jul 17 13:44:31 2025

   => Loading Basis Set <=

    Name: CC-PVDZ
    Role: ORBITAL
    Keyword: BASIS
    atoms 1 entry C          line   138 file /Users/joseantoniorodriguesromero/anaconda3/share/psi4/basis/cc-pvdz.gbs 
    atoms 2 entry SI         line   478 file /Users/joseantoniorodriguesromero/anaconda3/share/psi4/basis/cc-pvdz.gbs 


         ---------------------------------------------------------
                                   SCF
               by Justin Turney, Rob Parrish, Andy Simmonett
                          and Daniel G. A. Smith
                              UKS Reference
                        1 Threads,    500 MiB Core
         ---------------------------------------------------------

  ==> Geometry <==

    Molecular point group: c2v
    Full point group: C_inf_v

    Geometry (in Angstrom), charge = 1, multiplicity = 2:

       Center              X                  Y                   Z               Mass       
    ------------   -----------------  -----------------  -----------------  -----------------
         C            0.000000000000     0.000000000000     1.027930870797    12.000000000000
         SI           0.000000000000     0.000000000000    -0.440905130672    27.976926534650

  Running in c2v symmetry.

  Rotational constants: A = ************  B =      0.93042  C =      0.93042 [cm^-1]
  Rotational constants: A = ************  B =  27893.22536  C =  27893.22536 [MHz]
  Nuclear repulsion =   30.262660808834422

  Charge       = 1
  Multiplicity = 2
  Electrons    = 19
  Nalpha       = 10
  Nbeta        = 9

  ==> Algorithm <==

  SCF Algorithm Type is DF.
  DIIS enabled.
  MOM disabled.
  Fractional occupation disabled.
  Guess Type is READ.
  Energy threshold   = 1.00e-08
  Density threshold  = 1.00e-08
  Integral threshold = 1.00e-12

  ==> Primary Basis <==

  Basis Set: CC-PVDZ
    Blend: CC-PVDZ
    Number of shells: 14
    Number of basis functions: 32
    Number of Cartesian functions: 34
    Spherical Harmonics?: true
    Max angular momentum: 2

  ==> DFT Potential <==

   => LibXC <=

    Version 6.2.2
    S. Lehtola, C. Steigemann, M. J.T. Oliveira, and M. A.L. Marques.,  SoftwareX 7, 1–5 (2018) (10.1016/j.softx.2017.11.002)

   => Composite Functional: B3LYP <= 

    B3LYP Hyb-GGA Exchange-Correlation Functional

    P. J. Stephens, F. J. Devlin, C. F. Chabalowski, and M. J. Frisch.,  J. Phys. Chem. 98, 11623 (1994) (10.1021/j100096a001)

    Deriv               =              1
    GGA                 =           TRUE
    Meta                =          FALSE

    Exchange Hybrid     =           TRUE
    MP2 Hybrid          =          FALSE

   => Exchange Functionals <=

    0.0800   Slater exchange
    0.7200         Becke 88

   => Exact (HF) Exchange <=

    0.2000               HF 

   => Correlation Functionals <=

    0.1900   Vosko, Wilk & Nusair (VWN5_RPA)
    0.8100   Lee, Yang & Parr

   => LibXC Density Thresholds  <==

    XC_HYB_GGA_XC_B3LYP:  1.00E-15 

   => Molecular Quadrature <=

    Radial Scheme          =       TREUTLER
    Pruning Scheme         =           NONE
    Nuclear Scheme         =       TREUTLER

    Blocking Scheme        =         OCTREE
    BS radius alpha        =              1
    Pruning alpha          =              1
    Radial Points          =             75
    Spherical Points       =            302
    Total Points           =          42410
    Total Blocks           =            391
    Max Points             =            256
    Max Functions          =             32
    Weights Tolerance      =       1.00E-15

   => Loading Basis Set <=

    Name: (CC-PVDZ AUX)
    Role: JKFIT
    Keyword: DF_BASIS_SCF
    atoms 1 entry C          line   121 file /Users/joseantoniorodriguesromero/anaconda3/share/psi4/basis/cc-pvdz-jkfit.gbs 
    atoms 2 entry SI         line   445 file /Users/joseantoniorodriguesromero/anaconda3/share/psi4/basis/cc-pvdz-jkfit.gbs 

   => Loading Basis Set <=

    Name: CC-PVDZ
    Role: ORBITAL
    Keyword: BASIS
    atoms 1 entry C          line   138 file /Users/joseantoniorodriguesromero/anaconda3/share/psi4/basis/cc-pvdz.gbs 
    atoms 2 entry SI         line   478 file /Users/joseantoniorodriguesromero/anaconda3/share/psi4/basis/cc-pvdz.gbs 

  Reading orbitals from file /tmp/doublet_CSi.default.74356.180.npy, no projection.

  ==> Integral Setup <==

  DFHelper Memory: AOs need 0.002 GiB; user supplied 0.327 GiB. 
  Using in-core AOs.

  ==> MemDFJK: Density-Fitted J/K Matrices <==

    J tasked:                   Yes
    K tasked:                   Yes
    wK tasked:                   No
    OpenMP threads:               1
    Memory [MiB]:               335
    Algorithm:                 Core
    Schwarz Cutoff:           1E-12
    Mask sparsity (%):       0.0000
    Fitting Condition:        1E-10

   => Auxiliary Basis Set <=

  Basis Set: (CC-PVDZ AUX)
    Blend: CC-PVDZ-JKFIT
    Number of shells: 60
    Number of basis functions: 182
    Number of Cartesian functions: 211
    Spherical Harmonics?: true
    Max angular momentum: 3

  Cached 100.0% of DFT collocation blocks in 0.039 [GiB].

  Minimum eigenvalue in the overlap matrix is 1.1262216454E-02.
  Reciprocal condition number of the overlap matrix is 3.5697773519E-03.
    Using symmetric orthogonalization.

  ==> Pre-Iterations <==

  SCF Guess: Orbitals guess was supplied from a previous computation.

   -------------------------------------------------------
    Irrep   Nso     Nmo     Nalpha   Nbeta   Ndocc  Nsocc
   -------------------------------------------------------
     A1        16      16       6       6       6       0
     A2         2       2       0       0       0       0
     B1         7       7       2       2       2       0
     B2         7       7       2       1       1       1
   -------------------------------------------------------
    Total      32      32      10       9       9       1
   -------------------------------------------------------

  ==> Iterations <==

                           Total Energy        Delta E     RMS |[F,P]|

   @DF-UKS iter   0:  -326.89797468275344   -3.26898e+02   2.71909e-02 
   @DF-UKS iter   1:  -326.95148648070830   -5.35118e-02   2.15947e-03 ADIIS/DIIS
   @DF-UKS iter   2:  -326.94547324120970    6.01324e-03   5.15913e-03 ADIIS/DIIS/DAMP=1%
   @DF-UKS iter   3:  -326.95249059686427   -7.01736e-03   4.98008e-04 ADIIS/DIIS/DAMP=1%
   @DF-UKS iter   4:  -326.95262854838160   -1.37952e-04   7.04944e-05 DIIS/DAMP=1%
   @DF-UKS iter   5:  -326.95261113831737    1.74101e-05   6.88087e-05 DIIS/DAMP=1%
   @DF-UKS iter   6:  -326.95262723510359   -1.60968e-05   1.48406e-05 DIIS/DAMP=1%
   @DF-UKS iter   7:  -326.95261943147716    7.80363e-06   5.90568e-06 DIIS/DAMP=1%
   @DF-UKS iter   8:  -326.95262264357643   -3.21210e-06   2.46565e-06 DIIS/DAMP=1%
   @DF-UKS iter   9:  -326.95261845936614    4.18421e-06   9.25323e-07 DIIS/DAMP=1%
   @DF-UKS iter  10:  -326.95261970159663   -1.24223e-06   8.06065e-08 DIIS/DAMP=1%
   @DF-UKS iter  11:  -326.95261943695033    2.64646e-07   1.17982e-08 DIIS/DAMP=1%
   @DF-UKS iter  12:  -326.95261944695460   -1.00043e-08   2.12710e-09 DIIS/DAMP=1%
   @DF-UKS iter  13:  -326.95261944236051    4.59409e-09   2.30252e-10 DIIS/DAMP=1%
  Energy and wave function converged.


  ==> Post-Iterations <==

   Electrons on quadrature grid:
      Nalpha   =   10.0000000544 ; deviation = 5.443e-08
      Nbeta    =    9.0000001858 ; deviation = 1.858e-07
      Ntotal   =   19.0000002402 ; deviation = 2.402e-07 

   @Spin Contamination Metric:   3.455412480E-01
   @S^2 Expected:                7.500000000E-01
   @S^2 Observed:                1.095541248E+00
   @S   Expected:                5.000000000E-01
   @S   Observed:                5.000000000E-01

    Orbital Energies [Eh]
    ---------------------

    Alpha Occupied:                                                       

       1A1   -66.500081     2A1   -10.567287     3A1    -5.650152  
       1B2    -4.010737     4A1    -4.009541     1B1    -4.002325  
       5A1    -1.003726     6A1    -0.656961     2B2    -0.611461  
       2B1    -0.573881  

    Alpha Virtual:                                                        

       7A1    -0.487942     3B2    -0.309861     3B1    -0.288627  
       8A1    -0.150732     9A1     0.018860     4B2     0.046461  
       4B1     0.060490    10A1     0.074762     1A2     0.075212  
      11A1     0.117123    12A1     0.195517     5B2     0.198479  
       5B1     0.217264     6B2     0.256345     6B1     0.278322  
      13A1     0.593805    14A1     0.821642     2A2     0.885621  
      15A1     0.886247     7B2     1.138877     7B1     1.165907  
      16A1     1.391386  

    Beta Occupied:                                                        

       1A1   -66.501469     2A1   -10.546693     3A1    -5.652107  
       4A1    -4.014765     1B2    -4.008006     1B1    -4.005158  
       5A1    -0.956349     6A1    -0.640827     2B1    -0.550905  

    Beta Virtual:                                                         

       2B2    -0.466915     7A1    -0.438994     3B1    -0.293786  
       3B2    -0.275748     8A1    -0.154856     9A1     0.008280  
       4B1     0.056693     4B2     0.058462     1A2     0.076349  
      10A1     0.078340    11A1     0.121214     5B1     0.204549  
       5B2     0.208371    12A1     0.213737     6B1     0.297741  
       6B2     0.312888    13A1     0.639759    14A1     0.840343  
       2A2     0.944713    15A1     0.949736     7B1     1.200541  
       7B2     1.210911    16A1     1.438530  

    Final Occupation by Irrep:
             A1    A2    B1    B2 
    DOCC [     6,    0,    2,    1 ]
    SOCC [     0,    0,    0,    1 ]
    NA   [     6,    0,    2,    2 ]
    NB   [     6,    0,    2,    1 ]

  @DF-UKS Final Energy:  -326.95261944236051

   => Energetics <=

    Nuclear Repulsion Energy =             30.2626608088344220
    One-Electron Energy =                -504.9985001316927082
    Two-Electron Energy =                 168.7411163903256011
    DFT Exchange-Correlation Energy =     -20.9578965098278118
    Empirical Dispersion Energy =           0.0000000000000000
    VV10 Nonlocal Energy =                  0.0000000000000000
    Total Energy =                       -326.9526194423605148

  UHF NO Occupations:
  HONO-2 :    2 B1 1.9916819
  HONO-1 :    6 A1 1.8197605
  HONO-0 :    2 B2 1.0000000
  LUNO+0 :    7 A1 0.1802395
  LUNO+1 :    3 B1 0.0083181
  LUNO+2 :    8 A1 0.0004899
  LUNO+3 :    3 B2 0.0000004


Computation Completed


Properties will be evaluated at   0.000000,   0.000000,   0.000000 [a0]

Properties computed using the SCF density matrix


 Multipole Moments:

 ------------------------------------------------------------------------------------
     Multipole            Electronic (a.u.)      Nuclear  (a.u.)        Total (a.u.)
 ------------------------------------------------------------------------------------

 L = 1.  Multiply by 2.5417464519 to convert [e a0] to [Debye]
 Dipole X            :          0.0000000            0.0000000            0.0000000
 Dipole Y            :          0.0000000            0.0000000            0.0000000
 Dipole Z            :         -0.6599046           -0.0096123           -0.6695168
 Magnitude           :                                                    0.6695168

 ------------------------------------------------------------------------------------

*** tstop() called on Joses-MacBook-Pro-2.local at Thu Jul 17 13:44:32 2025
Module time:
	user time   =       4.31 seconds =       0.07 minutes
	system time =       5.33 seconds =       0.09 minutes
	total time  =          1 seconds =       0.02 minutes
Total time:
	user time   =      14.14 seconds =       0.24 minutes
	system time =      20.77 seconds =       0.35 minutes
	total time  =          3 seconds =       0.05 minutes

*** tstart() called on Joses-MacBook-Pro-2.local
*** at Thu Jul 17 13:44:32 2025


         ------------------------------------------------------------
                                   SCF GRAD                          
                          Rob Parrish, Justin Turney,                
                       Andy Simmonett, and Alex Sokolov              
         ------------------------------------------------------------

  ==> Geometry <==

    Molecular point group: c2v
    Full point group: C_inf_v

    Geometry (in Angstrom), charge = 1, multiplicity = 2:

       Center              X                  Y                   Z               Mass       
    ------------   -----------------  -----------------  -----------------  -----------------
         C            0.000000000000     0.000000000000     1.027930870797    12.000000000000
         SI           0.000000000000     0.000000000000    -0.440905130672    27.976926534650

  Nuclear repulsion =   30.262660808834422

  ==> Basis Set <==

  Basis Set: CC-PVDZ
    Blend: CC-PVDZ
    Number of shells: 14
    Number of basis functions: 32
    Number of Cartesian functions: 34
    Spherical Harmonics?: true
    Max angular momentum: 2

  ==> DFJKGrad: Density-Fitted SCF Gradients <==

    Gradient:                    1
    J tasked:                  Yes
    K tasked:                  Yes
    wK tasked:                  No
    OpenMP threads:              1
    Integrals threads:           1
    Memory [MiB]:              375
    Schwarz Cutoff:          1E-12
    Fitting Condition:       1E-10

   => Auxiliary Basis Set <=

  Basis Set: (CC-PVDZ AUX)
    Blend: CC-PVDZ-JKFIT
    Number of shells: 60
    Number of basis functions: 182
    Number of Cartesian functions: 211
    Spherical Harmonics?: true
    Max angular momentum: 3

  ==> DFT Potential <==

   => LibXC <=

    Version 6.2.2
    S. Lehtola, C. Steigemann, M. J.T. Oliveira, and M. A.L. Marques.,  SoftwareX 7, 1–5 (2018) (10.1016/j.softx.2017.11.002)

   => Composite Functional: B3LYP <= 

    B3LYP Hyb-GGA Exchange-Correlation Functional

    P. J. Stephens, F. J. Devlin, C. F. Chabalowski, and M. J. Frisch.,  J. Phys. Chem. 98, 11623 (1994) (10.1021/j100096a001)

    Deriv               =              1
    GGA                 =           TRUE
    Meta                =          FALSE

    Exchange Hybrid     =           TRUE
    MP2 Hybrid          =          FALSE

   => Exchange Functionals <=

    0.0800   Slater exchange
    0.7200         Becke 88

   => Exact (HF) Exchange <=

    0.2000               HF 

   => Correlation Functionals <=

    0.1900   Vosko, Wilk & Nusair (VWN5_RPA)
    0.8100   Lee, Yang & Parr

   => LibXC Density Thresholds  <==

    XC_HYB_GGA_XC_B3LYP:  1.00E-15 

   => Molecular Quadrature <=

    Radial Scheme          =       TREUTLER
    Pruning Scheme         =           NONE
    Nuclear Scheme         =       TREUTLER

    Blocking Scheme        =         OCTREE
    BS radius alpha        =              1
    Pruning alpha          =              1
    Radial Points          =             75
    Spherical Points       =            302
    Total Points           =          42410
    Total Blocks           =            391
    Max Points             =            256
    Max Functions          =             32
    Weights Tolerance      =       1.00E-15


  -Total Gradient:
     Atom            X                  Y                   Z
    ------   -----------------  -----------------  -----------------
       1       -0.000000000000     0.000000000000    -0.270295362140
       2       -0.000000000000     0.000000000000     0.270285107388


*** tstop() called on Joses-MacBook-Pro-2.local at Thu Jul 17 13:44:32 2025
Module time:
	user time   =       0.92 seconds =       0.02 minutes
	system time =       1.61 seconds =       0.03 minutes
	total time  =          0 seconds =       0.00 minutes
Total time:
	user time   =      15.06 seconds =       0.25 minutes
	system time =      22.38 seconds =       0.37 minutes
	total time  =          3 seconds =       0.05 minutes

    			-----------------------------------------

    			 OPTKING 3.0: for geometry optimizations 

    			     By R.A. King, Bethel University     

    			        with contributions from          

    			    A.V. Copan, J. Cayton, A. Heide      

    			-----------------------------------------

    
	                            ===> Fragment 1 <== 

	 Z (Atomic Numbers)          Masses                          Geom                  
	       6.000000            12.000000          0.00000000  0.00000000  1.94250782   
	      14.000000            27.976927          0.00000000  0.00000000 -0.83318994   

	 - Coordinate -           - BOHR/RAD -       - ANG/DEG -
	 R(1,2)           =         2.775698           1.468836


	        --- Internal Coordinate Step in ANG or DEG, aJ/ANG or AJ/DEG ---
	-------------------------------------------------------------------------------
	           Coordinate      Previous         Force          Change          New 
	           ----------      --------        ------          ------        ------
	               R(1,2)       1.46884        2.22685        0.10775       1.57659
	-------------------------------------------------------------------------------

	                                 ==> Convergence Check <==                                  
    
	Measures of convergence in internal coordinates in au.
    
	Criteria marked as inactive (o), active & met (*), and active & unmet ( ).

	----------------------------------------------------------------------------------------------
	   Step    Total Energy     Delta E     Max Force     RMS Force      Max Disp      RMS Disp   
	----------------------------------------------------------------------------------------------
	  Convergence Criteria     1.00e-06 *    3.00e-04 *             o    1.20e-03 *             o
	----------------------------------------------------------------------------------------------
	     3    -326.95261944   -1.03e-01      2.70e-01      2.70e-01 o    2.04e-01      2.04e-01 o  ~
	----------------------------------------------------------------------------------------------

Next Geometry in Ang 
	Fragment 1 (Ang)

	    C   0.0000000000   0.0000000000   1.0818065185
	   Si   0.0000000000   0.0000000000  -0.4947807784


    Structure for next step:
    Molecular point group: c2v
    Full point group: C_inf_v

    Geometry (in Angstrom), charge = 1, multiplicity = 2:

    C            0.000000000000     0.000000000000     1.103338120386
    SI           0.000000000000     0.000000000000    -0.473249176540


Scratch directory: /tmp/
gradient() will perform analytic gradient computation.
   => Libint2 <=

    Primary   basis highest AM E, G, H:  6, 6, 3
    Auxiliary basis highest AM E, G, H:  7, 7, 4
    Onebody   basis highest AM E, G, H:  -, -, -
    Solid Harmonics ordering:            Gaussian

*** tstart() called on Joses-MacBook-Pro-2.local
*** at Thu Jul 17 13:44:32 2025

   => Loading Basis Set <=

    Name: CC-PVDZ
    Role: ORBITAL
    Keyword: BASIS
    atoms 1 entry C          line   138 file /Users/joseantoniorodriguesromero/anaconda3/share/psi4/basis/cc-pvdz.gbs 
    atoms 2 entry SI         line   478 file /Users/joseantoniorodriguesromero/anaconda3/share/psi4/basis/cc-pvdz.gbs 


         ---------------------------------------------------------
                                   SCF
               by Justin Turney, Rob Parrish, Andy Simmonett
                          and Daniel G. A. Smith
                              UKS Reference
                        1 Threads,    500 MiB Core
         ---------------------------------------------------------

  ==> Geometry <==

    Molecular point group: c2v
    Full point group: C_inf_v

    Geometry (in Angstrom), charge = 1, multiplicity = 2:

       Center              X                  Y                   Z               Mass       
    ------------   -----------------  -----------------  -----------------  -----------------
         C            0.000000000000     0.000000000000     1.103338120386    12.000000000000
         SI           0.000000000000     0.000000000000    -0.473249176540    27.976926534650

  Running in c2v symmetry.

  Rotational constants: A = ************  B =      0.80759  C =      0.80759 [cm^-1]
  Rotational constants: A = ************  B =  24210.80930  C =  24210.80930 [MHz]
  Nuclear repulsion =   28.194370069418714

  Charge       = 1
  Multiplicity = 2
  Electrons    = 19
  Nalpha       = 10
  Nbeta        = 9

  ==> Algorithm <==

  SCF Algorithm Type is DF.
  DIIS enabled.
  MOM disabled.
  Fractional occupation disabled.
  Guess Type is READ.
  Energy threshold   = 1.00e-08
  Density threshold  = 1.00e-08
  Integral threshold = 1.00e-12

  ==> Primary Basis <==

  Basis Set: CC-PVDZ
    Blend: CC-PVDZ
    Number of shells: 14
    Number of basis functions: 32
    Number of Cartesian functions: 34
    Spherical Harmonics?: true
    Max angular momentum: 2

  ==> DFT Potential <==

   => LibXC <=

    Version 6.2.2
    S. Lehtola, C. Steigemann, M. J.T. Oliveira, and M. A.L. Marques.,  SoftwareX 7, 1–5 (2018) (10.1016/j.softx.2017.11.002)

   => Composite Functional: B3LYP <= 

    B3LYP Hyb-GGA Exchange-Correlation Functional

    P. J. Stephens, F. J. Devlin, C. F. Chabalowski, and M. J. Frisch.,  J. Phys. Chem. 98, 11623 (1994) (10.1021/j100096a001)

    Deriv               =              1
    GGA                 =           TRUE
    Meta                =          FALSE

    Exchange Hybrid     =           TRUE
    MP2 Hybrid          =          FALSE

   => Exchange Functionals <=

    0.0800   Slater exchange
    0.7200         Becke 88

   => Exact (HF) Exchange <=

    0.2000               HF 

   => Correlation Functionals <=

    0.1900   Vosko, Wilk & Nusair (VWN5_RPA)
    0.8100   Lee, Yang & Parr

   => LibXC Density Thresholds  <==

    XC_HYB_GGA_XC_B3LYP:  1.00E-15 

   => Molecular Quadrature <=

    Radial Scheme          =       TREUTLER
    Pruning Scheme         =           NONE
    Nuclear Scheme         =       TREUTLER

    Blocking Scheme        =         OCTREE
    BS radius alpha        =              1
    Pruning alpha          =              1
    Radial Points          =             75
    Spherical Points       =            302
    Total Points           =          42428
    Total Blocks           =            392
    Max Points             =            256
    Max Functions          =             32
    Weights Tolerance      =       1.00E-15

   => Loading Basis Set <=

    Name: (CC-PVDZ AUX)
    Role: JKFIT
    Keyword: DF_BASIS_SCF
    atoms 1 entry C          line   121 file /Users/joseantoniorodriguesromero/anaconda3/share/psi4/basis/cc-pvdz-jkfit.gbs 
    atoms 2 entry SI         line   445 file /Users/joseantoniorodriguesromero/anaconda3/share/psi4/basis/cc-pvdz-jkfit.gbs 

   => Loading Basis Set <=

    Name: CC-PVDZ
    Role: ORBITAL
    Keyword: BASIS
    atoms 1 entry C          line   138 file /Users/joseantoniorodriguesromero/anaconda3/share/psi4/basis/cc-pvdz.gbs 
    atoms 2 entry SI         line   478 file /Users/joseantoniorodriguesromero/anaconda3/share/psi4/basis/cc-pvdz.gbs 

  Reading orbitals from file /tmp/doublet_CSi.default.74356.180.npy, no projection.

  ==> Integral Setup <==

  DFHelper Memory: AOs need 0.002 GiB; user supplied 0.327 GiB. 
  Using in-core AOs.

  ==> MemDFJK: Density-Fitted J/K Matrices <==

    J tasked:                   Yes
    K tasked:                   Yes
    wK tasked:                   No
    OpenMP threads:               1
    Memory [MiB]:               335
    Algorithm:                 Core
    Schwarz Cutoff:           1E-12
    Mask sparsity (%):       0.0000
    Fitting Condition:        1E-10

   => Auxiliary Basis Set <=

  Basis Set: (CC-PVDZ AUX)
    Blend: CC-PVDZ-JKFIT
    Number of shells: 60
    Number of basis functions: 182
    Number of Cartesian functions: 211
    Spherical Harmonics?: true
    Max angular momentum: 3

  Cached 100.0% of DFT collocation blocks in 0.039 [GiB].

  Minimum eigenvalue in the overlap matrix is 1.3231188188E-02.
  Reciprocal condition number of the overlap matrix is 4.2469799480E-03.
    Using symmetric orthogonalization.

  ==> Pre-Iterations <==

  SCF Guess: Orbitals guess was supplied from a previous computation.

   -------------------------------------------------------
    Irrep   Nso     Nmo     Nalpha   Nbeta   Ndocc  Nsocc
   -------------------------------------------------------
     A1        16      16       6       6       6       0
     A2         2       2       0       0       0       0
     B1         7       7       2       2       2       0
     B2         7       7       2       1       1       1
   -------------------------------------------------------
    Total      32      32      10       9       9       1
   -------------------------------------------------------

  ==> Iterations <==

                           Total Energy        Delta E     RMS |[F,P]|

   @DF-UKS iter   0:  -326.92668208566499   -3.26927e+02   1.55884e-02 
   @DF-UKS iter   1:  -326.99060950145093   -6.39274e-02   7.92174e-04 ADIIS/DIIS
   @DF-UKS iter   2:  -326.99047100955607    1.38492e-04   1.32107e-03 ADIIS/DIIS/DAMP=1%
   @DF-UKS iter   3:  -326.99079060998037   -3.19600e-04   5.68385e-04 ADIIS/DIIS/DAMP=1%
   @DF-UKS iter   4:  -326.99080779934440   -1.71894e-05   1.82811e-04 ADIIS/DIIS/DAMP=1%
   @DF-UKS iter   5:  -326.99102273851707   -2.14939e-04   6.61517e-05 DIIS/DAMP=1%
   @DF-UKS iter   6:  -326.99100543387635    1.73046e-05   3.15698e-05 DIIS/DAMP=1%
   @DF-UKS iter   7:  -326.99102000815975   -1.45743e-05   1.66893e-05 DIIS/DAMP=1%
   @DF-UKS iter   8:  -326.99101368576248    6.32240e-06   6.99686e-06 DIIS/DAMP=1%
   @DF-UKS iter   9:  -326.99101465432710   -9.68565e-07   7.79444e-07 DIIS/DAMP=1%
   @DF-UKS iter  10:  -326.99101349382056    1.16051e-06   1.23348e-07 DIIS/DAMP=1%
   @DF-UKS iter  11:  -326.99101343102171    6.27988e-08   3.50779e-08 DIIS/DAMP=1%
   @DF-UKS iter  12:  -326.99101337479107    5.62306e-08   2.77377e-09 DIIS/DAMP=1%
   @DF-UKS iter  13:  -326.99101337984439   -5.05332e-09   8.21266e-10 DIIS/DAMP=1%
  Energy and wave function converged.


  ==> Post-Iterations <==

   Electrons on quadrature grid:
      Nalpha   =   10.0000002383 ; deviation = 2.383e-07
      Nbeta    =    9.0000004041 ; deviation = 4.041e-07
      Ntotal   =   19.0000006424 ; deviation = 6.424e-07 

   @Spin Contamination Metric:   2.615346865E-01
   @S^2 Expected:                7.500000000E-01
   @S^2 Observed:                1.011534686E+00
   @S   Expected:                5.000000000E-01
   @S   Observed:                5.000000000E-01

    Orbital Energies [Eh]
    ---------------------

    Alpha Occupied:                                                       

       1A1   -66.512534     2A1   -10.577994     3A1    -5.654294  
       1B2    -4.015671     4A1    -4.013157     1B1    -4.007547  
       5A1    -0.981987     6A1    -0.663477     2B2    -0.592915  
       2B1    -0.557643  

    Alpha Virtual:                                                        

       7A1    -0.490548     3B2    -0.323903     3B1    -0.302310  
       8A1    -0.157859     9A1     0.015303     4B2     0.048386  
       4B1     0.062120    10A1     0.077331     1A2     0.077766  
      11A1     0.112858     5B2     0.172252    12A1     0.181578  
       5B1     0.192592     6B2     0.257382     6B1     0.276533  
      13A1     0.583128    14A1     0.692485     2A2     0.881087  
      15A1     0.881450     7B2     1.100841     7B1     1.127379  
      16A1     1.411588  

    Beta Occupied:                                                        

       1A1   -66.513741     2A1   -10.558315     3A1    -5.656015  
       4A1    -4.017304     1B2    -4.013193     1B1    -4.010429  
       5A1    -0.936343     6A1    -0.647349     2B1    -0.534831  

    Beta Virtual:                                                         

       2B2    -0.453642     7A1    -0.448277     3B1    -0.304509  
       3B2    -0.284265     8A1    -0.161070     9A1     0.007690  
       4B1     0.058333     4B2     0.060643     1A2     0.078426  
      10A1     0.080398    11A1     0.114827     5B1     0.181905  
       5B2     0.187745    12A1     0.203433     6B1     0.294438  
       6B2     0.307965    13A1     0.622260    14A1     0.706789  
       2A2     0.940630    15A1     0.945253     7B1     1.158967  
       7B2     1.169650    16A1     1.455840  

    Final Occupation by Irrep:
             A1    A2    B1    B2 
    DOCC [     6,    0,    2,    1 ]
    SOCC [     0,    0,    0,    1 ]
    NA   [     6,    0,    2,    2 ]
    NB   [     6,    0,    2,    1 ]

  @DF-UKS Final Energy:  -326.99101337984439

   => Energetics <=

    Nuclear Repulsion Energy =             28.1943700694187136
    One-Electron Energy =                -500.9766809035891129
    Two-Electron Energy =                 166.6902788204664603
    DFT Exchange-Correlation Energy =     -20.8989813661404398
    Empirical Dispersion Energy =           0.0000000000000000
    VV10 Nonlocal Energy =                  0.0000000000000000
    Total Energy =                       -326.9910133798443894

  UHF NO Occupations:
  HONO-2 :    2 B1 1.9888502
  HONO-1 :    6 A1 1.8726954
  HONO-0 :    2 B2 1.0000000
  LUNO+0 :    7 A1 0.1273046
  LUNO+1 :    3 B1 0.0111498
  LUNO+2 :    8 A1 0.0004777
  LUNO+3 :    3 B2 0.0000003


Computation Completed


Properties will be evaluated at   0.000000,   0.000000,   0.000000 [a0]

Properties computed using the SCF density matrix


 Multipole Moments:

 ------------------------------------------------------------------------------------
     Multipole            Electronic (a.u.)      Nuclear  (a.u.)        Total (a.u.)
 ------------------------------------------------------------------------------------

 L = 1.  Multiply by 2.5417464519 to convert [e a0] to [Debye]
 Dipole X            :          0.0000000            0.0000000            0.0000000
 Dipole Y            :          0.0000000            0.0000000            0.0000000
 Dipole Z            :         -0.6732806           -0.0103174           -0.6835980
 Magnitude           :                                                    0.6835980

 ------------------------------------------------------------------------------------

*** tstop() called on Joses-MacBook-Pro-2.local at Thu Jul 17 13:44:33 2025
Module time:
	user time   =       3.03 seconds =       0.05 minutes
	system time =       5.92 seconds =       0.10 minutes
	total time  =          1 seconds =       0.02 minutes
Total time:
	user time   =      18.13 seconds =       0.30 minutes
	system time =      28.55 seconds =       0.48 minutes
	total time  =          4 seconds =       0.07 minutes

*** tstart() called on Joses-MacBook-Pro-2.local
*** at Thu Jul 17 13:44:33 2025


         ------------------------------------------------------------
                                   SCF GRAD                          
                          Rob Parrish, Justin Turney,                
                       Andy Simmonett, and Alex Sokolov              
         ------------------------------------------------------------

  ==> Geometry <==

    Molecular point group: c2v
    Full point group: C_inf_v

    Geometry (in Angstrom), charge = 1, multiplicity = 2:

       Center              X                  Y                   Z               Mass       
    ------------   -----------------  -----------------  -----------------  -----------------
         C            0.000000000000     0.000000000000     1.103338120386    12.000000000000
         SI           0.000000000000     0.000000000000    -0.473249176540    27.976926534650

  Nuclear repulsion =   28.194370069418714

  ==> Basis Set <==

  Basis Set: CC-PVDZ
    Blend: CC-PVDZ
    Number of shells: 14
    Number of basis functions: 32
    Number of Cartesian functions: 34
    Spherical Harmonics?: true
    Max angular momentum: 2

  ==> DFJKGrad: Density-Fitted SCF Gradients <==

    Gradient:                    1
    J tasked:                  Yes
    K tasked:                  Yes
    wK tasked:                  No
    OpenMP threads:              1
    Integrals threads:           1
    Memory [MiB]:              375
    Schwarz Cutoff:          1E-12
    Fitting Condition:       1E-10

   => Auxiliary Basis Set <=

  Basis Set: (CC-PVDZ AUX)
    Blend: CC-PVDZ-JKFIT
    Number of shells: 60
    Number of basis functions: 182
    Number of Cartesian functions: 211
    Spherical Harmonics?: true
    Max angular momentum: 3

  ==> DFT Potential <==

   => LibXC <=

    Version 6.2.2
    S. Lehtola, C. Steigemann, M. J.T. Oliveira, and M. A.L. Marques.,  SoftwareX 7, 1–5 (2018) (10.1016/j.softx.2017.11.002)

   => Composite Functional: B3LYP <= 

    B3LYP Hyb-GGA Exchange-Correlation Functional

    P. J. Stephens, F. J. Devlin, C. F. Chabalowski, and M. J. Frisch.,  J. Phys. Chem. 98, 11623 (1994) (10.1021/j100096a001)

    Deriv               =              1
    GGA                 =           TRUE
    Meta                =          FALSE

    Exchange Hybrid     =           TRUE
    MP2 Hybrid          =          FALSE

   => Exchange Functionals <=

    0.0800   Slater exchange
    0.7200         Becke 88

   => Exact (HF) Exchange <=

    0.2000               HF 

   => Correlation Functionals <=

    0.1900   Vosko, Wilk & Nusair (VWN5_RPA)
    0.8100   Lee, Yang & Parr

   => LibXC Density Thresholds  <==

    XC_HYB_GGA_XC_B3LYP:  1.00E-15 

   => Molecular Quadrature <=

    Radial Scheme          =       TREUTLER
    Pruning Scheme         =           NONE
    Nuclear Scheme         =       TREUTLER

    Blocking Scheme        =         OCTREE
    BS radius alpha        =              1
    Pruning alpha          =              1
    Radial Points          =             75
    Spherical Points       =            302
    Total Points           =          42428
    Total Blocks           =            392
    Max Points             =            256
    Max Functions          =             32
    Weights Tolerance      =       1.00E-15


  -Total Gradient:
     Atom            X                  Y                   Z
    ------   -----------------  -----------------  -----------------
       1       -0.000000000000     0.000000000000    -0.119388010476
       2        0.000000000000     0.000000000000     0.119379979749


*** tstop() called on Joses-MacBook-Pro-2.local at Thu Jul 17 13:44:34 2025
Module time:
	user time   =       0.69 seconds =       0.01 minutes
	system time =       1.75 seconds =       0.03 minutes
	total time  =          1 seconds =       0.02 minutes
Total time:
	user time   =      18.82 seconds =       0.31 minutes
	system time =      30.30 seconds =       0.51 minutes
	total time  =          5 seconds =       0.08 minutes

    			-----------------------------------------

    			 OPTKING 3.0: for geometry optimizations 

    			     By R.A. King, Bethel University     

    			        with contributions from          

    			    A.V. Copan, J. Cayton, A. Heide      

    			-----------------------------------------

    
	                            ===> Fragment 1 <== 

	 Z (Atomic Numbers)          Masses                          Geom                  
	       6.000000            12.000000          0.00000000  0.00000000  2.08500687   
	      14.000000            27.976927          0.00000000  0.00000000 -0.89431133   

	 - Coordinate -           - BOHR/RAD -       - ANG/DEG -
	 R(1,2)           =         2.979318           1.576587


	        --- Internal Coordinate Step in ANG or DEG, aJ/ANG or AJ/DEG ---
	-------------------------------------------------------------------------------
	           Coordinate      Previous         Force          Change          New 
	           ----------      --------        ------          ------        ------
	               R(1,2)       1.57659        0.98357        0.06033       1.63691
	-------------------------------------------------------------------------------

	                                 ==> Convergence Check <==                                  
    
	Measures of convergence in internal coordinates in au.
    
	Criteria marked as inactive (o), active & met (*), and active & unmet ( ).

	----------------------------------------------------------------------------------------------
	   Step    Total Energy     Delta E     Max Force     RMS Force      Max Disp      RMS Disp   
	----------------------------------------------------------------------------------------------
	  Convergence Criteria     1.00e-06 *    3.00e-04 *             o    1.20e-03 *             o
	----------------------------------------------------------------------------------------------
	     4    -326.99101338   -3.84e-02      1.19e-01      1.19e-01 o    1.14e-01      1.14e-01 o  ~
	----------------------------------------------------------------------------------------------

Next Geometry in Ang 
	Fragment 1 (Ang)

	    C   0.0000000000   0.0000000000   1.1335014730
	   Si   0.0000000000   0.0000000000  -0.5034125292


    Structure for next step:
    Molecular point group: c2v
    Full point group: C_inf_v

    Geometry (in Angstrom), charge = 1, multiplicity = 2:

    C            0.000000000000     0.000000000000     1.145556368421
    SI           0.000000000000     0.000000000000    -0.491357633728


Scratch directory: /tmp/
gradient() will perform analytic gradient computation.
   => Libint2 <=

    Primary   basis highest AM E, G, H:  6, 6, 3
    Auxiliary basis highest AM E, G, H:  7, 7, 4
    Onebody   basis highest AM E, G, H:  -, -, -
    Solid Harmonics ordering:            Gaussian

*** tstart() called on Joses-MacBook-Pro-2.local
*** at Thu Jul 17 13:44:34 2025

   => Loading Basis Set <=

    Name: CC-PVDZ
    Role: ORBITAL
    Keyword: BASIS
    atoms 1 entry C          line   138 file /Users/joseantoniorodriguesromero/anaconda3/share/psi4/basis/cc-pvdz.gbs 
    atoms 2 entry SI         line   478 file /Users/joseantoniorodriguesromero/anaconda3/share/psi4/basis/cc-pvdz.gbs 


         ---------------------------------------------------------
                                   SCF
               by Justin Turney, Rob Parrish, Andy Simmonett
                          and Daniel G. A. Smith
                              UKS Reference
                        1 Threads,    500 MiB Core
         ---------------------------------------------------------

  ==> Geometry <==

    Molecular point group: c2v
    Full point group: C_inf_v

    Geometry (in Angstrom), charge = 1, multiplicity = 2:

       Center              X                  Y                   Z               Mass       
    ------------   -----------------  -----------------  -----------------  -----------------
         C            0.000000000000     0.000000000000     1.145556368421    12.000000000000
         SI           0.000000000000     0.000000000000    -0.491357633728    27.976926534650

[...]

	----------------------------------------------------------------------------------------------
	   Step    Total Energy     Delta E     Max Force     RMS Force      Max Disp      RMS Disp   
	----------------------------------------------------------------------------------------------
	  Convergence Criteria     1.00e-06 *    3.00e-04 *             o    1.20e-03 *             o
	----------------------------------------------------------------------------------------------
	    10    -327.00682824   -1.10e-05      6.03e-04      6.03e-04 o    2.12e-03      2.12e-03 o  ~
	----------------------------------------------------------------------------------------------

Next Geometry in Ang 
	Fragment 1 (Ang)

	    C   0.0000000000   0.0000000000   1.2168713561
	   Si   0.0000000000   0.0000000000  -0.5222672537


    Structure for next step:
    Molecular point group: c2v
    Full point group: C_inf_v

    Geometry (in Angstrom), charge = 1, multiplicity = 2:

    C            0.000000000000     0.000000000000     1.217095893487
    SI           0.000000000000     0.000000000000    -0.522042716299


Scratch directory: /tmp/
gradient() will perform analytic gradient computation.
   => Libint2 <=

    Primary   basis highest AM E, G, H:  6, 6, 3
    Auxiliary basis highest AM E, G, H:  7, 7, 4
    Onebody   basis highest AM E, G, H:  -, -, -
    Solid Harmonics ordering:            Gaussian

*** tstart() called on Joses-MacBook-Pro-2.local
*** at Thu Jul 17 13:44:40 2025

   => Loading Basis Set <=

    Name: CC-PVDZ
    Role: ORBITAL
    Keyword: BASIS
    atoms 1 entry C          line   138 file /Users/joseantoniorodriguesromero/anaconda3/share/psi4/basis/cc-pvdz.gbs 
    atoms 2 entry SI         line   478 file /Users/joseantoniorodriguesromero/anaconda3/share/psi4/basis/cc-pvdz.gbs 


         ---------------------------------------------------------
                                   SCF
               by Justin Turney, Rob Parrish, Andy Simmonett
                          and Daniel G. A. Smith
                              UKS Reference
                        1 Threads,    500 MiB Core
         ---------------------------------------------------------

  ==> Geometry <==

    Molecular point group: c2v
    Full point group: C_inf_v

    Geometry (in Angstrom), charge = 1, multiplicity = 2:

       Center              X                  Y                   Z               Mass       
    ------------   -----------------  -----------------  -----------------  -----------------
         C            0.000000000000     0.000000000000     1.217095893487    12.000000000000
         SI           0.000000000000     0.000000000000    -0.522042716299    27.976926534650

  Running in c2v symmetry.

  Rotational constants: A = ************  B =      0.66368  C =      0.66368 [cm^-1]
  Rotational constants: A = ************  B =  19896.51252  C =  19896.51252 [MHz]
  Nuclear repulsion =   25.559139131376657

  Charge       = 1
  Multiplicity = 2
  Electrons    = 19
  Nalpha       = 10
  Nbeta        = 9

  ==> Algorithm <==

  SCF Algorithm Type is DF.
  DIIS enabled.
  MOM disabled.
  Fractional occupation disabled.
  Guess Type is READ.
  Energy threshold   = 1.00e-08
  Density threshold  = 1.00e-08
  Integral threshold = 1.00e-12

  ==> Primary Basis <==

  Basis Set: CC-PVDZ
    Blend: CC-PVDZ
    Number of shells: 14
    Number of basis functions: 32
    Number of Cartesian functions: 34
    Spherical Harmonics?: true
    Max angular momentum: 2

  ==> DFT Potential <==

   => LibXC <=

    Version 6.2.2
    S. Lehtola, C. Steigemann, M. J.T. Oliveira, and M. A.L. Marques.,  SoftwareX 7, 1–5 (2018) (10.1016/j.softx.2017.11.002)

   => Composite Functional: B3LYP <= 

    B3LYP Hyb-GGA Exchange-Correlation Functional

    P. J. Stephens, F. J. Devlin, C. F. Chabalowski, and M. J. Frisch.,  J. Phys. Chem. 98, 11623 (1994) (10.1021/j100096a001)

    Deriv               =              1
    GGA                 =           TRUE
    Meta                =          FALSE

    Exchange Hybrid     =           TRUE
    MP2 Hybrid          =          FALSE

   => Exchange Functionals <=

    0.0800   Slater exchange
    0.7200         Becke 88

   => Exact (HF) Exchange <=

    0.2000               HF 

   => Correlation Functionals <=

    0.1900   Vosko, Wilk & Nusair (VWN5_RPA)
    0.8100   Lee, Yang & Parr

   => LibXC Density Thresholds  <==

    XC_HYB_GGA_XC_B3LYP:  1.00E-15 

   => Molecular Quadrature <=

    Radial Scheme          =       TREUTLER
    Pruning Scheme         =           NONE
    Nuclear Scheme         =       TREUTLER

    Blocking Scheme        =         OCTREE
    BS radius alpha        =              1
    Pruning alpha          =              1
    Radial Points          =             75
    Spherical Points       =            302
    Total Points           =          42443
    Total Blocks           =            388
    Max Points             =            255
    Max Functions          =             32
    Weights Tolerance      =       1.00E-15

   => Loading Basis Set <=

    Name: (CC-PVDZ AUX)
    Role: JKFIT
    Keyword: DF_BASIS_SCF
    atoms 1 entry C          line   121 file /Users/joseantoniorodriguesromero/anaconda3/share/psi4/basis/cc-pvdz-jkfit.gbs 
    atoms 2 entry SI         line   445 file /Users/joseantoniorodriguesromero/anaconda3/share/psi4/basis/cc-pvdz-jkfit.gbs 

   => Loading Basis Set <=

    Name: CC-PVDZ
    Role: ORBITAL
    Keyword: BASIS
    atoms 1 entry C          line   138 file /Users/joseantoniorodriguesromero/anaconda3/share/psi4/basis/cc-pvdz.gbs 
    atoms 2 entry SI         line   478 file /Users/joseantoniorodriguesromero/anaconda3/share/psi4/basis/cc-pvdz.gbs 

  Reading orbitals from file /tmp/doublet_CSi.default.74356.180.npy, no projection.

  ==> Integral Setup <==

  DFHelper Memory: AOs need 0.002 GiB; user supplied 0.327 GiB. 
  Using in-core AOs.

  ==> MemDFJK: Density-Fitted J/K Matrices <==

    J tasked:                   Yes
    K tasked:                   Yes
    wK tasked:                   No
    OpenMP threads:               1
    Memory [MiB]:               335
    Algorithm:                 Core
    Schwarz Cutoff:           1E-12
    Mask sparsity (%):       0.0000
    Fitting Condition:        1E-10

   => Auxiliary Basis Set <=

  Basis Set: (CC-PVDZ AUX)
    Blend: CC-PVDZ-JKFIT
    Number of shells: 60
    Number of basis functions: 182
    Number of Cartesian functions: 211
    Spherical Harmonics?: true
    Max angular momentum: 3

  Cached 100.0% of DFT collocation blocks in 0.039 [GiB].

  Minimum eigenvalue in the overlap matrix is 1.6925314043E-02.
  Reciprocal condition number of the overlap matrix is 5.5655658187E-03.
    Using symmetric orthogonalization.

  ==> Pre-Iterations <==

  SCF Guess: Orbitals guess was supplied from a previous computation.

   -------------------------------------------------------
    Irrep   Nso     Nmo     Nalpha   Nbeta   Ndocc  Nsocc
   -------------------------------------------------------
     A1        16      16       6       6       6       0
     A2         2       2       0       0       0       0
     B1         7       7       2       2       2       0
     B2         7       7       2       1       1       1
   -------------------------------------------------------
    Total      32      32      10       9       9       1
   -------------------------------------------------------

  ==> Iterations <==

                           Total Energy        Delta E     RMS |[F,P]|

   @DF-UKS iter   0:  -327.00606688975444   -3.27006e+02   1.00085e-04 
   @DF-UKS iter   1:  -327.00682878706266   -7.61897e-04   2.15398e-05 DIIS
   @DF-UKS iter   2:  -327.00682754878756    1.23828e-06   7.08319e-05 DIIS/DAMP=1%
   @DF-UKS iter   3:  -327.00683264601793   -5.09723e-06   5.85508e-06 DIIS/DAMP=1%
   @DF-UKS iter   4:  -327.00682584562969    6.80039e-06   1.91198e-06 DIIS/DAMP=1%
   @DF-UKS iter   5:  -327.00682897038291   -3.12475e-06   8.02309e-07 DIIS/DAMP=1%
   @DF-UKS iter   6:  -327.00682892732493    4.30580e-08   2.52275e-07 DIIS/DAMP=1%
   @DF-UKS iter   7:  -327.00682896935365   -4.20287e-08   1.69221e-07 DIIS/DAMP=1%
   @DF-UKS iter   8:  -327.00682895785678    1.14969e-08   1.15178e-07 DIIS/DAMP=1%
   @DF-UKS iter   9:  -327.00682897992743   -2.20707e-08   5.56060e-08 DIIS/DAMP=1%
   @DF-UKS iter  10:  -327.00682895260780    2.73196e-08   9.83781e-09 DIIS/DAMP=1%
   @DF-UKS iter  11:  -327.00682895554166   -2.93386e-09   2.20278e-09 DIIS/DAMP=1%
  Energy and wave function converged.


  ==> Post-Iterations <==

   Electrons on quadrature grid:
      Nalpha   =    9.9999996822 ; deviation = -3.178e-07
      Nbeta    =    9.0000000246 ; deviation = 2.459e-08
      Ntotal   =   18.9999997068 ; deviation = -2.932e-07 

   @Spin Contamination Metric:   1.529448752E-01
   @S^2 Expected:                7.500000000E-01
   @S^2 Observed:                9.029448752E-01
   @S   Expected:                5.000000000E-01
   @S   Observed:                5.000000000E-01

    Orbital Energies [Eh]
    ---------------------

    Alpha Occupied:                                                       

       1A1   -66.526695     2A1   -10.590113     3A1    -5.660993  
       1B2    -4.022641     4A1    -4.020087     1B1    -4.014596  
       5A1    -0.948773     6A1    -0.673034     2B2    -0.569408  
       2B1    -0.537244  

    Alpha Virtual:                                                        

       7A1    -0.489792     3B2    -0.343227     3B1    -0.321161  
       8A1    -0.174283     9A1     0.009482     4B2     0.050928  
       4B1     0.064524    10A1     0.079840     1A2     0.080518  
      11A1     0.094440     5B2     0.136888     5B1     0.156983  
      12A1     0.178707     6B2     0.263775     6B1     0.281241  
      13A1     0.516408    14A1     0.603638     2A2     0.877287  
      15A1     0.877568     7B2     1.045414     7B1     1.070620  
      16A1     1.404898  

    Beta Occupied:                                                        

       1A1   -66.527583     2A1   -10.571776     3A1    -5.662230  
       4A1    -4.022702     1B2    -4.020343     1B1    -4.017655  
       5A1    -0.904476     6A1    -0.657351     2B1    -0.513880  

    Beta Virtual:                                                         

       7A1    -0.458230     2B2    -0.436901     3B1    -0.319299  
       3B2    -0.295990     8A1    -0.174331     9A1     0.006299  
       4B1     0.059815     4B2     0.063105     1A2     0.079971  
      10A1     0.081969    11A1     0.096653     5B1     0.149165  
       5B2     0.156703    12A1     0.199063     6B1     0.298811  
       6B2     0.310766    13A1     0.528888    14A1     0.631619  
       2A2     0.938139    15A1     0.942149     7B1     1.097726  
       7B2     1.108600    16A1     1.442647  

    Final Occupation by Irrep:
             A1    A2    B1    B2 
    DOCC [     6,    0,    2,    1 ]
    SOCC [     0,    0,    0,    1 ]
    NA   [     6,    0,    2,    2 ]
    NB   [     6,    0,    2,    1 ]

  @DF-UKS Final Energy:  -327.00682895554166

   => Energetics <=

    Nuclear Repulsion Energy =             25.5591391313766572
    One-Electron Energy =                -495.7868462995625123
    Two-Electron Energy =                 164.0522581536897917
    DFT Exchange-Correlation Energy =     -20.8313799410455402
    Empirical Dispersion Energy =           0.0000000000000000
    VV10 Nonlocal Energy =                  0.0000000000000000
    Total Energy =                       -327.0068289555416072

  UHF NO Occupations:
  HONO-2 :    2 B1 1.9807494
  HONO-1 :    6 A1 1.9413123
  HONO-0 :    2 B2 1.0000000
  LUNO+0 :    7 A1 0.0586877
  LUNO+1 :    3 B1 0.0192506
  LUNO+2 :    8 A1 0.0004412
  LUNO+3 :    9 A1 0.0000002


Computation Completed


Properties will be evaluated at   0.000000,   0.000000,   0.000000 [a0]

Properties computed using the SCF density matrix


 Multipole Moments:

 ------------------------------------------------------------------------------------
     Multipole            Electronic (a.u.)      Nuclear  (a.u.)        Total (a.u.)
 ------------------------------------------------------------------------------------

 L = 1.  Multiply by 2.5417464519 to convert [e a0] to [Debye]
 Dipole X            :          0.0000000            0.0000000            0.0000000
 Dipole Y            :          0.0000000            0.0000000            0.0000000
 Dipole Z            :         -0.6954035           -0.0113812           -0.7067847
 Magnitude           :                                                    0.7067847

 ------------------------------------------------------------------------------------

*** tstop() called on Joses-MacBook-Pro-2.local at Thu Jul 17 13:44:41 2025
Module time:
	user time   =       3.69 seconds =       0.06 minutes
	system time =       4.82 seconds =       0.08 minutes
	total time  =          1 seconds =       0.02 minutes
Total time:
	user time   =      50.56 seconds =       0.84 minutes
	system time =      79.40 seconds =       1.32 minutes
	total time  =         12 seconds =       0.20 minutes

*** tstart() called on Joses-MacBook-Pro-2.local
*** at Thu Jul 17 13:44:41 2025


         ------------------------------------------------------------
                                   SCF GRAD                          
                          Rob Parrish, Justin Turney,                
                       Andy Simmonett, and Alex Sokolov              
         ------------------------------------------------------------

  ==> Geometry <==

    Molecular point group: c2v
    Full point group: C_inf_v

    Geometry (in Angstrom), charge = 1, multiplicity = 2:

       Center              X                  Y                   Z               Mass       
    ------------   -----------------  -----------------  -----------------  -----------------
         C            0.000000000000     0.000000000000     1.217095893487    12.000000000000
         SI           0.000000000000     0.000000000000    -0.522042716299    27.976926534650

  Nuclear repulsion =   25.559139131376657

  ==> Basis Set <==

  Basis Set: CC-PVDZ
    Blend: CC-PVDZ
    Number of shells: 14
    Number of basis functions: 32
    Number of Cartesian functions: 34
    Spherical Harmonics?: true
    Max angular momentum: 2

  ==> DFJKGrad: Density-Fitted SCF Gradients <==

    Gradient:                    1
    J tasked:                  Yes
    K tasked:                  Yes
    wK tasked:                  No
    OpenMP threads:              1
    Integrals threads:           1
    Memory [MiB]:              375
    Schwarz Cutoff:          1E-12
    Fitting Condition:       1E-10

   => Auxiliary Basis Set <=

  Basis Set: (CC-PVDZ AUX)
    Blend: CC-PVDZ-JKFIT
    Number of shells: 60
    Number of basis functions: 182
    Number of Cartesian functions: 211
    Spherical Harmonics?: true
    Max angular momentum: 3

  ==> DFT Potential <==

   => LibXC <=

    Version 6.2.2
    S. Lehtola, C. Steigemann, M. J.T. Oliveira, and M. A.L. Marques.,  SoftwareX 7, 1–5 (2018) (10.1016/j.softx.2017.11.002)

   => Composite Functional: B3LYP <= 

    B3LYP Hyb-GGA Exchange-Correlation Functional

    P. J. Stephens, F. J. Devlin, C. F. Chabalowski, and M. J. Frisch.,  J. Phys. Chem. 98, 11623 (1994) (10.1021/j100096a001)

    Deriv               =              1
    GGA                 =           TRUE
    Meta                =          FALSE

    Exchange Hybrid     =           TRUE
    MP2 Hybrid          =          FALSE

   => Exchange Functionals <=

    0.0800   Slater exchange
    0.7200         Becke 88

   => Exact (HF) Exchange <=

    0.2000               HF 

   => Correlation Functionals <=

    0.1900   Vosko, Wilk & Nusair (VWN5_RPA)
    0.8100   Lee, Yang & Parr

   => LibXC Density Thresholds  <==

    XC_HYB_GGA_XC_B3LYP:  1.00E-15 

   => Molecular Quadrature <=

    Radial Scheme          =       TREUTLER
    Pruning Scheme         =           NONE
    Nuclear Scheme         =       TREUTLER

    Blocking Scheme        =         OCTREE
    BS radius alpha        =              1
    Pruning alpha          =              1
    Radial Points          =             75
    Spherical Points       =            302
    Total Points           =          42443
    Total Blocks           =            388
    Max Points             =            255
    Max Functions          =             32
    Weights Tolerance      =       1.00E-15


  -Total Gradient:
     Atom            X                  Y                   Z
    ------   -----------------  -----------------  -----------------
       1        0.000000000000     0.000000000000    -0.000089608307
       2       -0.000000000000     0.000000000000     0.000074424578


*** tstop() called on Joses-MacBook-Pro-2.local at Thu Jul 17 13:44:41 2025
Module time:
	user time   =       0.70 seconds =       0.01 minutes
	system time =       1.57 seconds =       0.03 minutes
	total time  =          0 seconds =       0.00 minutes
Total time:
	user time   =      51.27 seconds =       0.85 minutes
	system time =      80.97 seconds =       1.35 minutes
	total time  =         12 seconds =       0.20 minutes

    			-----------------------------------------

    			 OPTKING 3.0: for geometry optimizations 

    			     By R.A. King, Bethel University     

    			        with contributions from          

    			    A.V. Copan, J. Cayton, A. Heide      

    			-----------------------------------------

    
	                            ===> Fragment 1 <== 

	 Z (Atomic Numbers)          Masses                          Geom                  
	       6.000000            12.000000          0.00000000  0.00000000  2.29997791   
	      14.000000            27.976927          0.00000000  0.00000000 -0.98651776   

	 - Coordinate -           - BOHR/RAD -       - ANG/DEG -
	 R(1,2)           =         3.286496           1.739139


	        --- Internal Coordinate Step in ANG or DEG, aJ/ANG or AJ/DEG ---
	-------------------------------------------------------------------------------
	           Coordinate      Previous         Force          Change          New 
	           ----------      --------        ------          ------        ------
	               R(1,2)       1.73914        0.00068        0.00016       1.73930
	-------------------------------------------------------------------------------

	                                 ==> Convergence Check <==                                  
    
	Measures of convergence in internal coordinates in au.
    
	Criteria marked as inactive (o), active & met (*), and active & unmet ( ).

	----------------------------------------------------------------------------------------------
	   Step    Total Energy     Delta E     Max Force     RMS Force      Max Disp      RMS Disp   
	----------------------------------------------------------------------------------------------
	  Convergence Criteria     1.00e-06 *    3.00e-04 *             o    1.20e-03 *             o
	----------------------------------------------------------------------------------------------
	    11    -327.00682896   -7.18e-07 *    8.20e-05 *    8.20e-05 o    3.11e-04 *    3.11e-04 o  ~
	----------------------------------------------------------------------------------------------

Next Geometry in Ang 
	Fragment 1 (Ang)

	    C   0.0000000000   0.0000000000   1.2171782021
	   Si   0.0000000000   0.0000000000  -0.5221250249


    Final optimized geometry and variables:
    Molecular point group: c2v
    Full point group: C_inf_v

    Geometry (in Angstrom), charge = 1, multiplicity = 2:

    C            0.000000000000     0.000000000000     1.217095893487
    SI           0.000000000000     0.000000000000    -0.522042716299


    Psi4 stopped on: Thursday, 17 July 2025 01:44PM
    Psi4 wall time for execution: 0:00:13.09

*** Psi4 exiting successfully. Buy a developer a beer!
