
    -----------------------------------------------------------------------
          Psi4: An Open-Source Ab Initio Electronic Structure Package
                               Psi4 1.9.1 release

                         Git: Rev {} zzzzzzz 


    D. G. A. Smith, L. A. Burns, A. C. Simmonett, R. M. Parrish,
    M. C. Schieber, R. Galvelis, P. Kraus, H. Kruse, R. Di Remigio,
    A. Alenaizan, A. M. James, S. Lehtola, J. P. Misiewicz, M. Scheurer,
    R. A. Shaw, J. B. Schriber, Y. Xie, Z. L. Glick, D. A. Sirianni,
    J. S. O'Brien, J. M. Waldrop, A. Kumar, E. G. Hohenstein,
    B. P. Pritchard, B. R. Brooks, H. F. Schaefer III, A. Yu. Sokolov,
    K. Patkowski, A. E. DePrince III, U. Bozkaya, R. A. King,
    F. A. Evangelista, J. M. Turney, T. D. Crawford, C. D. Sherrill,
    J. Chem. Phys. 152(18) 184108 (2020). https://doi.org/10.1063/5.0006002

                            Additional Code Authors
    E. T. Seidl, C. L. Janssen, E. F. Valeev, M. L. Leininger,
    J. F. Gonthier, R. M. Richard, H. R. McAlexander, M. Saitow, X. Wang,
    P. Verma, M. H. Lechner, A. Jiang, S. Behnle, A. G. Heide,
    M. F. Herbst, and D. L. Poole

             Previous Authors, Complete List of Code Contributors,
                       and Citations for Specific Modules
    https://github.com/psi4/psi4/blob/master/codemeta.json
    https://github.com/psi4/psi4/graphs/contributors
    http://psicode.org/psi4manual/master/introduction.html#citing-psifour

    -----------------------------------------------------------------------


    Psi4 started on: Thursday, 17 July 2025 01:59PM

    Process ID: 74529
    Host:       Joses-MacBook-Pro-2.local
    PSIDATADIR: /Users/joseantoniorodriguesromero/anaconda3/share/psi4
    Memory:     500.0 MiB
    Threads:    1
    
  ==> Input File <==

--------------------------------------------------------------------------
molecule { 
1 2
O   0.00000        0.60000        0.00000
O   0.00000       -0.60000        0.00000
}

set { 
basis              cc-pvdz
reference          uks
maxiter            500
geom_maxiter       500
DAMPING_PERCENTAGE 1
guess              SAP
}

optimize('b3lyp')
--------------------------------------------------------------------------

Scratch directory: /tmp/
gradient() will perform analytic gradient computation.
   => Libint2 <=

    Primary   basis highest AM E, G, H:  6, 6, 3
    Auxiliary basis highest AM E, G, H:  7, 7, 4
    Onebody   basis highest AM E, G, H:  -, -, -
    Solid Harmonics ordering:            Gaussian

*** tstart() called on Joses-MacBook-Pro-2.local
*** at Thu Jul 17 13:59:14 2025

   => Loading Basis Set <=

    Name: CC-PVDZ
    Role: ORBITAL
    Keyword: BASIS
    atoms 1-2 entry O          line   198 file /Users/joseantoniorodriguesromero/anaconda3/share/psi4/basis/cc-pvdz.gbs 


         ---------------------------------------------------------
                                   SCF
               by Justin Turney, Rob Parrish, Andy Simmonett
                          and Daniel G. A. Smith
                              UKS Reference
                        1 Threads,    500 MiB Core
         ---------------------------------------------------------

  ==> Geometry <==

    Molecular point group: d2h
    Full point group: D_inf_h

    Geometry (in Angstrom), charge = 1, multiplicity = 2:

       Center              X                  Y                   Z               Mass       
    ------------   -----------------  -----------------  -----------------  -----------------
         O           -0.000000000000     0.600000000000     0.000000000000    15.994914619570
         O            0.000000000000    -0.600000000000     0.000000000000    15.994914619570

  Running in d2h symmetry.

  Rotational constants: A = ************  B =      1.46380  C =      1.46380 [cm^-1]
  Rotational constants: A = ************  B =  43883.65345  C =  43883.65345 [MHz]
  Nuclear repulsion =   28.222784569066672

  Charge       = 1
  Multiplicity = 2
  Electrons    = 15
  Nalpha       = 8
  Nbeta        = 7

  ==> Algorithm <==

  SCF Algorithm Type is DF.
  DIIS enabled.
  MOM disabled.
  Fractional occupation disabled.
  Guess Type is SAP.
  Energy threshold   = 1.00e-08
  Density threshold  = 1.00e-08
  Integral threshold = 1.00e-12

  ==> Primary Basis <==

  Basis Set: CC-PVDZ
    Blend: CC-PVDZ
    Number of shells: 12
    Number of basis functions: 28
    Number of Cartesian functions: 30
    Spherical Harmonics?: true
    Max angular momentum: 2

  ==> DFT Potential <==

   => LibXC <=

    Version 6.2.2
    S. Lehtola, C. Steigemann, M. J.T. Oliveira, and M. A.L. Marques.,  SoftwareX 7, 1–5 (2018) (10.1016/j.softx.2017.11.002)

   => Composite Functional: B3LYP <= 

    B3LYP Hyb-GGA Exchange-Correlation Functional

    P. J. Stephens, F. J. Devlin, C. F. Chabalowski, and M. J. Frisch.,  J. Phys. Chem. 98, 11623 (1994) (10.1021/j100096a001)

    Deriv               =              1
    GGA                 =           TRUE
    Meta                =          FALSE

    Exchange Hybrid     =           TRUE
    MP2 Hybrid          =          FALSE

   => Exchange Functionals <=

    0.0800   Slater exchange
    0.7200         Becke 88

   => Exact (HF) Exchange <=

    0.2000               HF 

   => Correlation Functionals <=

    0.1900   Vosko, Wilk & Nusair (VWN5_RPA)
    0.8100   Lee, Yang & Parr

   => LibXC Density Thresholds  <==

    XC_HYB_GGA_XC_B3LYP:  1.00E-15 

   => Molecular Quadrature <=

    Radial Scheme          =       TREUTLER
    Pruning Scheme         =           NONE
    Nuclear Scheme         =       TREUTLER

    Blocking Scheme        =         OCTREE
    BS radius alpha        =              1
    Pruning alpha          =              1
    Radial Points          =             75
    Spherical Points       =            302
    Total Points           =          41434
    Total Blocks           =            370
    Max Points             =            252
    Max Functions          =             28
    Weights Tolerance      =       1.00E-15

   => Loading Basis Set <=

    Name: (CC-PVDZ AUX)
    Role: JKFIT
    Keyword: DF_BASIS_SCF
    atoms 1-2 entry O          line   221 file /Users/joseantoniorodriguesromero/anaconda3/share/psi4/basis/cc-pvdz-jkfit.gbs 

  ==> Integral Setup <==

  DFHelper Memory: AOs need 0.001 GiB; user supplied 0.333 GiB. 
  Using in-core AOs.

  ==> MemDFJK: Density-Fitted J/K Matrices <==

    J tasked:                   Yes
    K tasked:                   Yes
    wK tasked:                   No
    OpenMP threads:               1
    Memory [MiB]:               340
    Algorithm:                 Core
    Schwarz Cutoff:           1E-12
    Mask sparsity (%):       0.0000
    Fitting Condition:        1E-10

   => Auxiliary Basis Set <=

  Basis Set: (CC-PVDZ AUX)
    Blend: CC-PVDZ-JKFIT
    Number of shells: 48
    Number of basis functions: 140
    Number of Cartesian functions: 162
    Spherical Harmonics?: true
    Max angular momentum: 3

  Cached 100.0% of DFT collocation blocks in 0.033 [GiB].

  Minimum eigenvalue in the overlap matrix is 2.9685108921E-02.
  Reciprocal condition number of the overlap matrix is 1.1564502554E-02.
    Using symmetric orthogonalization.

  ==> Pre-Iterations <==

  SCF Guess: Superposition of Atomic Potentials (doi:10.1021/acs.jctc.8b01089).

  ==> SAP guess <==

   => Molecular Quadrature <=

    Radial Scheme          =       TREUTLER
    Pruning Scheme         =           NONE
    Nuclear Scheme         =       TREUTLER

    Blocking Scheme        =         OCTREE
    BS radius alpha        =              1
    Pruning alpha          =              1
    Radial Points          =             75
    Spherical Points       =            302
    Total Points           =          41434
    Total Blocks           =            370
    Max Points             =            252
    Max Functions          =             28
    Weights Tolerance      =       1.00E-15

   -------------------------------------------------------
    Irrep   Nso     Nmo     Nalpha   Nbeta   Ndocc  Nsocc
   -------------------------------------------------------
     Ag         7       7       3       3       3       0
     B1g        3       3       1       0       0       1
     B2g        1       1       0       0       0       0
     B3g        3       3       0       0       0       0
     Au         1       1       0       0       0       0
     B1u        3       3       1       1       1       0
     B2u        7       7       2       2       2       0
     B3u        3       3       1       1       1       0
   -------------------------------------------------------
    Total      28      28       8       7       7       1
   -------------------------------------------------------

  ==> Iterations <==

                           Total Energy        Delta E     RMS |[F,P]|

   @DF-UKS iter   1:  -149.85329290640055   -1.49853e+02   1.68550e-02 ADIIS/DIIS
   @DF-UKS iter   2:  -149.86212320521119   -8.83030e-03   4.66567e-03 ADIIS/DIIS/DAMP=1%
   @DF-UKS iter   3:  -149.86412677783167   -2.00357e-03   7.68727e-04 ADIIS/DIIS/DAMP=1%
   @DF-UKS iter   4:  -149.86287238470155    1.25439e-03   1.94476e-04 ADIIS/DIIS/DAMP=1%
   @DF-UKS iter   5:  -149.86320540168495   -3.33017e-04   2.98160e-05 DIIS/DAMP=1%
   @DF-UKS iter   6:  -149.86313658242568    6.88193e-05   1.58922e-06 DIIS/DAMP=1%
   @DF-UKS iter   7:  -149.86314218606853   -5.60364e-06   2.52282e-07 DIIS/DAMP=1%
   @DF-UKS iter   8:  -149.86314207488883    1.11180e-07   2.33758e-08 DIIS/DAMP=1%
   @DF-UKS iter   9:  -149.86314211518658   -4.02977e-08   1.26026e-09 DIIS/DAMP=1%
   @DF-UKS iter  10:  -149.86314211350583    1.68075e-09   3.78211e-11 DIIS/DAMP=1%
  Energy and wave function converged.


  ==> Post-Iterations <==

   Electrons on quadrature grid:
      Nalpha   =    8.0000000550 ; deviation = 5.498e-08
      Nbeta    =    7.0000001615 ; deviation = 1.615e-07
      Ntotal   =   15.0000002164 ; deviation = 2.164e-07 

   @Spin Contamination Metric:   2.406496376E-03
   @S^2 Expected:                7.500000000E-01
   @S^2 Observed:                7.524064964E-01
   @S   Expected:                5.000000000E-01
   @S   Observed:                5.000000000E-01

    Orbital Energies [Eh]
    ---------------------

    Alpha Occupied:                                                       

       1Ag   -19.836193     1B2u  -19.836019     2Ag    -1.794655  
       2B2u   -1.280084     1B3u   -1.025018     3Ag    -1.004307  
       1B1u   -0.986260     1B1g   -0.766435  

    Alpha Virtual:                                                        

       1B3g   -0.642672     3B2u   -0.240344     2B3u    0.404664  
       4B2u    0.406240     2B1u    0.415012     4Ag     0.506297  
       2B1g    0.541731     2B3g    0.554179     5Ag     0.637950  
       5B2u    1.275514     3B1u    1.596845     3B3u    1.597275  
       1B2g    1.850456     6Ag     1.852807     1Au     2.158146  
       6B2u    2.160761     7Ag     2.322595     3B1g    2.813485  
       3B3g    2.816097     7B2u    3.311048  

    Beta Occupied:                                                        

       1Ag   -19.820166     1B2u  -19.819914     2Ag    -1.764942  
       2B2u   -1.233307     3Ag    -0.982831     1B1u   -0.971683  
       1B3u   -0.926996  

    Beta Virtual:                                                         

       1B3g   -0.624633     1B1g   -0.576109     3B2u   -0.216357  
       4B2u    0.414481     2B1u    0.422633     2B3u    0.451760  
       4Ag     0.512136     2B3g    0.561865     2B1g    0.588118  
       5Ag     0.653547     5B2u    1.295763     3B1u    1.601724  
       3B3u    1.636441     6Ag     1.893232     1B2g    1.893864  
       6B2u    2.207222     1Au     2.207264     7Ag     2.347406  
       3B3g    2.823476     3B1g    2.861074     7B2u    3.330209  

    Final Occupation by Irrep:
             Ag   B1g   B2g   B3g    Au   B1u   B2u   B3u 
    DOCC [     3,    0,    0,    0,    0,    1,    2,    1 ]
    SOCC [     0,    1,    0,    0,    0,    0,    0,    0 ]
    NA   [     3,    1,    0,    0,    0,    1,    2,    1 ]
    NB   [     3,    0,    0,    0,    0,    1,    2,    1 ]

  @DF-UKS Final Energy:  -149.86314211350583

   => Energetics <=

    Nuclear Repulsion Energy =             28.2227845690666719
    One-Electron Energy =                -254.5194411987320677
    Two-Electron Energy =                  89.7950543140014474
    DFT Exchange-Correlation Energy =     -13.3615397978418784
    Empirical Dispersion Energy =           0.0000000000000000
    VV10 Nonlocal Energy =                  0.0000000000000000
    Total Energy =                       -149.8631421135058304

  UHF NO Occupations:
  HONO-2 :    2B2u 1.9997555
  HONO-1 :    1B3u 1.9991768
  HONO-0 :    1B1g 1.0000000
  LUNO+0 :    2B3u 0.0008232
  LUNO+1 :    3B2u 0.0002445
  LUNO+2 :    4 Ag 0.0001090
  LUNO+3 :    2B1u 0.0000210


Computation Completed


Properties will be evaluated at   0.000000,   0.000000,   0.000000 [a0]

Properties computed using the SCF density matrix


 Multipole Moments:

 ------------------------------------------------------------------------------------
     Multipole            Electronic (a.u.)      Nuclear  (a.u.)        Total (a.u.)
 ------------------------------------------------------------------------------------

 L = 1.  Multiply by 2.5417464519 to convert [e a0] to [Debye]
 Dipole X            :          0.0000000            0.0000000            0.0000000
 Dipole Y            :          0.0000000            0.0000000            0.0000000
 Dipole Z            :          0.0000000            0.0000000            0.0000000
 Magnitude           :                                                    0.0000000

 ------------------------------------------------------------------------------------

*** tstop() called on Joses-MacBook-Pro-2.local at Thu Jul 17 13:59:15 2025
Module time:
	user time   =       2.60 seconds =       0.04 minutes
	system time =       4.89 seconds =       0.08 minutes
	total time  =          1 seconds =       0.02 minutes
Total time:
	user time   =       2.60 seconds =       0.04 minutes
	system time =       4.89 seconds =       0.08 minutes
	total time  =          1 seconds =       0.02 minutes

*** tstart() called on Joses-MacBook-Pro-2.local
*** at Thu Jul 17 13:59:15 2025


         ------------------------------------------------------------
                                   SCF GRAD                          
                          Rob Parrish, Justin Turney,                
                       Andy Simmonett, and Alex Sokolov              
         ------------------------------------------------------------

  ==> Geometry <==

    Molecular point group: d2h
    Full point group: D_inf_h

    Geometry (in Angstrom), charge = 1, multiplicity = 2:

       Center              X                  Y                   Z               Mass       
    ------------   -----------------  -----------------  -----------------  -----------------
         O           -0.000000000000     0.600000000000     0.000000000000    15.994914619570
         O            0.000000000000    -0.600000000000     0.000000000000    15.994914619570

  Nuclear repulsion =   28.222784569066672

  ==> Basis Set <==

  Basis Set: CC-PVDZ
    Blend: CC-PVDZ
    Number of shells: 12
    Number of basis functions: 28
    Number of Cartesian functions: 30
    Spherical Harmonics?: true
    Max angular momentum: 2

  ==> DFJKGrad: Density-Fitted SCF Gradients <==

    Gradient:                    1
    J tasked:                  Yes
    K tasked:                  Yes
    wK tasked:                  No
    OpenMP threads:              1
    Integrals threads:           1
    Memory [MiB]:              375
    Schwarz Cutoff:          1E-12
    Fitting Condition:       1E-10

   => Auxiliary Basis Set <=

  Basis Set: (CC-PVDZ AUX)
    Blend: CC-PVDZ-JKFIT
    Number of shells: 48
    Number of basis functions: 140
    Number of Cartesian functions: 162
    Spherical Harmonics?: true
    Max angular momentum: 3

  ==> DFT Potential <==

   => LibXC <=

    Version 6.2.2
    S. Lehtola, C. Steigemann, M. J.T. Oliveira, and M. A.L. Marques.,  SoftwareX 7, 1–5 (2018) (10.1016/j.softx.2017.11.002)

   => Composite Functional: B3LYP <= 

    B3LYP Hyb-GGA Exchange-Correlation Functional

    P. J. Stephens, F. J. Devlin, C. F. Chabalowski, and M. J. Frisch.,  J. Phys. Chem. 98, 11623 (1994) (10.1021/j100096a001)

    Deriv               =              1
    GGA                 =           TRUE
    Meta                =          FALSE

    Exchange Hybrid     =           TRUE
    MP2 Hybrid          =          FALSE

   => Exchange Functionals <=

    0.0800   Slater exchange
    0.7200         Becke 88

   => Exact (HF) Exchange <=

    0.2000               HF 

   => Correlation Functionals <=

    0.1900   Vosko, Wilk & Nusair (VWN5_RPA)
    0.8100   Lee, Yang & Parr

   => LibXC Density Thresholds  <==

    XC_HYB_GGA_XC_B3LYP:  1.00E-15 

   => Molecular Quadrature <=

    Radial Scheme          =       TREUTLER
    Pruning Scheme         =           NONE
    Nuclear Scheme         =       TREUTLER

    Blocking Scheme        =         OCTREE
    BS radius alpha        =              1
    Pruning alpha          =              1
    Radial Points          =             75
    Spherical Points       =            302
    Total Points           =          41434
    Total Blocks           =            370
    Max Points             =            252
    Max Functions          =             28
    Weights Tolerance      =       1.00E-15


  -Total Gradient:
     Atom            X                  Y                   Z
    ------   -----------------  -----------------  -----------------
       1       -0.000000000000     0.154347884399     0.000000000000
       2        0.000000000000    -0.154347884399     0.000000000000


*** tstop() called on Joses-MacBook-Pro-2.local at Thu Jul 17 13:59:15 2025
Module time:
	user time   =       0.49 seconds =       0.01 minutes
	system time =       1.16 seconds =       0.02 minutes
	total time  =          0 seconds =       0.00 minutes
Total time:
	user time   =       3.11 seconds =       0.05 minutes
	system time =       6.05 seconds =       0.10 minutes
	total time  =          1 seconds =       0.02 minutes

    			-----------------------------------------

    			 OPTKING 3.0: for geometry optimizations 

    			     By R.A. King, Bethel University     

    			        with contributions from          

    			    A.V. Copan, J. Cayton, A. Heide      

    			-----------------------------------------

    
	                            ===> Fragment 1 <== 

	 Z (Atomic Numbers)          Masses                          Geom                  
	       8.000000            15.994915         -0.00000000  1.13383568  0.00000000   
	       8.000000            15.994915          0.00000000 -1.13383568  0.00000000   

	 - Coordinate -           - BOHR/RAD -       - ANG/DEG -
	 R(1,2)           =         2.267671           1.200000


	        --- Internal Coordinate Step in ANG or DEG, aJ/ANG or AJ/DEG ---
	-------------------------------------------------------------------------------
	           Coordinate      Previous         Force          Change          New 
	           ----------      --------        ------          ------        ------
	               R(1,2)       1.20000       -1.27163       -0.07630       1.12370
	-------------------------------------------------------------------------------

	                                 ==> Convergence Check <==                                  
    
	Measures of convergence in internal coordinates in au.
    
	Criteria marked as inactive (o), active & met (*), and active & unmet ( ).

	----------------------------------------------------------------------------------------------
	   Step    Total Energy     Delta E     Max Force     RMS Force      Max Disp      RMS Disp   
	----------------------------------------------------------------------------------------------
	  Convergence Criteria     1.00e-06 *    3.00e-04 *             o    1.20e-03 *             o
	----------------------------------------------------------------------------------------------
	     1    -149.86314211   -1.50e+02      1.54e-01      1.54e-01 o    1.44e-01      1.44e-01 o  ~
	----------------------------------------------------------------------------------------------

Next Geometry in Ang 
	Fragment 1 (Ang)

	    O  -0.0000000000   0.5618503021   0.0000000000
	    O   0.0000000000  -0.5618503021   0.0000000000


    Structure for next step:
    Molecular point group: d2h
    Full point group: D_inf_h

    Geometry (in Angstrom), charge = 1, multiplicity = 2:

    O           -0.000000000000     0.561850302082     0.000000000000
    O            0.000000000000    -0.561850302082     0.000000000000


Scratch directory: /tmp/
gradient() will perform analytic gradient computation.
   => Libint2 <=

    Primary   basis highest AM E, G, H:  6, 6, 3
    Auxiliary basis highest AM E, G, H:  7, 7, 4
    Onebody   basis highest AM E, G, H:  -, -, -
    Solid Harmonics ordering:            Gaussian

*** tstart() called on Joses-MacBook-Pro-2.local
*** at Thu Jul 17 13:59:15 2025

   => Loading Basis Set <=

    Name: CC-PVDZ
    Role: ORBITAL
    Keyword: BASIS
    atoms 1-2 entry O          line   198 file /Users/joseantoniorodriguesromero/anaconda3/share/psi4/basis/cc-pvdz.gbs 


         ---------------------------------------------------------
                                   SCF
               by Justin Turney, Rob Parrish, Andy Simmonett
                          and Daniel G. A. Smith
                              UKS Reference
                        1 Threads,    500 MiB Core
         ---------------------------------------------------------

  ==> Geometry <==

    Molecular point group: d2h
    Full point group: D_inf_h

    Geometry (in Angstrom), charge = 1, multiplicity = 2:

       Center              X                  Y                   Z               Mass       
    ------------   -----------------  -----------------  -----------------  -----------------
         O           -0.000000000000     0.561850302082     0.000000000000    15.994914619570
         O            0.000000000000    -0.561850302082     0.000000000000    15.994914619570

  Running in d2h symmetry.

  Rotational constants: A = ************  B =      1.66933  C =      1.66933 [cm^-1]
  Rotational constants: A = ************  B =  50045.38563  C =  50045.38563 [MHz]
  Nuclear repulsion =   30.139114776081886

  Charge       = 1
  Multiplicity = 2
  Electrons    = 15
  Nalpha       = 8
  Nbeta        = 7

  ==> Algorithm <==

  SCF Algorithm Type is DF.
  DIIS enabled.
  MOM disabled.
  Fractional occupation disabled.
  Guess Type is READ.
  Energy threshold   = 1.00e-08
  Density threshold  = 1.00e-08
  Integral threshold = 1.00e-12

  ==> Primary Basis <==

  Basis Set: CC-PVDZ
    Blend: CC-PVDZ
    Number of shells: 12
    Number of basis functions: 28
    Number of Cartesian functions: 30
    Spherical Harmonics?: true
    Max angular momentum: 2

  ==> DFT Potential <==

   => LibXC <=

    Version 6.2.2
    S. Lehtola, C. Steigemann, M. J.T. Oliveira, and M. A.L. Marques.,  SoftwareX 7, 1–5 (2018) (10.1016/j.softx.2017.11.002)

   => Composite Functional: B3LYP <= 

    B3LYP Hyb-GGA Exchange-Correlation Functional

    P. J. Stephens, F. J. Devlin, C. F. Chabalowski, and M. J. Frisch.,  J. Phys. Chem. 98, 11623 (1994) (10.1021/j100096a001)

    Deriv               =              1
    GGA                 =           TRUE
    Meta                =          FALSE

    Exchange Hybrid     =           TRUE
    MP2 Hybrid          =          FALSE

   => Exchange Functionals <=

    0.0800   Slater exchange
    0.7200         Becke 88

   => Exact (HF) Exchange <=

    0.2000               HF 

   => Correlation Functionals <=

    0.1900   Vosko, Wilk & Nusair (VWN5_RPA)
    0.8100   Lee, Yang & Parr

   => LibXC Density Thresholds  <==

    XC_HYB_GGA_XC_B3LYP:  1.00E-15 

   => Molecular Quadrature <=

    Radial Scheme          =       TREUTLER
    Pruning Scheme         =           NONE
    Nuclear Scheme         =       TREUTLER

    Blocking Scheme        =         OCTREE
    BS radius alpha        =              1
    Pruning alpha          =              1
    Radial Points          =             75
    Spherical Points       =            302
    Total Points           =          41410
    Total Blocks           =            374
    Max Points             =            256
    Max Functions          =             28
    Weights Tolerance      =       1.00E-15

   => Loading Basis Set <=

    Name: (CC-PVDZ AUX)
    Role: JKFIT
    Keyword: DF_BASIS_SCF
    atoms 1-2 entry O          line   221 file /Users/joseantoniorodriguesromero/anaconda3/share/psi4/basis/cc-pvdz-jkfit.gbs 

   => Loading Basis Set <=

    Name: CC-PVDZ
    Role: ORBITAL
    Keyword: BASIS
    atoms 1-2 entry O          line   198 file /Users/joseantoniorodriguesromero/anaconda3/share/psi4/basis/cc-pvdz.gbs 

  Reading orbitals from file /tmp/doublet_OO.default.74529.180.npy, no projection.

  ==> Integral Setup <==

  DFHelper Memory: AOs need 0.001 GiB; user supplied 0.333 GiB. 
  Using in-core AOs.

  ==> MemDFJK: Density-Fitted J/K Matrices <==

    J tasked:                   Yes
    K tasked:                   Yes
    wK tasked:                   No
    OpenMP threads:               1
    Memory [MiB]:               340
    Algorithm:                 Core
    Schwarz Cutoff:           1E-12
    Mask sparsity (%):       0.0000
    Fitting Condition:        1E-10

   => Auxiliary Basis Set <=

  Basis Set: (CC-PVDZ AUX)
    Blend: CC-PVDZ-JKFIT
    Number of shells: 48
    Number of basis functions: 140
    Number of Cartesian functions: 162
    Spherical Harmonics?: true
    Max angular momentum: 3

  Cached 100.0% of DFT collocation blocks in 0.033 [GiB].

  Minimum eigenvalue in the overlap matrix is 2.3877909497E-02.
  Reciprocal condition number of the overlap matrix is 9.0730865718E-03.
    Using symmetric orthogonalization.

  ==> Pre-Iterations <==

  SCF Guess: Orbitals guess was supplied from a previous computation.

   -------------------------------------------------------
    Irrep   Nso     Nmo     Nalpha   Nbeta   Ndocc  Nsocc
   -------------------------------------------------------
     Ag         7       7       3       3       3       0
     B1g        3       3       1       0       0       1
     B2g        1       1       0       0       0       0
     B3g        3       3       0       0       0       0
     Au         1       1       0       0       0       0
     B1u        3       3       1       1       1       0
     B2u        7       7       2       2       2       0
     B3u        3       3       1       1       1       0
   -------------------------------------------------------
    Total      28      28       8       7       7       1
   -------------------------------------------------------

  ==> Iterations <==

                           Total Energy        Delta E     RMS |[F,P]|

   @DF-UKS iter   0:  -150.02349786729732   -1.50023e+02   2.66878e-02 
   @DF-UKS iter   1:  -149.87606921735977    1.47429e-01   5.52720e-03 ADIIS/DIIS
   @DF-UKS iter   2:  -149.87707818477696   -1.00897e-03   2.59923e-03 ADIIS/DIIS/DAMP=1%
   @DF-UKS iter   3:  -149.87811335364506   -1.03517e-03   1.94091e-04 ADIIS/DIIS/DAMP=1%
   @DF-UKS iter   4:  -149.87733304771425    7.80306e-04   1.32917e-05 DIIS/DAMP=1%
   @DF-UKS iter   5:  -149.87739680175162   -6.37540e-05   8.31281e-07 DIIS/DAMP=1%
   @DF-UKS iter   6:  -149.87739215780468    4.64395e-06   7.31500e-08 DIIS/DAMP=1%
   @DF-UKS iter   7:  -149.87739244038070   -2.82576e-07   9.58522e-09 DIIS/DAMP=1%
   @DF-UKS iter   8:  -149.87739242210668    1.82740e-08   6.40811e-10 DIIS/DAMP=1%
   @DF-UKS iter   9:  -149.87739242318750   -1.08082e-09   5.38826e-11 DIIS/DAMP=1%
  Energy and wave function converged.


  ==> Post-Iterations <==

   Electrons on quadrature grid:
      Nalpha   =    8.0000000837 ; deviation = 8.374e-08
      Nbeta    =    7.0000001777 ; deviation = 1.777e-07
      Ntotal   =   15.0000002614 ; deviation = 2.614e-07 

   @Spin Contamination Metric:   2.192620869E-03
   @S^2 Expected:                7.500000000E-01
   @S^2 Observed:                7.521926209E-01
   @S   Expected:                5.000000000E-01
   @S   Observed:                5.000000000E-01

    Orbital Energies [Eh]
    ---------------------

    Alpha Occupied:                                                       

       1Ag   -19.833031     1B2u  -19.832712     2Ag    -1.869348  
       2B2u   -1.258755     1B3u   -1.059855     1B1u   -1.023527  
       3Ag    -1.018701     1B1g   -0.742230  

    Alpha Virtual:                                                        

       1B3g   -0.616979     3B2u   -0.122280     2B3u    0.398501  
       2B1u    0.407274     4B2u    0.411859     4Ag     0.469180  
       2B1g    0.541913     2B3g    0.554993     5Ag     0.622817  
       5B2u    1.330194     3B1u    1.597158     3B3u    1.597899  
       1B2g    1.798214     6Ag     1.800551     1Au     2.197744  
       6B2u    2.200408     7Ag     2.533835     3B1g    2.945005  
       3B3g    2.947200     7B2u    3.305191  

    Beta Occupied:                                                        

       1Ag   -19.816921     1B2u  -19.816503     2Ag    -1.841393  
       2B2u   -1.212219     1B1u   -1.009029     3Ag    -0.995790  
       1B3u   -0.963793  

    Beta Virtual:                                                         

       1B3g   -0.598722     1B1g   -0.549993     3B2u   -0.097939  
       2B1u    0.414627     4B2u    0.420995     2B3u    0.443307  
       4Ag     0.473965     2B3g    0.562890     2B1g    0.589396  
       5Ag     0.639230     5B2u    1.351471     3B1u    1.602080  
       3B3u    1.638144     6Ag     1.840329     1B2g    1.840639  
       6B2u    2.247444     1Au     2.247471     7Ag     2.558975  
       3B3g    2.954680     3B1g    2.992997     7B2u    3.323521  

    Final Occupation by Irrep:
             Ag   B1g   B2g   B3g    Au   B1u   B2u   B3u 
    DOCC [     3,    0,    0,    0,    0,    1,    2,    1 ]
    SOCC [     0,    1,    0,    0,    0,    0,    0,    0 ]
    NA   [     3,    1,    0,    0,    0,    1,    2,    1 ]
    NB   [     3,    0,    0,    0,    0,    1,    2,    1 ]

  @DF-UKS Final Energy:  -149.87739242318750

   => Energetics <=

    Nuclear Repulsion Energy =             30.1391147760818860
    One-Electron Energy =                -258.0939952156637673
    Two-Electron Energy =                  91.5013697850133525
    DFT Exchange-Correlation Energy =     -13.4238817686189584
    Empirical Dispersion Energy =           0.0000000000000000
    VV10 Nonlocal Energy =                  0.0000000000000000
    Total Energy =                       -149.8773924231874730

  UHF NO Occupations:
  HONO-2 :    2B2u 1.9997602
  HONO-1 :    1B3u 1.9992738
  HONO-0 :    1B1g 1.0000000
  LUNO+0 :    2B3u 0.0007262
  LUNO+1 :    3B2u 0.0002398
  LUNO+2 :    4 Ag 0.0001069
  LUNO+3 :    2B1u 0.0000190


Computation Completed


Properties will be evaluated at   0.000000,   0.000000,   0.000000 [a0]

Properties computed using the SCF density matrix


 Multipole Moments:

 ------------------------------------------------------------------------------------
     Multipole            Electronic (a.u.)      Nuclear  (a.u.)        Total (a.u.)
 ------------------------------------------------------------------------------------

 L = 1.  Multiply by 2.5417464519 to convert [e a0] to [Debye]
 Dipole X            :          0.0000000            0.0000000            0.0000000
 Dipole Y            :          0.0000000            0.0000000            0.0000000
 Dipole Z            :          0.0000000            0.0000000            0.0000000
 Magnitude           :                                                    0.0000000

 ------------------------------------------------------------------------------------

*** tstop() called on Joses-MacBook-Pro-2.local at Thu Jul 17 13:59:16 2025
Module time:
	user time   =       2.15 seconds =       0.04 minutes
	system time =       4.50 seconds =       0.07 minutes
	total time  =          1 seconds =       0.02 minutes
Total time:
	user time   =       5.31 seconds =       0.09 minutes
	system time =      10.80 seconds =       0.18 minutes
	total time  =          2 seconds =       0.03 minutes

*** tstart() called on Joses-MacBook-Pro-2.local
*** at Thu Jul 17 13:59:16 2025


         ------------------------------------------------------------
                                   SCF GRAD                          
                          Rob Parrish, Justin Turney,                
                       Andy Simmonett, and Alex Sokolov              
         ------------------------------------------------------------

  ==> Geometry <==

    Molecular point group: d2h
    Full point group: D_inf_h

    Geometry (in Angstrom), charge = 1, multiplicity = 2:

       Center              X                  Y                   Z               Mass       
    ------------   -----------------  -----------------  -----------------  -----------------
         O           -0.000000000000     0.561850302082     0.000000000000    15.994914619570
         O            0.000000000000    -0.561850302082     0.000000000000    15.994914619570

  Nuclear repulsion =   30.139114776081886

  ==> Basis Set <==

  Basis Set: CC-PVDZ
    Blend: CC-PVDZ
    Number of shells: 12
    Number of basis functions: 28
    Number of Cartesian functions: 30
    Spherical Harmonics?: true
    Max angular momentum: 2

  ==> DFJKGrad: Density-Fitted SCF Gradients <==

    Gradient:                    1
    J tasked:                  Yes
    K tasked:                  Yes
    wK tasked:                  No
    OpenMP threads:              1
    Integrals threads:           1
    Memory [MiB]:              375
    Schwarz Cutoff:          1E-12
    Fitting Condition:       1E-10

   => Auxiliary Basis Set <=

  Basis Set: (CC-PVDZ AUX)
    Blend: CC-PVDZ-JKFIT
    Number of shells: 48
    Number of basis functions: 140
    Number of Cartesian functions: 162
    Spherical Harmonics?: true
    Max angular momentum: 3

  ==> DFT Potential <==

   => LibXC <=

    Version 6.2.2
    S. Lehtola, C. Steigemann, M. J.T. Oliveira, and M. A.L. Marques.,  SoftwareX 7, 1–5 (2018) (10.1016/j.softx.2017.11.002)

   => Composite Functional: B3LYP <= 

    B3LYP Hyb-GGA Exchange-Correlation Functional

    P. J. Stephens, F. J. Devlin, C. F. Chabalowski, and M. J. Frisch.,  J. Phys. Chem. 98, 11623 (1994) (10.1021/j100096a001)

    Deriv               =              1
    GGA                 =           TRUE
    Meta                =          FALSE

    Exchange Hybrid     =           TRUE
    MP2 Hybrid          =          FALSE

   => Exchange Functionals <=

    0.0800   Slater exchange
    0.7200         Becke 88

   => Exact (HF) Exchange <=

    0.2000               HF 

   => Correlation Functionals <=

    0.1900   Vosko, Wilk & Nusair (VWN5_RPA)
    0.8100   Lee, Yang & Parr

   => LibXC Density Thresholds  <==

    XC_HYB_GGA_XC_B3LYP:  1.00E-15 

   => Molecular Quadrature <=

    Radial Scheme          =       TREUTLER
    Pruning Scheme         =           NONE
    Nuclear Scheme         =       TREUTLER

    Blocking Scheme        =         OCTREE
    BS radius alpha        =              1
    Pruning alpha          =              1
    Radial Points          =             75
    Spherical Points       =            302
    Total Points           =          41410
    Total Blocks           =            374
    Max Points             =            256
    Max Functions          =             28
    Weights Tolerance      =       1.00E-15


  -Total Gradient:
     Atom            X                  Y                   Z
    ------   -----------------  -----------------  -----------------
       1       -0.000000000000     0.029683368867    -0.000000000000
       2        0.000000000000    -0.029683368867     0.000000000000


*** tstop() called on Joses-MacBook-Pro-2.local at Thu Jul 17 13:59:16 2025
Module time:
	user time   =       0.41 seconds =       0.01 minutes
	system time =       1.18 seconds =       0.02 minutes
	total time  =          0 seconds =       0.00 minutes
Total time:
	user time   =       5.72 seconds =       0.10 minutes
	system time =      11.98 seconds =       0.20 minutes
	total time  =          2 seconds =       0.03 minutes

    			-----------------------------------------

    			 OPTKING 3.0: for geometry optimizations 

    			     By R.A. King, Bethel University     

    			        with contributions from          

    			    A.V. Copan, J. Cayton, A. Heide      

    			-----------------------------------------

    
	                            ===> Fragment 1 <== 

	 Z (Atomic Numbers)          Masses                          Geom                  
	       8.000000            15.994915         -0.00000000  1.06174319  0.00000000   
	       8.000000            15.994915          0.00000000 -1.06174319  0.00000000   

	 - Coordinate -           - BOHR/RAD -       - ANG/DEG -
	 R(1,2)           =         2.123486           1.123701


	        --- Internal Coordinate Step in ANG or DEG, aJ/ANG or AJ/DEG ---
	-------------------------------------------------------------------------------
	           Coordinate      Previous         Force          Change          New 
	           ----------      --------        ------          ------        ------
	               R(1,2)       1.12370       -0.24455       -0.01815       1.10555
	-------------------------------------------------------------------------------

	                                 ==> Convergence Check <==                                  
    
	Measures of convergence in internal coordinates in au.
    
	Criteria marked as inactive (o), active & met (*), and active & unmet ( ).

	----------------------------------------------------------------------------------------------
	   Step    Total Energy     Delta E     Max Force     RMS Force      Max Disp      RMS Disp   
	----------------------------------------------------------------------------------------------
	  Convergence Criteria     1.00e-06 *    3.00e-04 *             o    1.20e-03 *             o
	----------------------------------------------------------------------------------------------
	     2    -149.87739242   -1.43e-02      2.97e-02      2.97e-02 o    3.43e-02      3.43e-02 o  ~
	----------------------------------------------------------------------------------------------

Next Geometry in Ang 
	Fragment 1 (Ang)

	    O  -0.0000000000   0.5527773114   0.0000000000
	    O   0.0000000000  -0.5527773114   0.0000000000


    Structure for next step:
    Molecular point group: d2h
    Full point group: D_inf_h

    Geometry (in Angstrom), charge = 1, multiplicity = 2:

    O           -0.000000000000     0.552777311393     0.000000000000
    O            0.000000000000    -0.552777311393     0.000000000000


Scratch directory: /tmp/
gradient() will perform analytic gradient computation.
   => Libint2 <=

    Primary   basis highest AM E, G, H:  6, 6, 3
    Auxiliary basis highest AM E, G, H:  7, 7, 4
    Onebody   basis highest AM E, G, H:  -, -, -
    Solid Harmonics ordering:            Gaussian

*** tstart() called on Joses-MacBook-Pro-2.local
*** at Thu Jul 17 13:59:16 2025

   => Loading Basis Set <=

    Name: CC-PVDZ
    Role: ORBITAL
    Keyword: BASIS
    atoms 1-2 entry O          line   198 file /Users/joseantoniorodriguesromero/anaconda3/share/psi4/basis/cc-pvdz.gbs 


         ---------------------------------------------------------
                                   SCF
               by Justin Turney, Rob Parrish, Andy Simmonett
                          and Daniel G. A. Smith
                              UKS Reference
                        1 Threads,    500 MiB Core
         ---------------------------------------------------------

  ==> Geometry <==

    Molecular point group: d2h
    Full point group: D_inf_h

    Geometry (in Angstrom), charge = 1, multiplicity = 2:

       Center              X                  Y                   Z               Mass       
    ------------   -----------------  -----------------  -----------------  -----------------
         O           -0.000000000000     0.552777311393     0.000000000000    15.994914619570
         O            0.000000000000    -0.552777311393     0.000000000000    15.994914619570

  Running in d2h symmetry.

  Rotational constants: A = ************  B =      1.72458  C =      1.72458 [cm^-1]
  Rotational constants: A = ************  B =  51701.70425  C =  51701.70425 [MHz]
  Nuclear repulsion =   30.633802061739491

  Charge       = 1
  Multiplicity = 2
  Electrons    = 15
  Nalpha       = 8
  Nbeta        = 7

  ==> Algorithm <==

  SCF Algorithm Type is DF.
  DIIS enabled.
  MOM disabled.
  Fractional occupation disabled.
  Guess Type is READ.
  Energy threshold   = 1.00e-08
  Density threshold  = 1.00e-08
  Integral threshold = 1.00e-12

  ==> Primary Basis <==

  Basis Set: CC-PVDZ
    Blend: CC-PVDZ
    Number of shells: 12
    Number of basis functions: 28
    Number of Cartesian functions: 30
    Spherical Harmonics?: true
    Max angular momentum: 2

  ==> DFT Potential <==

   => LibXC <=

    Version 6.2.2
    S. Lehtola, C. Steigemann, M. J.T. Oliveira, and M. A.L. Marques.,  SoftwareX 7, 1–5 (2018) (10.1016/j.softx.2017.11.002)

   => Composite Functional: B3LYP <= 

    B3LYP Hyb-GGA Exchange-Correlation Functional

    P. J. Stephens, F. J. Devlin, C. F. Chabalowski, and M. J. Frisch.,  J. Phys. Chem. 98, 11623 (1994) (10.1021/j100096a001)

    Deriv               =              1
    GGA                 =           TRUE
    Meta                =          FALSE

    Exchange Hybrid     =           TRUE
    MP2 Hybrid          =          FALSE

   => Exchange Functionals <=

    0.0800   Slater exchange
    0.7200         Becke 88

   => Exact (HF) Exchange <=

    0.2000               HF 

   => Correlation Functionals <=

    0.1900   Vosko, Wilk & Nusair (VWN5_RPA)
    0.8100   Lee, Yang & Parr

   => LibXC Density Thresholds  <==

    XC_HYB_GGA_XC_B3LYP:  1.00E-15 

   => Molecular Quadrature <=

    Radial Scheme          =       TREUTLER
    Pruning Scheme         =           NONE
    Nuclear Scheme         =       TREUTLER

    Blocking Scheme        =         OCTREE
    BS radius alpha        =              1
    Pruning alpha          =              1
    Radial Points          =             75
    Spherical Points       =            302
    Total Points           =          41408
    Total Blocks           =            372
    Max Points             =            251
    Max Functions          =             28
    Weights Tolerance      =       1.00E-15

   => Loading Basis Set <=

    Name: (CC-PVDZ AUX)
    Role: JKFIT
    Keyword: DF_BASIS_SCF
    atoms 1-2 entry O          line   221 file /Users/joseantoniorodriguesromero/anaconda3/share/psi4/basis/cc-pvdz-jkfit.gbs 

   => Loading Basis Set <=

    Name: CC-PVDZ
    Role: ORBITAL
    Keyword: BASIS
    atoms 1-2 entry O          line   198 file /Users/joseantoniorodriguesromero/anaconda3/share/psi4/basis/cc-pvdz.gbs 

  Reading orbitals from file /tmp/doublet_OO.default.74529.180.npy, no projection.

  ==> Integral Setup <==

  DFHelper Memory: AOs need 0.001 GiB; user supplied 0.333 GiB. 
  Using in-core AOs.

  ==> MemDFJK: Density-Fitted J/K Matrices <==

    J tasked:                   Yes
    K tasked:                   Yes
    wK tasked:                   No
    OpenMP threads:               1
    Memory [MiB]:               340
    Algorithm:                 Core
    Schwarz Cutoff:           1E-12
    Mask sparsity (%):       0.0000
    Fitting Condition:        1E-10

   => Auxiliary Basis Set <=

  Basis Set: (CC-PVDZ AUX)
    Blend: CC-PVDZ-JKFIT
    Number of shells: 48
    Number of basis functions: 140
    Number of Cartesian functions: 162
    Spherical Harmonics?: true
    Max angular momentum: 3

  Cached 100.0% of DFT collocation blocks in 0.033 [GiB].

  Minimum eigenvalue in the overlap matrix is 2.2655131301E-02.
  Reciprocal condition number of the overlap matrix is 8.5555699949E-03.
    Using symmetric orthogonalization.

  ==> Pre-Iterations <==

  SCF Guess: Orbitals guess was supplied from a previous computation.

   -------------------------------------------------------
    Irrep   Nso     Nmo     Nalpha   Nbeta   Ndocc  Nsocc
   -------------------------------------------------------
     Ag         7       7       3       3       3       0
     B1g        3       3       1       0       0       1
     B2g        1       1       0       0       0       0
     B3g        3       3       0       0       0       0
     Au         1       1       0       0       0       0
     B1u        3       3       1       1       1       0
     B2u        7       7       2       2       2       0
     B3u        3       3       1       1       1       0
   -------------------------------------------------------
    Total      28      28       8       7       7       1
   -------------------------------------------------------

  ==> Iterations <==

                           Total Energy        Delta E     RMS |[F,P]|

   @DF-UKS iter   0:  -149.91521988601772   -1.49915e+02   7.09605e-03 
   @DF-UKS iter   1:  -149.87760126154302    3.76186e-02   1.38968e-03 ADIIS/DIIS
   @DF-UKS iter   2:  -149.87766481658608   -6.35550e-05   6.56848e-04 ADIIS/DIIS/DAMP=1%
   @DF-UKS iter   3:  -149.87787196425302   -2.07148e-04   5.06881e-05 DIIS/DAMP=1%
   @DF-UKS iter   4:  -149.87766900666986    2.02958e-04   3.27514e-06 DIIS/DAMP=1%
   @DF-UKS iter   5:  -149.87768592155288   -1.69149e-05   2.25387e-07 DIIS/DAMP=1%
   @DF-UKS iter   6:  -149.87768476185369    1.15970e-06   1.54486e-08 DIIS/DAMP=1%
   @DF-UKS iter   7:  -149.87768483881885   -7.69652e-08   2.04531e-09 DIIS/DAMP=1%
   @DF-UKS iter   8:  -149.87768483487017    3.94868e-09   1.45808e-10 DIIS/DAMP=1%
  Energy and wave function converged.


  ==> Post-Iterations <==

   Electrons on quadrature grid:
      Nalpha   =    8.0000000509 ; deviation = 5.088e-08
      Nbeta    =    7.0000001468 ; deviation = 1.468e-07
      Ntotal   =   15.0000001977 ; deviation = 1.977e-07 

   @Spin Contamination Metric:   2.136025902E-03
   @S^2 Expected:                7.500000000E-01
   @S^2 Observed:                7.521360259E-01
   @S   Expected:                5.000000000E-01
   @S   Observed:                5.000000000E-01

    Orbital Energies [Eh]
    ---------------------

    Alpha Occupied:                                                       

       1Ag   -19.832091     1B2u  -19.831713     2Ag    -1.888458  
       2B2u   -1.253528     1B3u   -1.068963     1B1u   -1.033249  
       3Ag    -1.022140     1B1g   -0.735462  

    Alpha Virtual:                                                        

       1B3g   -0.609892     3B2u   -0.091761     2B3u    0.396123  
       2B1u    0.404454     4B2u    0.415965     4Ag     0.459916  
       2B1g    0.542272     2B3g    0.555535     5Ag     0.620162  
       5B2u    1.344833     3B1u    1.601784     3B3u    1.602538  
       1B2g    1.784996     6Ag     1.787326     1Au     2.208519  
       6B2u    2.211194     7Ag     2.584581     3B1g    2.976710  
       3B3g    2.978823     7B2u    3.306697  

    Beta Occupied:                                                        

       1Ag   -19.815969     1B2u  -19.815486     2Ag    -1.860947  
       2B2u   -1.207058     1B1u   -1.018777     3Ag    -0.998863  
       1B3u   -0.973401  

    Beta Virtual:                                                         

       1B3g   -0.591593     1B1g   -0.542836     3B2u   -0.067542  
       2B1u    0.411724     4B2u    0.425514     2B3u    0.440276  
       4Ag     0.464524     2B3g    0.563492     2B1g    0.590070  
       5Ag     0.636734     5B2u    1.366399     3B1u    1.606746  
       3B3u    1.643170     6Ag     1.826877     1B2g    1.827140  
       6B2u    2.258371     1Au     2.258392     7Ag     2.609792  
       3B3g    2.986327     3B1g    3.024803     7B2u    3.324817  

    Final Occupation by Irrep:
             Ag   B1g   B2g   B3g    Au   B1u   B2u   B3u 
    DOCC [     3,    0,    0,    0,    0,    1,    2,    1 ]
    SOCC [     0,    1,    0,    0,    0,    0,    0,    0 ]
    NA   [     3,    1,    0,    0,    0,    1,    2,    1 ]
    NB   [     3,    0,    0,    0,    0,    1,    2,    1 ]

  @DF-UKS Final Energy:  -149.87768483487017

   => Energetics <=

    Nuclear Repulsion Energy =             30.6338020617394911
    One-Electron Energy =                -259.0104177919137101
    Two-Electron Energy =                  91.9396006057225179
    DFT Exchange-Correlation Energy =     -13.4406697104184509
    Empirical Dispersion Energy =           0.0000000000000000
    VV10 Nonlocal Energy =                  0.0000000000000000
    Total Energy =                       -149.8776848348701662

  UHF NO Occupations:
  HONO-2 :    2B2u 1.9997625
  HONO-1 :    1B3u 1.9992985
  HONO-0 :    1B1g 1.0000000
  LUNO+0 :    2B3u 0.0007015
  LUNO+1 :    3B2u 0.0002375
  LUNO+2 :    4 Ag 0.0001064
  LUNO+3 :    2B1u 0.0000184


Computation Completed


Properties will be evaluated at   0.000000,   0.000000,   0.000000 [a0]

Properties computed using the SCF density matrix


 Multipole Moments:

 ------------------------------------------------------------------------------------
     Multipole            Electronic (a.u.)      Nuclear  (a.u.)        Total (a.u.)
 ------------------------------------------------------------------------------------

 L = 1.  Multiply by 2.5417464519 to convert [e a0] to [Debye]
 Dipole X            :          0.0000000            0.0000000            0.0000000
 Dipole Y            :          0.0000000            0.0000000            0.0000000
 Dipole Z            :          0.0000000            0.0000000            0.0000000
 Magnitude           :                                                    0.0000000

 ------------------------------------------------------------------------------------

*** tstop() called on Joses-MacBook-Pro-2.local at Thu Jul 17 13:59:16 2025
Module time:
	user time   =       1.79 seconds =       0.03 minutes
	system time =       4.57 seconds =       0.08 minutes
	total time  =          0 seconds =       0.00 minutes
Total time:
	user time   =       7.55 seconds =       0.13 minutes
	system time =      16.80 seconds =       0.28 minutes
	total time  =          2 seconds =       0.03 minutes

*** tstart() called on Joses-MacBook-Pro-2.local
*** at Thu Jul 17 13:59:16 2025


         ------------------------------------------------------------
                                   SCF GRAD                          
                          Rob Parrish, Justin Turney,                
                       Andy Simmonett, and Alex Sokolov              
         ------------------------------------------------------------

  ==> Geometry <==

    Molecular point group: d2h
    Full point group: D_inf_h

    Geometry (in Angstrom), charge = 1, multiplicity = 2:

       Center              X                  Y                   Z               Mass       
    ------------   -----------------  -----------------  -----------------  -----------------
         O           -0.000000000000     0.552777311393     0.000000000000    15.994914619570
         O            0.000000000000    -0.552777311393     0.000000000000    15.994914619570

  Nuclear repulsion =   30.633802061739491

  ==> Basis Set <==

  Basis Set: CC-PVDZ
    Blend: CC-PVDZ
    Number of shells: 12
    Number of basis functions: 28
    Number of Cartesian functions: 30
    Spherical Harmonics?: true
    Max angular momentum: 2

  ==> DFJKGrad: Density-Fitted SCF Gradients <==

    Gradient:                    1
    J tasked:                  Yes
    K tasked:                  Yes
    wK tasked:                  No
    OpenMP threads:              1
    Integrals threads:           1
    Memory [MiB]:              375
    Schwarz Cutoff:          1E-12
    Fitting Condition:       1E-10

   => Auxiliary Basis Set <=

  Basis Set: (CC-PVDZ AUX)
    Blend: CC-PVDZ-JKFIT
    Number of shells: 48
    Number of basis functions: 140
    Number of Cartesian functions: 162
    Spherical Harmonics?: true
    Max angular momentum: 3

  ==> DFT Potential <==

   => LibXC <=

    Version 6.2.2
    S. Lehtola, C. Steigemann, M. J.T. Oliveira, and M. A.L. Marques.,  SoftwareX 7, 1–5 (2018) (10.1016/j.softx.2017.11.002)

   => Composite Functional: B3LYP <= 

    B3LYP Hyb-GGA Exchange-Correlation Functional

    P. J. Stephens, F. J. Devlin, C. F. Chabalowski, and M. J. Frisch.,  J. Phys. Chem. 98, 11623 (1994) (10.1021/j100096a001)

    Deriv               =              1
    GGA                 =           TRUE
    Meta                =          FALSE

    Exchange Hybrid     =           TRUE
    MP2 Hybrid          =          FALSE

   => Exchange Functionals <=

    0.0800   Slater exchange
    0.7200         Becke 88

   => Exact (HF) Exchange <=

    0.2000               HF 

   => Correlation Functionals <=

    0.1900   Vosko, Wilk & Nusair (VWN5_RPA)
    0.8100   Lee, Yang & Parr

   => LibXC Density Thresholds  <==

    XC_HYB_GGA_XC_B3LYP:  1.00E-15 

   => Molecular Quadrature <=

    Radial Scheme          =       TREUTLER
    Pruning Scheme         =           NONE
    Nuclear Scheme         =       TREUTLER

    Blocking Scheme        =         OCTREE
    BS radius alpha        =              1
    Pruning alpha          =              1
    Radial Points          =             75
    Spherical Points       =            302
    Total Points           =          41408
    Total Blocks           =            372
    Max Points             =            251
    Max Functions          =             28
    Weights Tolerance      =       1.00E-15


  -Total Gradient:
     Atom            X                  Y                   Z
    ------   -----------------  -----------------  -----------------
       1        0.000000000000    -0.013700022659     0.000000000000
       2       -0.000000000000     0.013700022659     0.000000000000


*** tstop() called on Joses-MacBook-Pro-2.local at Thu Jul 17 13:59:16 2025
Module time:
	user time   =       0.37 seconds =       0.01 minutes
	system time =       1.18 seconds =       0.02 minutes
	total time  =          0 seconds =       0.00 minutes
Total time:
	user time   =       7.93 seconds =       0.13 minutes
	system time =      17.99 seconds =       0.30 minutes
	total time  =          2 seconds =       0.03 minutes

    			-----------------------------------------

    			 OPTKING 3.0: for geometry optimizations 

    			     By R.A. King, Bethel University     

    			        with contributions from          

    			    A.V. Copan, J. Cayton, A. Heide      

    			-----------------------------------------

    
	                            ===> Fragment 1 <== 

	 Z (Atomic Numbers)          Masses                          Geom                  
	       8.000000            15.994915         -0.00000000  1.04459773  0.00000000   
	       8.000000            15.994915          0.00000000 -1.04459773  0.00000000   

	 - Coordinate -           - BOHR/RAD -       - ANG/DEG -
	 R(1,2)           =         2.089195           1.105555


	        --- Internal Coordinate Step in ANG or DEG, aJ/ANG or AJ/DEG ---
	-------------------------------------------------------------------------------
	           Coordinate      Previous         Force          Change          New 
	           ----------      --------        ------          ------        ------
	               R(1,2)       1.10555        0.11287        0.00770       1.11325
	-------------------------------------------------------------------------------

	                                 ==> Convergence Check <==                                  
    
	Measures of convergence in internal coordinates in au.
    
	Criteria marked as inactive (o), active & met (*), and active & unmet ( ).

	----------------------------------------------------------------------------------------------
	   Step    Total Energy     Delta E     Max Force     RMS Force      Max Disp      RMS Disp   
	----------------------------------------------------------------------------------------------
	  Convergence Criteria     1.00e-06 *    3.00e-04 *             o    1.20e-03 *             o
	----------------------------------------------------------------------------------------------
	     3    -149.87768483   -2.92e-04      1.37e-02      1.37e-02 o    1.45e-02      1.45e-02 o  ~
	----------------------------------------------------------------------------------------------

Next Geometry in Ang 
	Fragment 1 (Ang)

	    O  -0.0000000000   0.5566263031   0.0000000000
	    O   0.0000000000  -0.5566263031   0.0000000000


    Structure for next step:
    Molecular point group: d2h
    Full point group: D_inf_h

    Geometry (in Angstrom), charge = 1, multiplicity = 2:

    O           -0.000000000000     0.556626303082     0.000000000000
    O            0.000000000000    -0.556626303082     0.000000000000


Scratch directory: /tmp/
gradient() will perform analytic gradient computation.
   => Libint2 <=

    Primary   basis highest AM E, G, H:  6, 6, 3
    Auxiliary basis highest AM E, G, H:  7, 7, 4
    Onebody   basis highest AM E, G, H:  -, -, -
    Solid Harmonics ordering:            Gaussian

*** tstart() called on Joses-MacBook-Pro-2.local
*** at Thu Jul 17 13:59:17 2025

   => Loading Basis Set <=

    Name: CC-PVDZ
    Role: ORBITAL
    Keyword: BASIS
    atoms 1-2 entry O          line   198 file /Users/joseantoniorodriguesromero/anaconda3/share/psi4/basis/cc-pvdz.gbs 


         ---------------------------------------------------------
                                   SCF
               by Justin Turney, Rob Parrish, Andy Simmonett
                          and Daniel G. A. Smith
                              UKS Reference
                        1 Threads,    500 MiB Core
         ---------------------------------------------------------

  ==> Geometry <==

    Molecular point group: d2h
    Full point group: D_inf_h

    Geometry (in Angstrom), charge = 1, multiplicity = 2:

       Center              X                  Y                   Z               Mass       
    ------------   -----------------  -----------------  -----------------  -----------------
         O           -0.000000000000     0.556626303082     0.000000000000    15.994914619570
         O            0.000000000000    -0.556626303082     0.000000000000    15.994914619570

  Running in d2h symmetry.

  Rotational constants: A = ************  B =      1.70082  C =      1.70082 [cm^-1]
  Rotational constants: A = ************  B =  50989.15652  C =  50989.15652 [MHz]
  Nuclear repulsion =   30.421973679079763

  Charge       = 1
  Multiplicity = 2
  Electrons    = 15
  Nalpha       = 8
  Nbeta        = 7

  ==> Algorithm <==

  SCF Algorithm Type is DF.
  DIIS enabled.
  MOM disabled.
  Fractional occupation disabled.
  Guess Type is READ.
  Energy threshold   = 1.00e-08
  Density threshold  = 1.00e-08
  Integral threshold = 1.00e-12

  ==> Primary Basis <==

  Basis Set: CC-PVDZ
    Blend: CC-PVDZ
    Number of shells: 12
    Number of basis functions: 28
    Number of Cartesian functions: 30
    Spherical Harmonics?: true
    Max angular momentum: 2

  ==> DFT Potential <==

   => LibXC <=

    Version 6.2.2
    S. Lehtola, C. Steigemann, M. J.T. Oliveira, and M. A.L. Marques.,  SoftwareX 7, 1–5 (2018) (10.1016/j.softx.2017.11.002)

   => Composite Functional: B3LYP <= 

    B3LYP Hyb-GGA Exchange-Correlation Functional

    P. J. Stephens, F. J. Devlin, C. F. Chabalowski, and M. J. Frisch.,  J. Phys. Chem. 98, 11623 (1994) (10.1021/j100096a001)

    Deriv               =              1
    GGA                 =           TRUE
    Meta                =          FALSE

    Exchange Hybrid     =           TRUE
    MP2 Hybrid          =          FALSE

   => Exchange Functionals <=

    0.0800   Slater exchange
    0.7200         Becke 88

   => Exact (HF) Exchange <=

    0.2000               HF 

   => Correlation Functionals <=

    0.1900   Vosko, Wilk & Nusair (VWN5_RPA)
    0.8100   Lee, Yang & Parr

   => LibXC Density Thresholds  <==

    XC_HYB_GGA_XC_B3LYP:  1.00E-15 

   => Molecular Quadrature <=

    Radial Scheme          =       TREUTLER
    Pruning Scheme         =           NONE
    Nuclear Scheme         =       TREUTLER

    Blocking Scheme        =         OCTREE
    BS radius alpha        =              1
    Pruning alpha          =              1
    Radial Points          =             75
    Spherical Points       =            302
    Total Points           =          41408
    Total Blocks           =            372
    Max Points             =            253
    Max Functions          =             28
    Weights Tolerance      =       1.00E-15

   => Loading Basis Set <=

    Name: (CC-PVDZ AUX)
    Role: JKFIT
    Keyword: DF_BASIS_SCF
    atoms 1-2 entry O          line   221 file /Users/joseantoniorodriguesromero/anaconda3/share/psi4/basis/cc-pvdz-jkfit.gbs 

   => Loading Basis Set <=

    Name: CC-PVDZ
    Role: ORBITAL
    Keyword: BASIS
    atoms 1-2 entry O          line   198 file /Users/joseantoniorodriguesromero/anaconda3/share/psi4/basis/cc-pvdz.gbs 

  Reading orbitals from file /tmp/doublet_OO.default.74529.180.npy, no projection.

  ==> Integral Setup <==

  DFHelper Memory: AOs need 0.001 GiB; user supplied 0.333 GiB. 
  Using in-core AOs.

  ==> MemDFJK: Density-Fitted J/K Matrices <==

    J tasked:                   Yes
    K tasked:                   Yes
    wK tasked:                   No
    OpenMP threads:               1
    Memory [MiB]:               340
    Algorithm:                 Core
    Schwarz Cutoff:           1E-12
    Mask sparsity (%):       0.0000
    Fitting Condition:        1E-10

   => Auxiliary Basis Set <=

  Basis Set: (CC-PVDZ AUX)
    Blend: CC-PVDZ-JKFIT
    Number of shells: 48
    Number of basis functions: 140
    Number of Cartesian functions: 162
    Spherical Harmonics?: true
    Max angular momentum: 3

  Cached 100.0% of DFT collocation blocks in 0.033 [GiB].

  Minimum eigenvalue in the overlap matrix is 2.3166770848E-02.
  Reciprocal condition number of the overlap matrix is 8.7718026628E-03.
    Using symmetric orthogonalization.

  ==> Pre-Iterations <==

  SCF Guess: Orbitals guess was supplied from a previous computation.

   -------------------------------------------------------
    Irrep   Nso     Nmo     Nalpha   Nbeta   Ndocc  Nsocc
   -------------------------------------------------------
     Ag         7       7       3       3       3       0
     B1g        3       3       1       0       0       1
     B2g        1       1       0       0       0       0
     B3g        3       3       0       0       0       0
     Au         1       1       0       0       0       0
     B1u        3       3       1       1       1       0
     B2u        7       7       2       2       2       0
     B3u        3       3       1       1       1       0
   -------------------------------------------------------
    Total      28      28       8       7       7       1
   -------------------------------------------------------

  ==> Iterations <==

                           Total Energy        Delta E     RMS |[F,P]|

   @DF-UKS iter   0:  -149.86184367647877   -1.49862e+02   3.02890e-03 
   @DF-UKS iter   1:  -149.87772767628977   -1.58840e-02   5.95491e-04 ADIIS/DIIS
   @DF-UKS iter   2:  -149.87773937115600   -1.16949e-05   2.82153e-04 ADIIS/DIIS/DAMP=1%
   @DF-UKS iter   3:  -149.87766274151014    7.66296e-05   2.18508e-05 DIIS/DAMP=1%
   @DF-UKS iter   4:  -149.87774990521663   -8.71637e-05   1.39351e-06 DIIS/DAMP=1%
   @DF-UKS iter   5:  -149.87774260735887    7.29786e-06   9.87461e-08 DIIS/DAMP=1%
   @DF-UKS iter   6:  -149.87774310162430   -4.94265e-07   6.59649e-09 DIIS/DAMP=1%
   @DF-UKS iter   7:  -149.87774306786673    3.37576e-08   8.99400e-10 DIIS/DAMP=1%
   @DF-UKS iter   8:  -149.87774306957346   -1.70672e-09   6.39694e-11 DIIS/DAMP=1%
  Energy and wave function converged.


  ==> Post-Iterations <==

   Electrons on quadrature grid:
      Nalpha   =    8.0000000656 ; deviation = 6.560e-08
      Nbeta    =    7.0000001606 ; deviation = 1.606e-07
      Ntotal   =   15.0000002262 ; deviation = 2.262e-07 

   @Spin Contamination Metric:   2.160281130E-03
   @S^2 Expected:                7.500000000E-01
   @S^2 Observed:                7.521602811E-01
   @S   Expected:                5.000000000E-01
   @S   Observed:                5.000000000E-01

    Orbital Energies [Eh]
    ---------------------

    Alpha Occupied:                                                       

       1Ag   -19.832497     1B2u  -19.832146     2Ag    -1.880288  
       2B2u   -1.255751     1B3u   -1.065058     1B1u   -1.029082  
       3Ag    -1.020679     1B1g   -0.738384  

    Alpha Virtual:                                                        

       1B3g   -0.612947     3B2u   -0.104788     2B3u    0.397178  
       2B1u    0.405700     4B2u    0.414043     4Ag     0.463855  
       2B1g    0.542103     2B3g    0.555287     5Ag     0.621249  
       5B2u    1.338541     3B1u    1.599599     3B3u    1.600351  
       1B2g    1.790636     6Ag     1.792969     1Au     2.203883  
       6B2u    2.206553     7Ag     2.563087     3B1g    2.963250  
       3B3g    2.965397     7B2u    3.305823  

    Beta Occupied:                                                        

       1Ag   -19.816380     1B2u  -19.815926     2Ag    -1.852588  
       2B2u   -1.209252     1B1u   -1.014598     3Ag    -0.997558  
       1B3u   -0.969282  

    Beta Virtual:                                                         

       1B3g   -0.594665     1B1g   -0.545919     3B2u   -0.080503  
       2B1u    0.413006     4B2u    0.423404     2B3u    0.441613  
       4Ag     0.468536     2B3g    0.563218     2B1g    0.589765  
       5Ag     0.637754     5B2u    1.359982     3B1u    1.604543  
       3B3u    1.640812     6Ag     1.832620     1B2g    1.832902  
       6B2u    2.253670     1Au     2.253694     7Ag     2.588270  
       3B3g    2.972891     3B1g    3.011300     7B2u    3.324033  

    Final Occupation by Irrep:
             Ag   B1g   B2g   B3g    Au   B1u   B2u   B3u 
    DOCC [     3,    0,    0,    0,    0,    1,    2,    1 ]
    SOCC [     0,    1,    0,    0,    0,    0,    0,    0 ]
    NA   [     3,    1,    0,    0,    0,    1,    2,    1 ]
    NB   [     3,    0,    0,    0,    0,    1,    2,    1 ]

  @DF-UKS Final Energy:  -149.87774306957346

   => Energetics <=

    Nuclear Repulsion Energy =             30.4219736790797626
    One-Electron Energy =                -258.6183488475400054
    Two-Electron Energy =                  91.7520808222940332
    DFT Exchange-Correlation Energy =     -13.4334487234072419
    Empirical Dispersion Energy =           0.0000000000000000
    VV10 Nonlocal Energy =                  0.0000000000000000
    Total Energy =                       -149.8777430695734552

  UHF NO Occupations:
  HONO-2 :    2B2u 1.9997615
  HONO-1 :    1B3u 1.9992879
  HONO-0 :    1B1g 1.0000000
  LUNO+0 :    2B3u 0.0007121
  LUNO+1 :    3B2u 0.0002385
  LUNO+2 :    4 Ag 0.0001066
  LUNO+3 :    2B1u 0.0000187


Computation Completed


Properties will be evaluated at   0.000000,   0.000000,   0.000000 [a0]

Properties computed using the SCF density matrix


 Multipole Moments:

 ------------------------------------------------------------------------------------
     Multipole            Electronic (a.u.)      Nuclear  (a.u.)        Total (a.u.)
 ------------------------------------------------------------------------------------

 L = 1.  Multiply by 2.5417464519 to convert [e a0] to [Debye]
 Dipole X            :          0.0000000            0.0000000            0.0000000
 Dipole Y            :          0.0000000            0.0000000            0.0000000
 Dipole Z            :          0.0000000            0.0000000            0.0000000
 Magnitude           :                                                    0.0000000

 ------------------------------------------------------------------------------------

*** tstop() called on Joses-MacBook-Pro-2.local at Thu Jul 17 13:59:17 2025
Module time:
	user time   =       1.76 seconds =       0.03 minutes
	system time =       4.45 seconds =       0.07 minutes
	total time  =          0 seconds =       0.00 minutes
Total time:
	user time   =       9.73 seconds =       0.16 minutes
	system time =      22.66 seconds =       0.38 minutes
	total time  =          3 seconds =       0.05 minutes

*** tstart() called on Joses-MacBook-Pro-2.local
*** at Thu Jul 17 13:59:17 2025


         ------------------------------------------------------------
                                   SCF GRAD                          
                          Rob Parrish, Justin Turney,                
                       Andy Simmonett, and Alex Sokolov              
         ------------------------------------------------------------

  ==> Geometry <==

    Molecular point group: d2h
    Full point group: D_inf_h

    Geometry (in Angstrom), charge = 1, multiplicity = 2:

       Center              X                  Y                   Z               Mass       
    ------------   -----------------  -----------------  -----------------  -----------------
         O           -0.000000000000     0.556626303082     0.000000000000    15.994914619570
         O            0.000000000000    -0.556626303082     0.000000000000    15.994914619570

  Nuclear repulsion =   30.421973679079763

  ==> Basis Set <==

  Basis Set: CC-PVDZ
    Blend: CC-PVDZ
    Number of shells: 12
    Number of basis functions: 28
    Number of Cartesian functions: 30
    Spherical Harmonics?: true
    Max angular momentum: 2

  ==> DFJKGrad: Density-Fitted SCF Gradients <==

    Gradient:                    1
    J tasked:                  Yes
    K tasked:                  Yes
    wK tasked:                  No
    OpenMP threads:              1
    Integrals threads:           1
    Memory [MiB]:              375
    Schwarz Cutoff:          1E-12
    Fitting Condition:       1E-10

   => Auxiliary Basis Set <=

  Basis Set: (CC-PVDZ AUX)
    Blend: CC-PVDZ-JKFIT
    Number of shells: 48
    Number of basis functions: 140
    Number of Cartesian functions: 162
    Spherical Harmonics?: true
    Max angular momentum: 3

  ==> DFT Potential <==

   => LibXC <=

    Version 6.2.2
    S. Lehtola, C. Steigemann, M. J.T. Oliveira, and M. A.L. Marques.,  SoftwareX 7, 1–5 (2018) (10.1016/j.softx.2017.11.002)

   => Composite Functional: B3LYP <= 

    B3LYP Hyb-GGA Exchange-Correlation Functional

    P. J. Stephens, F. J. Devlin, C. F. Chabalowski, and M. J. Frisch.,  J. Phys. Chem. 98, 11623 (1994) (10.1021/j100096a001)

    Deriv               =              1
    GGA                 =           TRUE
    Meta                =          FALSE

    Exchange Hybrid     =           TRUE
    MP2 Hybrid          =          FALSE

   => Exchange Functionals <=

    0.0800   Slater exchange
    0.7200         Becke 88

   => Exact (HF) Exchange <=

    0.2000               HF 

   => Correlation Functionals <=

    0.1900   Vosko, Wilk & Nusair (VWN5_RPA)
    0.8100   Lee, Yang & Parr

   => LibXC Density Thresholds  <==

    XC_HYB_GGA_XC_B3LYP:  1.00E-15 

   => Molecular Quadrature <=

    Radial Scheme          =       TREUTLER
    Pruning Scheme         =           NONE
    Nuclear Scheme         =       TREUTLER

    Blocking Scheme        =         OCTREE
    BS radius alpha        =              1
    Pruning alpha          =              1
    Radial Points          =             75
    Spherical Points       =            302
    Total Points           =          41408
    Total Blocks           =            372
    Max Points             =            253
    Max Functions          =             28
    Weights Tolerance      =       1.00E-15


  -Total Gradient:
     Atom            X                  Y                   Z
    ------   -----------------  -----------------  -----------------
       1       -0.000000000000     0.005482803814     0.000000000000
       2        0.000000000000    -0.005482803814     0.000000000000


*** tstop() called on Joses-MacBook-Pro-2.local at Thu Jul 17 13:59:17 2025
Module time:
	user time   =       0.47 seconds =       0.01 minutes
	system time =       1.33 seconds =       0.02 minutes
	total time  =          0 seconds =       0.00 minutes
Total time:
	user time   =      10.20 seconds =       0.17 minutes
	system time =      24.01 seconds =       0.40 minutes
	total time  =          3 seconds =       0.05 minutes

    			-----------------------------------------

    			 OPTKING 3.0: for geometry optimizations 

    			     By R.A. King, Bethel University     

    			        with contributions from          

    			    A.V. Copan, J. Cayton, A. Heide      

    			-----------------------------------------

    
	                            ===> Fragment 1 <== 

	 Z (Atomic Numbers)          Masses                          Geom                  
	       8.000000            15.994915         -0.00000000  1.05187127  0.00000000   
	       8.000000            15.994915          0.00000000 -1.05187127  0.00000000   

	 - Coordinate -           - BOHR/RAD -       - ANG/DEG -
	 R(1,2)           =         2.103743           1.113253


	        --- Internal Coordinate Step in ANG or DEG, aJ/ANG or AJ/DEG ---
	-------------------------------------------------------------------------------
	           Coordinate      Previous         Force          Change          New 
	           ----------      --------        ------          ------        ------
	               R(1,2)       1.11325       -0.04517       -0.00319       1.11006
	-------------------------------------------------------------------------------

	                                 ==> Convergence Check <==                                  
    
	Measures of convergence in internal coordinates in au.
    
	Criteria marked as inactive (o), active & met (*), and active & unmet ( ).

	----------------------------------------------------------------------------------------------
	   Step    Total Energy     Delta E     Max Force     RMS Force      Max Disp      RMS Disp   
	----------------------------------------------------------------------------------------------
	  Convergence Criteria     1.00e-06 *    3.00e-04 *             o    1.20e-03 *             o
	----------------------------------------------------------------------------------------------
	     4    -149.87774307   -5.82e-05      5.48e-03      5.48e-03 o    6.04e-03      6.04e-03 o  ~
	----------------------------------------------------------------------------------------------

Next Geometry in Ang 
	Fragment 1 (Ang)

	    O  -0.0000000000   0.5550288781   0.0000000000
	    O   0.0000000000  -0.5550288781   0.0000000000


    Structure for next step:
    Molecular point group: d2h
    Full point group: D_inf_h

    Geometry (in Angstrom), charge = 1, multiplicity = 2:

    O           -0.000000000000     0.555028878073     0.000000000000
    O            0.000000000000    -0.555028878073     0.000000000000


Scratch directory: /tmp/
gradient() will perform analytic gradient computation.
   => Libint2 <=

    Primary   basis highest AM E, G, H:  6, 6, 3
    Auxiliary basis highest AM E, G, H:  7, 7, 4
    Onebody   basis highest AM E, G, H:  -, -, -
    Solid Harmonics ordering:            Gaussian

*** tstart() called on Joses-MacBook-Pro-2.local
*** at Thu Jul 17 13:59:17 2025

   => Loading Basis Set <=

    Name: CC-PVDZ
    Role: ORBITAL
    Keyword: BASIS
    atoms 1-2 entry O          line   198 file /Users/joseantoniorodriguesromero/anaconda3/share/psi4/basis/cc-pvdz.gbs 


         ---------------------------------------------------------
                                   SCF
               by Justin Turney, Rob Parrish, Andy Simmonett
                          and Daniel G. A. Smith
                              UKS Reference
                        1 Threads,    500 MiB Core
         ---------------------------------------------------------

  ==> Geometry <==

    Molecular point group: d2h
    Full point group: D_inf_h

    Geometry (in Angstrom), charge = 1, multiplicity = 2:

       Center              X                  Y                   Z               Mass       
    ------------   -----------------  -----------------  -----------------  -----------------
         O           -0.000000000000     0.555028878073     0.000000000000    15.994914619570
         O            0.000000000000    -0.555028878073     0.000000000000    15.994914619570

  Running in d2h symmetry.

  Rotational constants: A = ************  B =      1.71062  C =      1.71062 [cm^-1]
  Rotational constants: A = ************  B =  51283.08201  C =  51283.08201 [MHz]
  Nuclear repulsion =   30.509530963930430

  Charge       = 1
  Multiplicity = 2
  Electrons    = 15
  Nalpha       = 8
  Nbeta        = 7

  ==> Algorithm <==

  SCF Algorithm Type is DF.
  DIIS enabled.
  MOM disabled.
  Fractional occupation disabled.
  Guess Type is READ.
  Energy threshold   = 1.00e-08
  Density threshold  = 1.00e-08
  Integral threshold = 1.00e-12

  ==> Primary Basis <==

  Basis Set: CC-PVDZ
    Blend: CC-PVDZ
    Number of shells: 12
    Number of basis functions: 28
    Number of Cartesian functions: 30
    Spherical Harmonics?: true
    Max angular momentum: 2

  ==> DFT Potential <==

   => LibXC <=

    Version 6.2.2
    S. Lehtola, C. Steigemann, M. J.T. Oliveira, and M. A.L. Marques.,  SoftwareX 7, 1–5 (2018) (10.1016/j.softx.2017.11.002)

   => Composite Functional: B3LYP <= 

    B3LYP Hyb-GGA Exchange-Correlation Functional

    P. J. Stephens, F. J. Devlin, C. F. Chabalowski, and M. J. Frisch.,  J. Phys. Chem. 98, 11623 (1994) (10.1021/j100096a001)

    Deriv               =              1
    GGA                 =           TRUE
    Meta                =          FALSE

    Exchange Hybrid     =           TRUE
    MP2 Hybrid          =          FALSE

   => Exchange Functionals <=

    0.0800   Slater exchange
    0.7200         Becke 88

   => Exact (HF) Exchange <=

    0.2000               HF 

   => Correlation Functionals <=

    0.1900   Vosko, Wilk & Nusair (VWN5_RPA)
    0.8100   Lee, Yang & Parr

   => LibXC Density Thresholds  <==

    XC_HYB_GGA_XC_B3LYP:  1.00E-15 

   => Molecular Quadrature <=

    Radial Scheme          =       TREUTLER
    Pruning Scheme         =           NONE
    Nuclear Scheme         =       TREUTLER

    Blocking Scheme        =         OCTREE
    BS radius alpha        =              1
    Pruning alpha          =              1
    Radial Points          =             75
    Spherical Points       =            302
    Total Points           =          41408
    Total Blocks           =            372
    Max Points             =            253
    Max Functions          =             28
    Weights Tolerance      =       1.00E-15

   => Loading Basis Set <=

    Name: (CC-PVDZ AUX)
    Role: JKFIT
    Keyword: DF_BASIS_SCF
    atoms 1-2 entry O          line   221 file /Users/joseantoniorodriguesromero/anaconda3/share/psi4/basis/cc-pvdz-jkfit.gbs 

   => Loading Basis Set <=

    Name: CC-PVDZ
    Role: ORBITAL
[...]
	           ----------      --------        ------          ------        ------
	               R(1,2)       1.11140       -0.00799       -0.00042       1.11098
	-------------------------------------------------------------------------------

	                                 ==> Convergence Check <==                                  
    
	Measures of convergence in internal coordinates in au.
    
	Criteria marked as inactive (o), active & met (*), and active & unmet ( ).

	----------------------------------------------------------------------------------------------
	   Step    Total Energy     Delta E     Max Force     RMS Force      Max Disp      RMS Disp   
	----------------------------------------------------------------------------------------------
	  Convergence Criteria     1.00e-06 *    3.00e-04 *             o    1.20e-03 *             o
	----------------------------------------------------------------------------------------------
	     6    -149.87775442   -1.71e-06      9.69e-04      9.69e-04 o    7.85e-04 *    7.85e-04 o  ~
	----------------------------------------------------------------------------------------------

Next Geometry in Ang 
	Fragment 1 (Ang)

	    O  -0.0000000000   0.5554913953   0.0000000000
	    O   0.0000000000  -0.5554913953   0.0000000000


    Structure for next step:
    Molecular point group: d2h
    Full point group: D_inf_h

    Geometry (in Angstrom), charge = 1, multiplicity = 2:

    O           -0.000000000000     0.555491395346     0.000000000000
    O            0.000000000000    -0.555491395346     0.000000000000


Scratch directory: /tmp/
gradient() will perform analytic gradient computation.
   => Libint2 <=

    Primary   basis highest AM E, G, H:  6, 6, 3
    Auxiliary basis highest AM E, G, H:  7, 7, 4
    Onebody   basis highest AM E, G, H:  -, -, -
    Solid Harmonics ordering:            Gaussian

*** tstart() called on Joses-MacBook-Pro-2.local
*** at Thu Jul 17 13:59:19 2025

   => Loading Basis Set <=

    Name: CC-PVDZ
    Role: ORBITAL
    Keyword: BASIS
    atoms 1-2 entry O          line   198 file /Users/joseantoniorodriguesromero/anaconda3/share/psi4/basis/cc-pvdz.gbs 


         ---------------------------------------------------------
                                   SCF
               by Justin Turney, Rob Parrish, Andy Simmonett
                          and Daniel G. A. Smith
                              UKS Reference
                        1 Threads,    500 MiB Core
         ---------------------------------------------------------

  ==> Geometry <==

    Molecular point group: d2h
    Full point group: D_inf_h

    Geometry (in Angstrom), charge = 1, multiplicity = 2:

       Center              X                  Y                   Z               Mass       
    ------------   -----------------  -----------------  -----------------  -----------------
         O           -0.000000000000     0.555491395346     0.000000000000    15.994914619570
         O            0.000000000000    -0.555491395346     0.000000000000    15.994914619570

  Running in d2h symmetry.

  Rotational constants: A = ************  B =      1.70777  C =      1.70777 [cm^-1]
  Rotational constants: A = ************  B =  51197.71818  C =  51197.71818 [MHz]
  Nuclear repulsion =   30.484127897040615

  Charge       = 1
  Multiplicity = 2
  Electrons    = 15
  Nalpha       = 8
  Nbeta        = 7

  ==> Algorithm <==

  SCF Algorithm Type is DF.
  DIIS enabled.
  MOM disabled.
  Fractional occupation disabled.
  Guess Type is READ.
  Energy threshold   = 1.00e-08
  Density threshold  = 1.00e-08
  Integral threshold = 1.00e-12

  ==> Primary Basis <==

  Basis Set: CC-PVDZ
    Blend: CC-PVDZ
    Number of shells: 12
    Number of basis functions: 28
    Number of Cartesian functions: 30
    Spherical Harmonics?: true
    Max angular momentum: 2

  ==> DFT Potential <==

   => LibXC <=

    Version 6.2.2
    S. Lehtola, C. Steigemann, M. J.T. Oliveira, and M. A.L. Marques.,  SoftwareX 7, 1–5 (2018) (10.1016/j.softx.2017.11.002)

   => Composite Functional: B3LYP <= 

    B3LYP Hyb-GGA Exchange-Correlation Functional

    P. J. Stephens, F. J. Devlin, C. F. Chabalowski, and M. J. Frisch.,  J. Phys. Chem. 98, 11623 (1994) (10.1021/j100096a001)

    Deriv               =              1
    GGA                 =           TRUE
    Meta                =          FALSE

    Exchange Hybrid     =           TRUE
    MP2 Hybrid          =          FALSE

   => Exchange Functionals <=

    0.0800   Slater exchange
    0.7200         Becke 88

   => Exact (HF) Exchange <=

    0.2000               HF 

   => Correlation Functionals <=

    0.1900   Vosko, Wilk & Nusair (VWN5_RPA)
    0.8100   Lee, Yang & Parr

   => LibXC Density Thresholds  <==

    XC_HYB_GGA_XC_B3LYP:  1.00E-15 

   => Molecular Quadrature <=

    Radial Scheme          =       TREUTLER
    Pruning Scheme         =           NONE
    Nuclear Scheme         =       TREUTLER

    Blocking Scheme        =         OCTREE
    BS radius alpha        =              1
    Pruning alpha          =              1
    Radial Points          =             75
    Spherical Points       =            302
    Total Points           =          41408
    Total Blocks           =            372
    Max Points             =            253
    Max Functions          =             28
    Weights Tolerance      =       1.00E-15

   => Loading Basis Set <=

    Name: (CC-PVDZ AUX)
    Role: JKFIT
    Keyword: DF_BASIS_SCF
    atoms 1-2 entry O          line   221 file /Users/joseantoniorodriguesromero/anaconda3/share/psi4/basis/cc-pvdz-jkfit.gbs 

   => Loading Basis Set <=

    Name: CC-PVDZ
    Role: ORBITAL
    Keyword: BASIS
    atoms 1-2 entry O          line   198 file /Users/joseantoniorodriguesromero/anaconda3/share/psi4/basis/cc-pvdz.gbs 

  Reading orbitals from file /tmp/doublet_OO.default.74529.180.npy, no projection.

  ==> Integral Setup <==

  DFHelper Memory: AOs need 0.001 GiB; user supplied 0.333 GiB. 
  Using in-core AOs.

  ==> MemDFJK: Density-Fitted J/K Matrices <==

    J tasked:                   Yes
    K tasked:                   Yes
    wK tasked:                   No
    OpenMP threads:               1
    Memory [MiB]:               340
    Algorithm:                 Core
    Schwarz Cutoff:           1E-12
    Mask sparsity (%):       0.0000
    Fitting Condition:        1E-10

   => Auxiliary Basis Set <=

  Basis Set: (CC-PVDZ AUX)
    Blend: CC-PVDZ-JKFIT
    Number of shells: 48
    Number of basis functions: 140
    Number of Cartesian functions: 162
    Spherical Harmonics?: true
    Max angular momentum: 3

  Cached 100.0% of DFT collocation blocks in 0.033 [GiB].

  Minimum eigenvalue in the overlap matrix is 2.3014831287E-02.
  Reciprocal condition number of the overlap matrix is 8.7075422424E-03.
    Using symmetric orthogonalization.

  ==> Pre-Iterations <==

  SCF Guess: Orbitals guess was supplied from a previous computation.

   -------------------------------------------------------
    Irrep   Nso     Nmo     Nalpha   Nbeta   Ndocc  Nsocc
   -------------------------------------------------------
     Ag         7       7       3       3       3       0
     B1g        3       3       1       0       0       1
     B2g        1       1       0       0       0       0
     B3g        3       3       0       0       0       0
     Au         1       1       0       0       0       0
     B1u        3       3       1       1       1       0
     B2u        7       7       2       2       2       0
     B3u        3       3       1       1       1       0
   -------------------------------------------------------
    Total      28      28       8       7       7       1
   -------------------------------------------------------

  ==> Iterations <==

                           Total Energy        Delta E     RMS |[F,P]|

   @DF-UKS iter   0:  -149.87861280599583   -1.49879e+02   1.63022e-04 
   @DF-UKS iter   1:  -149.87775473875666    8.58067e-04   3.20273e-05 DIIS
   @DF-UKS iter   2:  -149.87775477256372   -3.38071e-08   1.51639e-05 DIIS/DAMP=1%
   @DF-UKS iter   3:  -149.87775910440070   -4.33184e-06   1.17880e-06 DIIS/DAMP=1%
   @DF-UKS iter   4:  -149.87775441310492    4.69130e-06   7.50385e-08 DIIS/DAMP=1%
   @DF-UKS iter   5:  -149.87775480812533   -3.95020e-07   5.31735e-09 DIIS/DAMP=1%
   @DF-UKS iter   6:  -149.87775478150735    2.66180e-08   3.55080e-10 DIIS/DAMP=1%
   @DF-UKS iter   7:  -149.87775478332591   -1.81856e-09   4.79609e-11 DIIS/DAMP=1%
  Energy and wave function converged.


  ==> Post-Iterations <==

   Electrons on quadrature grid:
      Nalpha   =    8.0000000615 ; deviation = 6.146e-08
      Nbeta    =    7.0000001567 ; deviation = 1.567e-07
      Ntotal   =   15.0000002182 ; deviation = 2.182e-07 

   @Spin Contamination Metric:   2.153166386E-03
   @S^2 Expected:                7.500000000E-01
   @S^2 Observed:                7.521531664E-01
   @S   Expected:                5.000000000E-01
   @S   Observed:                5.000000000E-01

    Orbital Energies [Eh]
    ---------------------

    Alpha Occupied:                                                       

       1Ag   -19.832379     1B2u  -19.832020     2Ag    -1.882688  
       2B2u   -1.255096     1B3u   -1.066203     1B1u   -1.030304  
       3Ag    -1.021109     1B1g   -0.737530  

    Alpha Virtual:                                                        

       1B3g   -0.612054     3B2u   -0.100958     2B3u    0.396874  
       2B1u    0.405340     4B2u    0.414580     4Ag     0.462695  
       2B1g    0.542150     2B3g    0.555357     5Ag     0.620923  
       5B2u    1.340383     3B1u    1.600209     3B3u    1.600962  
       1B2g    1.788978     6Ag     1.791310     1Au     2.205240  
       6B2u    2.207911     7Ag     2.569432     3B1g    2.967218  
       3B3g    2.969355     7B2u    3.306043  

    Beta Occupied:                                                        

       1Ag   -19.816260     1B2u  -19.815797     2Ag    -1.855043  
       2B2u   -1.208606     1B1u   -1.015824     3Ag    -0.997943  
       1B3u   -0.970490  

    Beta Virtual:                                                         

       1B3g   -0.593767     1B1g   -0.545018     3B2u   -0.076690  
       2B1u    0.412636     4B2u    0.423995     2B3u    0.441227  
       4Ag     0.467354     2B3g    0.563295     2B1g    0.589852  
       5Ag     0.637447     5B2u    1.361861     3B1u    1.605158  
       3B3u    1.641473     6Ag     1.830932     1B2g    1.831208  
       6B2u    2.255046     1Au     2.255069     7Ag     2.594623  
       3B3g    2.976851     3B1g    3.015280     7B2u    3.324226  

    Final Occupation by Irrep:
             Ag   B1g   B2g   B3g    Au   B1u   B2u   B3u 
    DOCC [     3,    0,    0,    0,    0,    1,    2,    1 ]
    SOCC [     0,    1,    0,    0,    0,    0,    0,    0 ]
    NA   [     3,    1,    0,    0,    0,    1,    2,    1 ]
    NB   [     3,    0,    0,    0,    0,    1,    2,    1 ]

  @DF-UKS Final Energy:  -149.87775478332591

   => Energetics <=

    Nuclear Repulsion Energy =             30.4841278970406151
    One-Electron Energy =                -258.7334438647216075
    Two-Electron Energy =                  91.8071237253943480
    DFT Exchange-Correlation Energy =     -13.4355625410392872
    Empirical Dispersion Energy =           0.0000000000000000
    VV10 Nonlocal Energy =                  0.0000000000000000
    Total Energy =                       -149.8777547833259121

  UHF NO Occupations:
  HONO-2 :    2B2u 1.9997618
  HONO-1 :    1B3u 1.9992910
  HONO-0 :    1B1g 1.0000000
  LUNO+0 :    2B3u 0.0007090
  LUNO+1 :    3B2u 0.0002382
  LUNO+2 :    4 Ag 0.0001065
  LUNO+3 :    2B1u 0.0000186


Computation Completed


Properties will be evaluated at   0.000000,   0.000000,   0.000000 [a0]

Properties computed using the SCF density matrix


 Multipole Moments:

 ------------------------------------------------------------------------------------
     Multipole            Electronic (a.u.)      Nuclear  (a.u.)        Total (a.u.)
 ------------------------------------------------------------------------------------

 L = 1.  Multiply by 2.5417464519 to convert [e a0] to [Debye]
 Dipole X            :          0.0000000            0.0000000            0.0000000
 Dipole Y            :          0.0000000            0.0000000            0.0000000
 Dipole Z            :          0.0000000            0.0000000            0.0000000
 Magnitude           :                                                    0.0000000

 ------------------------------------------------------------------------------------

*** tstop() called on Joses-MacBook-Pro-2.local at Thu Jul 17 13:59:19 2025
Module time:
	user time   =       1.61 seconds =       0.03 minutes
	system time =       4.24 seconds =       0.07 minutes
	total time  =          0 seconds =       0.00 minutes
Total time:
	user time   =      15.70 seconds =       0.26 minutes
	system time =      39.49 seconds =       0.66 minutes
	total time  =          5 seconds =       0.08 minutes

*** tstart() called on Joses-MacBook-Pro-2.local
*** at Thu Jul 17 13:59:19 2025


         ------------------------------------------------------------
                                   SCF GRAD                          
                          Rob Parrish, Justin Turney,                
                       Andy Simmonett, and Alex Sokolov              
         ------------------------------------------------------------

  ==> Geometry <==

    Molecular point group: d2h
    Full point group: D_inf_h

    Geometry (in Angstrom), charge = 1, multiplicity = 2:

       Center              X                  Y                   Z               Mass       
    ------------   -----------------  -----------------  -----------------  -----------------
         O           -0.000000000000     0.555491395346     0.000000000000    15.994914619570
         O            0.000000000000    -0.555491395346     0.000000000000    15.994914619570

  Nuclear repulsion =   30.484127897040615

  ==> Basis Set <==

  Basis Set: CC-PVDZ
    Blend: CC-PVDZ
    Number of shells: 12
    Number of basis functions: 28
    Number of Cartesian functions: 30
    Spherical Harmonics?: true
    Max angular momentum: 2

  ==> DFJKGrad: Density-Fitted SCF Gradients <==

    Gradient:                    1
    J tasked:                  Yes
    K tasked:                  Yes
    wK tasked:                  No
    OpenMP threads:              1
    Integrals threads:           1
    Memory [MiB]:              375
    Schwarz Cutoff:          1E-12
    Fitting Condition:       1E-10

   => Auxiliary Basis Set <=

  Basis Set: (CC-PVDZ AUX)
    Blend: CC-PVDZ-JKFIT
    Number of shells: 48
    Number of basis functions: 140
    Number of Cartesian functions: 162
    Spherical Harmonics?: true
    Max angular momentum: 3

  ==> DFT Potential <==

   => LibXC <=

    Version 6.2.2
    S. Lehtola, C. Steigemann, M. J.T. Oliveira, and M. A.L. Marques.,  SoftwareX 7, 1–5 (2018) (10.1016/j.softx.2017.11.002)

   => Composite Functional: B3LYP <= 

    B3LYP Hyb-GGA Exchange-Correlation Functional

    P. J. Stephens, F. J. Devlin, C. F. Chabalowski, and M. J. Frisch.,  J. Phys. Chem. 98, 11623 (1994) (10.1021/j100096a001)

    Deriv               =              1
    GGA                 =           TRUE
    Meta                =          FALSE

    Exchange Hybrid     =           TRUE
    MP2 Hybrid          =          FALSE

   => Exchange Functionals <=

    0.0800   Slater exchange
    0.7200         Becke 88

   => Exact (HF) Exchange <=

    0.2000               HF 

   => Correlation Functionals <=

    0.1900   Vosko, Wilk & Nusair (VWN5_RPA)
    0.8100   Lee, Yang & Parr

   => LibXC Density Thresholds  <==

    XC_HYB_GGA_XC_B3LYP:  1.00E-15 

   => Molecular Quadrature <=

    Radial Scheme          =       TREUTLER
    Pruning Scheme         =           NONE
    Nuclear Scheme         =       TREUTLER

    Blocking Scheme        =         OCTREE
    BS radius alpha        =              1
    Pruning alpha          =              1
    Radial Points          =             75
    Spherical Points       =            302
    Total Points           =          41408
    Total Blocks           =            372
    Max Points             =            253
    Max Functions          =             28
    Weights Tolerance      =       1.00E-15


  -Total Gradient:
     Atom            X                  Y                   Z
    ------   -----------------  -----------------  -----------------
       1        0.000000000000    -0.000050707638     0.000000000000
       2       -0.000000000000     0.000050707638     0.000000000000


*** tstop() called on Joses-MacBook-Pro-2.local at Thu Jul 17 13:59:20 2025
Module time:
	user time   =       0.58 seconds =       0.01 minutes
	system time =       1.01 seconds =       0.02 minutes
	total time  =          1 seconds =       0.02 minutes
Total time:
	user time   =      16.28 seconds =       0.27 minutes
	system time =      40.50 seconds =       0.68 minutes
	total time  =          6 seconds =       0.10 minutes

    			-----------------------------------------

    			 OPTKING 3.0: for geometry optimizations 

    			     By R.A. King, Bethel University     

    			        with contributions from          

    			    A.V. Copan, J. Cayton, A. Heide      

    			-----------------------------------------

    
	                            ===> Fragment 1 <== 

	 Z (Atomic Numbers)          Masses                          Geom                  
	       8.000000            15.994915         -0.00000000  1.04972660  0.00000000   
	       8.000000            15.994915          0.00000000 -1.04972660  0.00000000   

	 - Coordinate -           - BOHR/RAD -       - ANG/DEG -
	 R(1,2)           =         2.099453           1.110983


	        --- Internal Coordinate Step in ANG or DEG, aJ/ANG or AJ/DEG ---
	-------------------------------------------------------------------------------
	           Coordinate      Previous         Force          Change          New 
	           ----------      --------        ------          ------        ------
	               R(1,2)       1.11098        0.00042        0.00002       1.11100
	-------------------------------------------------------------------------------

	                                 ==> Convergence Check <==                                  
    
	Measures of convergence in internal coordinates in au.
    
	Criteria marked as inactive (o), active & met (*), and active & unmet ( ).

	----------------------------------------------------------------------------------------------
	   Step    Total Energy     Delta E     Max Force     RMS Force      Max Disp      RMS Disp   
	----------------------------------------------------------------------------------------------
	  Convergence Criteria     1.00e-06 *    3.00e-04 *             o    1.20e-03 *             o
	----------------------------------------------------------------------------------------------
	     7    -149.87775478   -3.66e-07 *    5.07e-05 *    5.07e-05 o    3.81e-05 *    3.81e-05 o  ~
	----------------------------------------------------------------------------------------------

Next Geometry in Ang 
	Fragment 1 (Ang)

	    O  -0.0000000000   0.5555014783   0.0000000000
	    O   0.0000000000  -0.5555014783   0.0000000000


    Final optimized geometry and variables:
    Molecular point group: d2h
    Full point group: D_inf_h

    Geometry (in Angstrom), charge = 1, multiplicity = 2:

    O           -0.000000000000     0.555491395346     0.000000000000
    O            0.000000000000    -0.555491395346     0.000000000000


    Psi4 stopped on: Thursday, 17 July 2025 01:59PM
    Psi4 wall time for execution: 0:00:06.47

*** Psi4 exiting successfully. Buy a developer a beer!
