
    -----------------------------------------------------------------------
          Psi4: An Open-Source Ab Initio Electronic Structure Package
                               Psi4 1.9.1 release

                         Git: Rev {} zzzzzzz 


    D. G. A. Smith, L. A. Burns, A. C. Simmonett, R. M. Parrish,
    M. C. Schieber, R. Galvelis, P. Kraus, H. Kruse, R. Di Remigio,
    A. Alenaizan, A. M. James, S. Lehtola, J. P. Misiewicz, M. Scheurer,
    R. A. Shaw, J. B. Schriber, Y. Xie, Z. L. Glick, D. A. Sirianni,
    J. S. O'Brien, J. M. Waldrop, A. Kumar, E. G. Hohenstein,
    B. P. Pritchard, B. R. Brooks, H. F. Schaefer III, A. Yu. Sokolov,
    K. Patkowski, A. E. DePrince III, U. Bozkaya, R. A. King,
    F. A. Evangelista, J. M. Turney, T. D. Crawford, C. D. Sherrill,
    J. Chem. Phys. 152(18) 184108 (2020). https://doi.org/10.1063/5.0006002

                            Additional Code Authors
    E. T. Seidl, C. L. Janssen, E. F. Valeev, M. L. Leininger,
    J. F. Gonthier, R. M. Richard, H. R. McAlexander, M. Saitow, X. Wang,
    P. Verma, M. H. Lechner, A. Jiang, S. Behnle, A. G. Heide,
    M. F. Herbst, and D. L. Poole

             Previous Authors, Complete List of Code Contributors,
                       and Citations for Specific Modules
    https://github.com/psi4/psi4/blob/master/codemeta.json
    https://github.com/psi4/psi4/graphs/contributors
    http://psicode.org/psi4manual/master/introduction.html#citing-psifour

    -----------------------------------------------------------------------


    Psi4 started on: Thursday, 17 July 2025 03:17PM

    Process ID: 75231
    Host:       Joses-MacBook-Pro-2.local
    PSIDATADIR: /Users/joseantoniorodriguesromero/anaconda3/share/psi4
    Memory:     500.0 MiB
    Threads:    1
    
  ==> Input File <==

--------------------------------------------------------------------------
molecule { 
1 2
Al   0.00000        0.60000        0.00000
P   0.00000       -0.60000        0.00000
}

set { 
basis              cc-pvdz
reference          uks
maxiter            500
geom_maxiter       500
DAMPING_PERCENTAGE 1
guess              SAP
}

optimize('b3lyp')
--------------------------------------------------------------------------

Scratch directory: /tmp/
gradient() will perform analytic gradient computation.
   => Libint2 <=

    Primary   basis highest AM E, G, H:  6, 6, 3
    Auxiliary basis highest AM E, G, H:  7, 7, 4
    Onebody   basis highest AM E, G, H:  -, -, -
    Solid Harmonics ordering:            Gaussian

*** tstart() called on Joses-MacBook-Pro-2.local
*** at Thu Jul 17 15:17:18 2025

   => Loading Basis Set <=

    Name: CC-PVDZ
    Role: ORBITAL
    Keyword: BASIS
    atoms 1 entry AL         line   418 file /Users/joseantoniorodriguesromero/anaconda3/share/psi4/basis/cc-pvdz.gbs 
    atoms 2 entry P          line   538 file /Users/joseantoniorodriguesromero/anaconda3/share/psi4/basis/cc-pvdz.gbs 


         ---------------------------------------------------------
                                   SCF
               by Justin Turney, Rob Parrish, Andy Simmonett
                          and Daniel G. A. Smith
                              UKS Reference
                        1 Threads,    500 MiB Core
         ---------------------------------------------------------

  ==> Geometry <==

    Molecular point group: c2v
    Full point group: C_inf_v

    Geometry (in Angstrom), charge = 1, multiplicity = 2:

       Center              X                  Y                   Z               Mass       
    ------------   -----------------  -----------------  -----------------  -----------------
         AL           0.000000000000     0.000000000000     0.641330716245    26.981538530000
         P            0.000000000000     0.000000000000    -0.558669283755    30.973761998420

  Running in c2v symmetry.

  Rotational constants: A = ************  B =      0.81183  C =      0.81183 [cm^-1]
  Rotational constants: A = ************  B =  24338.12977  C =  24338.12977 [MHz]
  Nuclear repulsion =   85.991296733875018

  Charge       = 1
  Multiplicity = 2
  Electrons    = 27
  Nalpha       = 14
  Nbeta        = 13

  ==> Algorithm <==

  SCF Algorithm Type is DF.
  DIIS enabled.
  MOM disabled.
  Fractional occupation disabled.
  Guess Type is SAP.
  Energy threshold   = 1.00e-08
  Density threshold  = 1.00e-08
  Integral threshold = 1.00e-12

  ==> Primary Basis <==

  Basis Set: CC-PVDZ
    Blend: CC-PVDZ
    Number of shells: 16
    Number of basis functions: 36
    Number of Cartesian functions: 38
    Spherical Harmonics?: true
    Max angular momentum: 2

  ==> DFT Potential <==

   => LibXC <=

    Version 6.2.2
    S. Lehtola, C. Steigemann, M. J.T. Oliveira, and M. A.L. Marques.,  SoftwareX 7, 1–5 (2018) (10.1016/j.softx.2017.11.002)

   => Composite Functional: B3LYP <= 

    B3LYP Hyb-GGA Exchange-Correlation Functional

    P. J. Stephens, F. J. Devlin, C. F. Chabalowski, and M. J. Frisch.,  J. Phys. Chem. 98, 11623 (1994) (10.1021/j100096a001)

    Deriv               =              1
    GGA                 =           TRUE
    Meta                =          FALSE

    Exchange Hybrid     =           TRUE
    MP2 Hybrid          =          FALSE

   => Exchange Functionals <=

    0.0800   Slater exchange
    0.7200         Becke 88

   => Exact (HF) Exchange <=

    0.2000               HF 

   => Correlation Functionals <=

    0.1900   Vosko, Wilk & Nusair (VWN5_RPA)
    0.8100   Lee, Yang & Parr

   => LibXC Density Thresholds  <==

    XC_HYB_GGA_XC_B3LYP:  1.00E-15 

   => Molecular Quadrature <=

    Radial Scheme          =       TREUTLER
    Pruning Scheme         =           NONE
    Nuclear Scheme         =       TREUTLER

    Blocking Scheme        =         OCTREE
    BS radius alpha        =              1
    Pruning alpha          =              1
    Radial Points          =             75
    Spherical Points       =            302
    Total Points           =          42559
    Total Blocks           =            402
    Max Points             =            253
    Max Functions          =             36
    Weights Tolerance      =       1.00E-15

   => Loading Basis Set <=

    Name: (CC-PVDZ AUX)
    Role: JKFIT
    Keyword: DF_BASIS_SCF
    atoms 1 entry AL         line   371 file /Users/joseantoniorodriguesromero/anaconda3/share/psi4/basis/cc-pvdz-jkfit.gbs 
    atoms 2 entry P          line   519 file /Users/joseantoniorodriguesromero/anaconda3/share/psi4/basis/cc-pvdz-jkfit.gbs 

  ==> Integral Setup <==

  DFHelper Memory: AOs need 0.003 GiB; user supplied 0.323 GiB. 
  Using in-core AOs.

  ==> MemDFJK: Density-Fitted J/K Matrices <==

    J tasked:                   Yes
    K tasked:                   Yes
    wK tasked:                   No
    OpenMP threads:               1
    Memory [MiB]:               330
    Algorithm:                 Core
    Schwarz Cutoff:           1E-12
    Mask sparsity (%):       0.0000
    Fitting Condition:        1E-10

   => Auxiliary Basis Set <=

  Basis Set: (CC-PVDZ AUX)
    Blend: CC-PVDZ-JKFIT
    Number of shells: 72
    Number of basis functions: 224
    Number of Cartesian functions: 260
    Spherical Harmonics?: true
    Max angular momentum: 3

  Cached 100.0% of DFT collocation blocks in 0.044 [GiB].

  Minimum eigenvalue in the overlap matrix is 3.6000847872E-03.
  Reciprocal condition number of the overlap matrix is 1.1170376721E-03.
    Using symmetric orthogonalization.

  ==> Pre-Iterations <==

  SCF Guess: Superposition of Atomic Potentials (doi:10.1021/acs.jctc.8b01089).

  ==> SAP guess <==

   => Molecular Quadrature <=

    Radial Scheme          =       TREUTLER
    Pruning Scheme         =           NONE
    Nuclear Scheme         =       TREUTLER

    Blocking Scheme        =         OCTREE
    BS radius alpha        =              1
    Pruning alpha          =              1
    Radial Points          =             75
    Spherical Points       =            302
    Total Points           =          42559
    Total Blocks           =            402
    Max Points             =            253
    Max Functions          =             36
    Weights Tolerance      =       1.00E-15

   -------------------------------------------------------
    Irrep   Nso     Nmo     Nalpha   Nbeta   Ndocc  Nsocc
   -------------------------------------------------------
     A1        18      18       8       7       7       1
     A2         2       2       0       0       0       0
     B1         8       8       3       3       3       0
     B2         8       8       3       3       3       0
   -------------------------------------------------------
    Total      36      36      14      13      13       1
   -------------------------------------------------------

  ==> Iterations <==

                           Total Energy        Delta E     RMS |[F,P]|

    Occupation by irrep:
             A1    A2    B1    B2 
    DOCC [     8,    0,    3,    2 ]
    SOCC [     0,    0,    0,    1 ]
    NA   [     8,    0,    3,    3 ]
    NB   [     8,    0,    3,    2 ]

   @DF-UKS iter   1:  -582.13757129019871   -5.82138e+02   2.24757e-02 DIIS/ADIIS
    Occupation by irrep:
             A1    A2    B1    B2 
    DOCC [     7,    0,    3,    3 ]
    SOCC [     1,    0,    0,    0 ]
    NA   [     8,    0,    3,    3 ]
    NB   [     7,    0,    3,    3 ]

   @DF-UKS iter   2:  -581.97323599614106    1.64335e-01   2.78856e-02 DIIS/ADIIS/DAMP=1%
   @DF-UKS iter   3:  -582.26165740961801   -2.88421e-01   6.78791e-03 DIIS/ADIIS/DAMP=1%
   @DF-UKS iter   4:  -582.32656478042554   -6.49074e-02   3.02187e-03 DIIS/ADIIS/DAMP=1%
   @DF-UKS iter   5:  -582.33081814516049   -4.25336e-03   2.92582e-04 DIIS/ADIIS/DAMP=1%
   @DF-UKS iter   6:  -582.33006696583732    7.51179e-04   8.50417e-05 DIIS/DAMP=1%
   @DF-UKS iter   7:  -582.33011697477718   -5.00089e-05   1.10817e-05 DIIS/DAMP=1%
   @DF-UKS iter   8:  -582.33004864727741    6.83275e-05   2.66324e-06 DIIS/DAMP=1%
   @DF-UKS iter   9:  -582.33004839919329    2.48084e-07   5.30562e-07 DIIS/DAMP=1%
   @DF-UKS iter  10:  -582.33004641983712    1.97936e-06   6.94795e-08 DIIS/DAMP=1%
   @DF-UKS iter  11:  -582.33004663184215   -2.12005e-07   7.43191e-09 DIIS/DAMP=1%
   @DF-UKS iter  12:  -582.33004659786332    3.39788e-08   1.24270e-09 DIIS/DAMP=1%
   @DF-UKS iter  13:  -582.33004659195649    5.90683e-09   2.08345e-10 DIIS/DAMP=1%
  Energy and wave function converged.


  ==> Post-Iterations <==

   Electrons on quadrature grid:
      Nalpha   =   13.9999982081 ; deviation = -1.792e-06
      Nbeta    =   12.9999981790 ; deviation = -1.821e-06
      Ntotal   =   26.9999963870 ; deviation = -3.613e-06 

   @Spin Contamination Metric:   5.425685020E-03
   @S^2 Expected:                7.500000000E-01
   @S^2 Observed:                7.554256850E-01
   @S   Expected:                5.000000000E-01
   @S   Observed:                5.000000000E-01

    Orbital Energies [Eh]
    ---------------------

    Alpha Occupied:                                                       

       1A1   -77.421673     2A1   -56.494061     3A1    -6.951859  
       4A1    -5.153092     1B2    -5.082796     1B1    -5.082796  
       5A1    -4.644334     6A1    -3.235140     2B2    -3.164731  
       2B1    -3.164731     7A1    -0.883447     8A1    -0.570481  
       3B2    -0.569591     3B1    -0.569591  

    Alpha Virtual:                                                        

       9A1    -0.357063     4B2    -0.223716     4B1    -0.223716  
      10A1    -0.122956     5B2    -0.051869     5B1    -0.051869  
       1A2    -0.047445    11A1    -0.047444    12A1    -0.043189  
       6B2     0.086044     6B1     0.086044    13A1     0.100082  
      14A1     0.132401     7B2     0.282031     7B1     0.282031  
       2A2     0.338681    15A1     0.338682    16A1     0.353824  
       8B2     0.595633     8B1     0.595633    17A1     0.778947  
      18A1     1.489121  

    Beta Occupied:                                                        

       1A1   -77.419057     2A1   -56.490575     3A1    -6.949106  
       4A1    -5.144833     1B2    -5.081116     1B1    -5.081116  
       5A1    -4.638832     6A1    -3.231419     2B2    -3.160607  
       2B1    -3.160607     7A1    -0.862853     3B2    -0.562660  
       3B1    -0.562660  

    Beta Virtual:                                                         

       8A1    -0.465120     9A1    -0.307990     4B2    -0.198628  
       4B1    -0.198628    10A1    -0.117035     5B2    -0.042905  
       5B1    -0.042905     1A2    -0.036444    11A1    -0.036443  
      12A1    -0.028169     6B2     0.108611     6B1     0.108611  
      13A1     0.131781    14A1     0.147660     7B2     0.297289  
       7B1     0.297289     2A2     0.350678    15A1     0.350679  
      16A1     0.376209     8B2     0.617388     8B1     0.617388  
      17A1     0.799600    18A1     1.499067  

    Final Occupation by Irrep:
             A1    A2    B1    B2 
    DOCC [     7,    0,    3,    3 ]
    SOCC [     1,    0,    0,    0 ]
    NA   [     8,    0,    3,    3 ]
    NB   [     7,    0,    3,    3 ]

  @DF-UKS Final Energy:  -582.33004659195649

   => Energetics <=

    Nuclear Repulsion Energy =             85.9912967338750178
    One-Electron Energy =                -967.1681580734136787
    Two-Electron Energy =                 332.7432512154270512
    DFT Exchange-Correlation Energy =     -33.8964364678449854
    Empirical Dispersion Energy =           0.0000000000000000
    VV10 Nonlocal Energy =                  0.0000000000000000
    Total Energy =                       -582.3300465919564886

  UHF NO Occupations:
  HONO-2 :    3 B2 1.9996216
  HONO-1 :    7 A1 1.9980429
  HONO-0 :    8 A1 1.0000000
  LUNO+0 :    9 A1 0.0019571
  LUNO+1 :    4 B2 0.0003784
  LUNO+2 :    4 B1 0.0003784
  LUNO+3 :   10 A1 0.0000004


Computation Completed


Properties will be evaluated at   0.000000,   0.000000,   0.000000 [a0]

Properties computed using the SCF density matrix


 Multipole Moments:

 ------------------------------------------------------------------------------------
     Multipole            Electronic (a.u.)      Nuclear  (a.u.)        Total (a.u.)
 ------------------------------------------------------------------------------------

 L = 1.  Multiply by 2.5417464519 to convert [e a0] to [Debye]
 Dipole X            :          0.0000000            0.0000000            0.0000000
 Dipole Y            :          0.0000000            0.0000000            0.0000000
 Dipole Z            :          1.0817069           -0.0807668            1.0009401
 Magnitude           :                                                    1.0009401

 ------------------------------------------------------------------------------------

*** tstop() called on Joses-MacBook-Pro-2.local at Thu Jul 17 15:17:20 2025
Module time:
	user time   =      17.95 seconds =       0.30 minutes
	system time =       1.49 seconds =       0.02 minutes
	total time  =          2 seconds =       0.03 minutes
Total time:
	user time   =      17.95 seconds =       0.30 minutes
	system time =       1.49 seconds =       0.02 minutes
	total time  =          2 seconds =       0.03 minutes

*** tstart() called on Joses-MacBook-Pro-2.local
*** at Thu Jul 17 15:17:20 2025


         ------------------------------------------------------------
                                   SCF GRAD                          
                          Rob Parrish, Justin Turney,                
                       Andy Simmonett, and Alex Sokolov              
         ------------------------------------------------------------

  ==> Geometry <==

    Molecular point group: c2v
    Full point group: C_inf_v

    Geometry (in Angstrom), charge = 1, multiplicity = 2:

       Center              X                  Y                   Z               Mass       
    ------------   -----------------  -----------------  -----------------  -----------------
         AL           0.000000000000     0.000000000000     0.641330716245    26.981538530000
         P            0.000000000000     0.000000000000    -0.558669283755    30.973761998420

  Nuclear repulsion =   85.991296733875018

  ==> Basis Set <==

  Basis Set: CC-PVDZ
    Blend: CC-PVDZ
    Number of shells: 16
    Number of basis functions: 36
    Number of Cartesian functions: 38
    Spherical Harmonics?: true
    Max angular momentum: 2

  ==> DFJKGrad: Density-Fitted SCF Gradients <==

    Gradient:                    1
    J tasked:                  Yes
    K tasked:                  Yes
    wK tasked:                  No
    OpenMP threads:              1
    Integrals threads:           1
    Memory [MiB]:              375
    Schwarz Cutoff:          1E-12
    Fitting Condition:       1E-10

   => Auxiliary Basis Set <=

  Basis Set: (CC-PVDZ AUX)
    Blend: CC-PVDZ-JKFIT
    Number of shells: 72
    Number of basis functions: 224
    Number of Cartesian functions: 260
    Spherical Harmonics?: true
    Max angular momentum: 3

  ==> DFT Potential <==

   => LibXC <=

    Version 6.2.2
    S. Lehtola, C. Steigemann, M. J.T. Oliveira, and M. A.L. Marques.,  SoftwareX 7, 1–5 (2018) (10.1016/j.softx.2017.11.002)

   => Composite Functional: B3LYP <= 

    B3LYP Hyb-GGA Exchange-Correlation Functional

    P. J. Stephens, F. J. Devlin, C. F. Chabalowski, and M. J. Frisch.,  J. Phys. Chem. 98, 11623 (1994) (10.1021/j100096a001)

    Deriv               =              1
    GGA                 =           TRUE
    Meta                =          FALSE

    Exchange Hybrid     =           TRUE
    MP2 Hybrid          =          FALSE

   => Exchange Functionals <=

    0.0800   Slater exchange
    0.7200         Becke 88

   => Exact (HF) Exchange <=

    0.2000               HF 

   => Correlation Functionals <=

    0.1900   Vosko, Wilk & Nusair (VWN5_RPA)
    0.8100   Lee, Yang & Parr

   => LibXC Density Thresholds  <==

    XC_HYB_GGA_XC_B3LYP:  1.00E-15 

   => Molecular Quadrature <=

    Radial Scheme          =       TREUTLER
    Pruning Scheme         =           NONE
    Nuclear Scheme         =       TREUTLER

    Blocking Scheme        =         OCTREE
    BS radius alpha        =              1
    Pruning alpha          =              1
    Radial Points          =             75
    Spherical Points       =            302
    Total Points           =          42559
    Total Blocks           =            402
    Max Points             =            253
    Max Functions          =             36
    Weights Tolerance      =       1.00E-15


  -Total Gradient:
     Atom            X                  Y                   Z
    ------   -----------------  -----------------  -----------------
       1       -0.000000000000    -0.000000000000    -1.991257278629
       2       -0.000000000000    -0.000000000000     1.991225706390


*** tstop() called on Joses-MacBook-Pro-2.local at Thu Jul 17 15:17:20 2025
Module time:
	user time   =       2.44 seconds =       0.04 minutes
	system time =       1.46 seconds =       0.02 minutes
	total time  =          0 seconds =       0.00 minutes
Total time:
	user time   =      20.41 seconds =       0.34 minutes
	system time =       2.95 seconds =       0.05 minutes
	total time  =          2 seconds =       0.03 minutes

    			-----------------------------------------

    			 OPTKING 3.0: for geometry optimizations 

    			     By R.A. King, Bethel University     

    			        with contributions from          

    			    A.V. Copan, J. Cayton, A. Heide      

    			-----------------------------------------

    
	                            ===> Fragment 1 <== 

	 Z (Atomic Numbers)          Masses                          Geom                  
	      13.000000            26.981539          0.00000000  0.00000000  1.21193941   
	      15.000000            30.973762          0.00000000  0.00000000 -1.05573194   

	 - Coordinate -           - BOHR/RAD -       - ANG/DEG -
	 R(1,2)           =         2.267671           1.200000


	        --- Internal Coordinate Step in ANG or DEG, aJ/ANG or AJ/DEG ---
	-------------------------------------------------------------------------------
	           Coordinate      Previous         Force          Change          New 
	           ----------      --------        ------          ------        ------
	               R(1,2)       1.20000       16.40529        0.00484       1.20484
	-------------------------------------------------------------------------------

	                                 ==> Convergence Check <==                                  
    
	Measures of convergence in internal coordinates in au.
    
	Criteria marked as inactive (o), active & met (*), and active & unmet ( ).

	----------------------------------------------------------------------------------------------
	   Step    Total Energy     Delta E     Max Force     RMS Force      Max Disp      RMS Disp   
	----------------------------------------------------------------------------------------------
	  Convergence Criteria     1.00e-06 *    3.00e-04 *             o    1.20e-03 *             o
	----------------------------------------------------------------------------------------------
	     1    -582.33004659   -5.82e+02      1.99e+00      1.99e+00 o    9.14e-03      9.14e-03 o  ~
	----------------------------------------------------------------------------------------------

Next Geometry in Ang 
	Fragment 1 (Ang)

	   Al   0.0000000000   0.0000000000   0.6437492767
	    P   0.0000000000   0.0000000000  -0.5610878442


    Structure for next step:
    Molecular point group: c2v
    Full point group: C_inf_v

    Geometry (in Angstrom), charge = 1, multiplicity = 2:

    AL           0.000000000000     0.000000000000     0.643915878136
    P            0.000000000000     0.000000000000    -0.560921242853


Scratch directory: /tmp/
gradient() will perform analytic gradient computation.
   => Libint2 <=

    Primary   basis highest AM E, G, H:  6, 6, 3
    Auxiliary basis highest AM E, G, H:  7, 7, 4
    Onebody   basis highest AM E, G, H:  -, -, -
    Solid Harmonics ordering:            Gaussian

*** tstart() called on Joses-MacBook-Pro-2.local
*** at Thu Jul 17 15:17:20 2025

   => Loading Basis Set <=

    Name: CC-PVDZ
    Role: ORBITAL
    Keyword: BASIS
    atoms 1 entry AL         line   418 file /Users/joseantoniorodriguesromero/anaconda3/share/psi4/basis/cc-pvdz.gbs 
    atoms 2 entry P          line   538 file /Users/joseantoniorodriguesromero/anaconda3/share/psi4/basis/cc-pvdz.gbs 


         ---------------------------------------------------------
                                   SCF
               by Justin Turney, Rob Parrish, Andy Simmonett
                          and Daniel G. A. Smith
                              UKS Reference
                        1 Threads,    500 MiB Core
         ---------------------------------------------------------

  ==> Geometry <==

    Molecular point group: c2v
    Full point group: C_inf_v

    Geometry (in Angstrom), charge = 1, multiplicity = 2:

       Center              X                  Y                   Z               Mass       
    ------------   -----------------  -----------------  -----------------  -----------------
         AL           0.000000000000     0.000000000000     0.643915878136    26.981538530000
         P            0.000000000000     0.000000000000    -0.560921242853    30.973761998420

  Running in c2v symmetry.

  Rotational constants: A = ************  B =      0.80533  C =      0.80533 [cm^-1]
  Rotational constants: A = ************  B =  24143.09899  C =  24143.09899 [MHz]
  Nuclear repulsion =   85.646063092691605

  Charge       = 1
  Multiplicity = 2
  Electrons    = 27
  Nalpha       = 14
  Nbeta        = 13

  ==> Algorithm <==

  SCF Algorithm Type is DF.
  DIIS enabled.
  MOM disabled.
  Fractional occupation disabled.
  Guess Type is READ.
  Energy threshold   = 1.00e-08
  Density threshold  = 1.00e-08
  Integral threshold = 1.00e-12

  ==> Primary Basis <==

  Basis Set: CC-PVDZ
    Blend: CC-PVDZ
    Number of shells: 16
    Number of basis functions: 36
    Number of Cartesian functions: 38
    Spherical Harmonics?: true
    Max angular momentum: 2

  ==> DFT Potential <==

   => LibXC <=

    Version 6.2.2
    S. Lehtola, C. Steigemann, M. J.T. Oliveira, and M. A.L. Marques.,  SoftwareX 7, 1–5 (2018) (10.1016/j.softx.2017.11.002)

   => Composite Functional: B3LYP <= 

    B3LYP Hyb-GGA Exchange-Correlation Functional

    P. J. Stephens, F. J. Devlin, C. F. Chabalowski, and M. J. Frisch.,  J. Phys. Chem. 98, 11623 (1994) (10.1021/j100096a001)

    Deriv               =              1
    GGA                 =           TRUE
    Meta                =          FALSE

    Exchange Hybrid     =           TRUE
    MP2 Hybrid          =          FALSE

   => Exchange Functionals <=

    0.0800   Slater exchange
    0.7200         Becke 88

   => Exact (HF) Exchange <=

    0.2000               HF 

   => Correlation Functionals <=

    0.1900   Vosko, Wilk & Nusair (VWN5_RPA)
    0.8100   Lee, Yang & Parr

   => LibXC Density Thresholds  <==

    XC_HYB_GGA_XC_B3LYP:  1.00E-15 

   => Molecular Quadrature <=

    Radial Scheme          =       TREUTLER
    Pruning Scheme         =           NONE
    Nuclear Scheme         =       TREUTLER

    Blocking Scheme        =         OCTREE
    BS radius alpha        =              1
    Pruning alpha          =              1
    Radial Points          =             75
    Spherical Points       =            302
    Total Points           =          42559
    Total Blocks           =            402
    Max Points             =            254
    Max Functions          =             36
    Weights Tolerance      =       1.00E-15

   => Loading Basis Set <=

    Name: (CC-PVDZ AUX)
    Role: JKFIT
    Keyword: DF_BASIS_SCF
    atoms 1 entry AL         line   371 file /Users/joseantoniorodriguesromero/anaconda3/share/psi4/basis/cc-pvdz-jkfit.gbs 
    atoms 2 entry P          line   519 file /Users/joseantoniorodriguesromero/anaconda3/share/psi4/basis/cc-pvdz-jkfit.gbs 

   => Loading Basis Set <=

    Name: CC-PVDZ
    Role: ORBITAL
    Keyword: BASIS
    atoms 1 entry AL         line   418 file /Users/joseantoniorodriguesromero/anaconda3/share/psi4/basis/cc-pvdz.gbs 
    atoms 2 entry P          line   538 file /Users/joseantoniorodriguesromero/anaconda3/share/psi4/basis/cc-pvdz.gbs 

  Reading orbitals from file /tmp/doublet_AlP.default.75231.180.npy, no projection.

  ==> Integral Setup <==

  DFHelper Memory: AOs need 0.003 GiB; user supplied 0.323 GiB. 
  Using in-core AOs.

  ==> MemDFJK: Density-Fitted J/K Matrices <==

    J tasked:                   Yes
    K tasked:                   Yes
    wK tasked:                   No
    OpenMP threads:               1
    Memory [MiB]:               330
    Algorithm:                 Core
    Schwarz Cutoff:           1E-12
    Mask sparsity (%):       0.0000
    Fitting Condition:        1E-10

   => Auxiliary Basis Set <=

  Basis Set: (CC-PVDZ AUX)
    Blend: CC-PVDZ-JKFIT
    Number of shells: 72
    Number of basis functions: 224
    Number of Cartesian functions: 260
    Spherical Harmonics?: true
    Max angular momentum: 3

  Cached 100.0% of DFT collocation blocks in 0.044 [GiB].

  Minimum eigenvalue in the overlap matrix is 3.6337528783E-03.
  Reciprocal condition number of the overlap matrix is 1.1275402714E-03.
    Using symmetric orthogonalization.

  ==> Pre-Iterations <==

  SCF Guess: Orbitals guess was supplied from a previous computation.

   -------------------------------------------------------
    Irrep   Nso     Nmo     Nalpha   Nbeta   Ndocc  Nsocc
   -------------------------------------------------------
     A1        18      18       8       7       7       1
     A2         2       2       0       0       0       0
     B1         8       8       3       3       3       0
     B2         8       8       3       3       3       0
   -------------------------------------------------------
    Total      36      36      14      13      13       1
   -------------------------------------------------------

  ==> Iterations <==

                           Total Energy        Delta E     RMS |[F,P]|

   @DF-UKS iter   0:  -582.34439121084893   -5.82344e+02   1.25184e-03 
   @DF-UKS iter   1:  -582.34810130832966   -3.71010e-03   6.11081e-05 DIIS
   @DF-UKS iter   2:  -582.34810051416059    7.94169e-07   7.02155e-05 DIIS/DAMP=1%
   @DF-UKS iter   3:  -582.34814427986623   -4.37657e-05   9.83307e-06 DIIS/DAMP=1%
   @DF-UKS iter   4:  -582.34809872284700    4.55570e-05   1.19208e-06 DIIS/DAMP=1%
   @DF-UKS iter   5:  -582.34810199393007   -3.27108e-06   3.41513e-07 DIIS/DAMP=1%
   @DF-UKS iter   6:  -582.34810284387368   -8.49944e-07   1.23368e-07 DIIS/DAMP=1%
   @DF-UKS iter   7:  -582.34810223480770    6.09066e-07   1.88365e-08 DIIS/DAMP=1%
   @DF-UKS iter   8:  -582.34810242473941   -1.89932e-07   4.29209e-09 DIIS/DAMP=1%
   @DF-UKS iter   9:  -582.34810241616822    8.57119e-09   1.40242e-10 DIIS/DAMP=1%
  Energy and wave function converged.


  ==> Post-Iterations <==

   Electrons on quadrature grid:
      Nalpha   =   13.9999982037 ; deviation = -1.796e-06
      Nbeta    =   12.9999981747 ; deviation = -1.825e-06
      Ntotal   =   26.9999963784 ; deviation = -3.622e-06 

   @Spin Contamination Metric:   5.425451211E-03
   @S^2 Expected:                7.500000000E-01
   @S^2 Observed:                7.554254512E-01
   @S   Expected:                5.000000000E-01
   @S   Observed:                5.000000000E-01

    Orbital Energies [Eh]
    ---------------------

    Alpha Occupied:                                                       

       1A1   -77.419264     2A1   -56.490895     3A1    -6.948587  
       4A1    -5.149188     1B1    -5.080054     1B2    -5.080054  
       5A1    -4.640642     6A1    -3.231256     2B2    -3.161346  
       2B1    -3.161346     7A1    -0.883316     8A1    -0.570604  
       3B2    -0.568485     3B1    -0.568485  

    Alpha Virtual:                                                        

       9A1    -0.357963     4B2    -0.223901     4B1    -0.223901  
      10A1    -0.123168     5B2    -0.051656     5B1    -0.051656  
       1A2    -0.046747    11A1    -0.046746    12A1    -0.043194  
       6B2     0.085714     6B1     0.085714    13A1     0.099345  
      14A1     0.131098     7B2     0.281917     7B1     0.281917  
       2A2     0.338406    15A1     0.338408    16A1     0.353045  
       8B2     0.595200     8B1     0.595200    17A1     0.775788  
      18A1     1.472690  

    Beta Occupied:                                                        

       1A1   -77.416630     2A1   -56.487414     3A1    -6.945803  
       4A1    -5.140889     1B1    -5.078356     1B2    -5.078356  
       5A1    -4.635135     6A1    -3.227564     2B2    -3.157227  
       2B1    -3.157227     7A1    -0.862727     3B2    -0.561520  
       3B1    -0.561520  

    Beta Virtual:                                                         

       8A1    -0.465260     9A1    -0.308946     4B2    -0.198871  
       4B1    -0.198871    10A1    -0.117223     5B2    -0.042676  
       5B1    -0.042676     1A2    -0.035746    11A1    -0.035745  
      12A1    -0.028238     6B2     0.108280     6B1     0.108280  
      13A1     0.130927    14A1     0.146377     7B2     0.297100  
       7B1     0.297100     2A2     0.350411    15A1     0.350413  
      16A1     0.375609     8B2     0.617061     8B1     0.617061  
      17A1     0.796421    18A1     1.482697  

    Final Occupation by Irrep:
             A1    A2    B1    B2 
    DOCC [     7,    0,    3,    3 ]
    SOCC [     1,    0,    0,    0 ]
    NA   [     8,    0,    3,    3 ]
    NB   [     7,    0,    3,    3 ]

  @DF-UKS Final Energy:  -582.34810241616822

   => Energetics <=

    Nuclear Repulsion Energy =             85.6460630926916053
    One-Electron Energy =                -966.5857936242832693
    Two-Electron Energy =                 332.4849654523922027
    DFT Exchange-Correlation Energy =     -33.8933373369687487
    Empirical Dispersion Energy =           0.0000000000000000
    VV10 Nonlocal Energy =                  0.0000000000000000
    Total Energy =                       -582.3481024161682171

  UHF NO Occupations:
  HONO-2 :    3 B2 1.9996222
  HONO-1 :    7 A1 1.9980418
  HONO-0 :    8 A1 1.0000000
  LUNO+0 :    9 A1 0.0019582
  LUNO+1 :    4 B2 0.0003778
  LUNO+2 :    4 B1 0.0003778
  LUNO+3 :   10 A1 0.0000004


Computation Completed


Properties will be evaluated at   0.000000,   0.000000,   0.000000 [a0]

Properties computed using the SCF density matrix


 Multipole Moments:

 ------------------------------------------------------------------------------------
     Multipole            Electronic (a.u.)      Nuclear  (a.u.)        Total (a.u.)
 ------------------------------------------------------------------------------------

 L = 1.  Multiply by 2.5417464519 to convert [e a0] to [Debye]
 Dipole X            :          0.0000000            0.0000000            0.0000000
 Dipole Y            :          0.0000000            0.0000000            0.0000000
 Dipole Z            :          1.0895783           -0.0810924            1.0084860
 Magnitude           :                                                    1.0084860

 ------------------------------------------------------------------------------------

*** tstop() called on Joses-MacBook-Pro-2.local at Thu Jul 17 15:17:21 2025
Module time:
	user time   =       8.94 seconds =       0.15 minutes
	system time =       1.78 seconds =       0.03 minutes
	total time  =          1 seconds =       0.02 minutes
Total time:
	user time   =      29.42 seconds =       0.49 minutes
	system time =       4.97 seconds =       0.08 minutes
	total time  =          3 seconds =       0.05 minutes

*** tstart() called on Joses-MacBook-Pro-2.local
*** at Thu Jul 17 15:17:21 2025


         ------------------------------------------------------------
                                   SCF GRAD                          
                          Rob Parrish, Justin Turney,                
                       Andy Simmonett, and Alex Sokolov              
         ------------------------------------------------------------

  ==> Geometry <==

    Molecular point group: c2v
    Full point group: C_inf_v

    Geometry (in Angstrom), charge = 1, multiplicity = 2:

       Center              X                  Y                   Z               Mass       
    ------------   -----------------  -----------------  -----------------  -----------------
         AL           0.000000000000     0.000000000000     0.643915878136    26.981538530000
         P            0.000000000000     0.000000000000    -0.560921242853    30.973761998420

  Nuclear repulsion =   85.646063092691605

  ==> Basis Set <==

  Basis Set: CC-PVDZ
    Blend: CC-PVDZ
    Number of shells: 16
    Number of basis functions: 36
    Number of Cartesian functions: 38
    Spherical Harmonics?: true
    Max angular momentum: 2

  ==> DFJKGrad: Density-Fitted SCF Gradients <==

    Gradient:                    1
    J tasked:                  Yes
    K tasked:                  Yes
    wK tasked:                  No
    OpenMP threads:              1
    Integrals threads:           1
    Memory [MiB]:              375
    Schwarz Cutoff:          1E-12
    Fitting Condition:       1E-10

   => Auxiliary Basis Set <=

  Basis Set: (CC-PVDZ AUX)
    Blend: CC-PVDZ-JKFIT
    Number of shells: 72
    Number of basis functions: 224
    Number of Cartesian functions: 260
    Spherical Harmonics?: true
    Max angular momentum: 3

  ==> DFT Potential <==

   => LibXC <=

    Version 6.2.2
    S. Lehtola, C. Steigemann, M. J.T. Oliveira, and M. A.L. Marques.,  SoftwareX 7, 1–5 (2018) (10.1016/j.softx.2017.11.002)

   => Composite Functional: B3LYP <= 

    B3LYP Hyb-GGA Exchange-Correlation Functional

    P. J. Stephens, F. J. Devlin, C. F. Chabalowski, and M. J. Frisch.,  J. Phys. Chem. 98, 11623 (1994) (10.1021/j100096a001)

    Deriv               =              1
    GGA                 =           TRUE
    Meta                =          FALSE

    Exchange Hybrid     =           TRUE
    MP2 Hybrid          =          FALSE

   => Exchange Functionals <=

    0.0800   Slater exchange
    0.7200         Becke 88

   => Exact (HF) Exchange <=

    0.2000               HF 

   => Correlation Functionals <=

    0.1900   Vosko, Wilk & Nusair (VWN5_RPA)
    0.8100   Lee, Yang & Parr

   => LibXC Density Thresholds  <==

    XC_HYB_GGA_XC_B3LYP:  1.00E-15 

   => Molecular Quadrature <=

    Radial Scheme          =       TREUTLER
    Pruning Scheme         =           NONE
    Nuclear Scheme         =       TREUTLER

    Blocking Scheme        =         OCTREE
    BS radius alpha        =              1
    Pruning alpha          =              1
    Radial Points          =             75
    Spherical Points       =            302
    Total Points           =          42559
    Total Blocks           =            402
    Max Points             =            254
    Max Functions          =             36
    Weights Tolerance      =       1.00E-15


  -Total Gradient:
     Atom            X                  Y                   Z
    ------   -----------------  -----------------  -----------------
       1        0.000000000000    -0.000000000000    -1.959558788041
       2        0.000000000000    -0.000000000000     1.959532717774


*** tstop() called on Joses-MacBook-Pro-2.local at Thu Jul 17 15:17:22 2025
Module time:
	user time   =       2.39 seconds =       0.04 minutes
	system time =       1.22 seconds =       0.02 minutes
	total time  =          1 seconds =       0.02 minutes
Total time:
	user time   =      31.81 seconds =       0.53 minutes
	system time =       6.19 seconds =       0.10 minutes
	total time  =          4 seconds =       0.07 minutes

    			-----------------------------------------

    			 OPTKING 3.0: for geometry optimizations 

    			     By R.A. King, Bethel University     

    			        with contributions from          

    			    A.V. Copan, J. Cayton, A. Heide      

    			-----------------------------------------

    
	                            ===> Fragment 1 <== 

	 Z (Atomic Numbers)          Masses                          Geom                  
	      13.000000            26.981539          0.00000000  0.00000000  1.21682466   
	      15.000000            30.973762          0.00000000  0.00000000 -1.05998753   

	 - Coordinate -           - BOHR/RAD -       - ANG/DEG -
	 R(1,2)           =         2.276812           1.204837


	        --- Internal Coordinate Step in ANG or DEG, aJ/ANG or AJ/DEG ---
	-------------------------------------------------------------------------------
	           Coordinate      Previous         Force          Change          New 
	           ----------      --------        ------          ------        ------
	               R(1,2)       1.20484       16.14416        0.00952       1.21436
	-------------------------------------------------------------------------------

	                                 ==> Convergence Check <==                                  
    
	Measures of convergence in internal coordinates in au.
    
	Criteria marked as inactive (o), active & met (*), and active & unmet ( ).

	----------------------------------------------------------------------------------------------
	   Step    Total Energy     Delta E     Max Force     RMS Force      Max Disp      RMS Disp   
	----------------------------------------------------------------------------------------------
	  Convergence Criteria     1.00e-06 *    3.00e-04 *             o    1.20e-03 *             o
	----------------------------------------------------------------------------------------------
	     2    -582.34810242   -1.81e-02      1.96e+00      1.96e+00 o    1.80e-02      1.80e-02 o  ~
	----------------------------------------------------------------------------------------------

Next Geometry in Ang 
	Fragment 1 (Ang)

	   Al   0.0000000000   0.0000000000   0.6486748616
	    P   0.0000000000   0.0000000000  -0.5656802263


    Structure for next step:
    Molecular point group: c2v
    Full point group: C_inf_v

    Geometry (in Angstrom), charge = 1, multiplicity = 2:

    AL           0.000000000000     0.000000000000     0.649002681896
    P            0.000000000000     0.000000000000    -0.565352405967


Scratch directory: /tmp/
gradient() will perform analytic gradient computation.
   => Libint2 <=

    Primary   basis highest AM E, G, H:  6, 6, 3
    Auxiliary basis highest AM E, G, H:  7, 7, 4
    Onebody   basis highest AM E, G, H:  -, -, -
    Solid Harmonics ordering:            Gaussian

*** tstart() called on Joses-MacBook-Pro-2.local
*** at Thu Jul 17 15:17:22 2025

   => Loading Basis Set <=

    Name: CC-PVDZ
    Role: ORBITAL
    Keyword: BASIS
    atoms 1 entry AL         line   418 file /Users/joseantoniorodriguesromero/anaconda3/share/psi4/basis/cc-pvdz.gbs 
    atoms 2 entry P          line   538 file /Users/joseantoniorodriguesromero/anaconda3/share/psi4/basis/cc-pvdz.gbs 


         ---------------------------------------------------------
                                   SCF
               by Justin Turney, Rob Parrish, Andy Simmonett
                          and Daniel G. A. Smith
                              UKS Reference
                        1 Threads,    500 MiB Core
         ---------------------------------------------------------

  ==> Geometry <==

    Molecular point group: c2v
    Full point group: C_inf_v

    Geometry (in Angstrom), charge = 1, multiplicity = 2:

       Center              X                  Y                   Z               Mass       
    ------------   -----------------  -----------------  -----------------  -----------------
         AL           0.000000000000     0.000000000000     0.649002681896    26.981538530000
         P            0.000000000000     0.000000000000    -0.565352405967    30.973761998420

  Running in c2v symmetry.

  Rotational constants: A = ************  B =      0.79275  C =      0.79275 [cm^-1]
  Rotational constants: A = ************  B =  23766.12084  C =  23766.12084 [MHz]
  Nuclear repulsion =   84.974779709771468

  Charge       = 1
  Multiplicity = 2
  Electrons    = 27
  Nalpha       = 14
  Nbeta        = 13

  ==> Algorithm <==

  SCF Algorithm Type is DF.
  DIIS enabled.
  MOM disabled.
  Fractional occupation disabled.
  Guess Type is READ.
  Energy threshold   = 1.00e-08
  Density threshold  = 1.00e-08
  Integral threshold = 1.00e-12

  ==> Primary Basis <==

  Basis Set: CC-PVDZ
    Blend: CC-PVDZ
    Number of shells: 16
    Number of basis functions: 36
    Number of Cartesian functions: 38
    Spherical Harmonics?: true
    Max angular momentum: 2

  ==> DFT Potential <==

   => LibXC <=

    Version 6.2.2
    S. Lehtola, C. Steigemann, M. J.T. Oliveira, and M. A.L. Marques.,  SoftwareX 7, 1–5 (2018) (10.1016/j.softx.2017.11.002)

   => Composite Functional: B3LYP <= 

    B3LYP Hyb-GGA Exchange-Correlation Functional

    P. J. Stephens, F. J. Devlin, C. F. Chabalowski, and M. J. Frisch.,  J. Phys. Chem. 98, 11623 (1994) (10.1021/j100096a001)

    Deriv               =              1
    GGA                 =           TRUE
    Meta                =          FALSE

    Exchange Hybrid     =           TRUE
    MP2 Hybrid          =          FALSE

   => Exchange Functionals <=

    0.0800   Slater exchange
    0.7200         Becke 88

   => Exact (HF) Exchange <=

    0.2000               HF 

   => Correlation Functionals <=

    0.1900   Vosko, Wilk & Nusair (VWN5_RPA)
    0.8100   Lee, Yang & Parr

   => LibXC Density Thresholds  <==

    XC_HYB_GGA_XC_B3LYP:  1.00E-15 

   => Molecular Quadrature <=

    Radial Scheme          =       TREUTLER
    Pruning Scheme         =           NONE
    Nuclear Scheme         =       TREUTLER

    Blocking Scheme        =         OCTREE
    BS radius alpha        =              1
    Pruning alpha          =              1
    Radial Points          =             75
    Spherical Points       =            302
    Total Points           =          42559
    Total Blocks           =            401
    Max Points             =            254
    Max Functions          =             36
    Weights Tolerance      =       1.00E-15

   => Loading Basis Set <=

    Name: (CC-PVDZ AUX)
    Role: JKFIT
    Keyword: DF_BASIS_SCF
    atoms 1 entry AL         line   371 file /Users/joseantoniorodriguesromero/anaconda3/share/psi4/basis/cc-pvdz-jkfit.gbs 
    atoms 2 entry P          line   519 file /Users/joseantoniorodriguesromero/anaconda3/share/psi4/basis/cc-pvdz-jkfit.gbs 

   => Loading Basis Set <=

    Name: CC-PVDZ
    Role: ORBITAL
    Keyword: BASIS
    atoms 1 entry AL         line   418 file /Users/joseantoniorodriguesromero/anaconda3/share/psi4/basis/cc-pvdz.gbs 
    atoms 2 entry P          line   538 file /Users/joseantoniorodriguesromero/anaconda3/share/psi4/basis/cc-pvdz.gbs 

  Reading orbitals from file /tmp/doublet_AlP.default.75231.180.npy, no projection.

  ==> Integral Setup <==

  DFHelper Memory: AOs need 0.003 GiB; user supplied 0.323 GiB. 
  Using in-core AOs.

  ==> MemDFJK: Density-Fitted J/K Matrices <==

    J tasked:                   Yes
    K tasked:                   Yes
    wK tasked:                   No
    OpenMP threads:               1
    Memory [MiB]:               330
    Algorithm:                 Core
    Schwarz Cutoff:           1E-12
    Mask sparsity (%):       0.0000
    Fitting Condition:        1E-10

   => Auxiliary Basis Set <=

  Basis Set: (CC-PVDZ AUX)
    Blend: CC-PVDZ-JKFIT
    Number of shells: 72
    Number of basis functions: 224
    Number of Cartesian functions: 260
    Spherical Harmonics?: true
    Max angular momentum: 3

  Cached 100.0% of DFT collocation blocks in 0.044 [GiB].

  Minimum eigenvalue in the overlap matrix is 3.7007509731E-03.
  Reciprocal condition number of the overlap matrix is 1.1484450739E-03.
    Using symmetric orthogonalization.

  ==> Pre-Iterations <==

  SCF Guess: Orbitals guess was supplied from a previous computation.

   -------------------------------------------------------
    Irrep   Nso     Nmo     Nalpha   Nbeta   Ndocc  Nsocc
   -------------------------------------------------------
     A1        18      18       8       7       7       1
     A2         2       2       0       0       0       0
     B1         8       8       3       3       3       0
     B2         8       8       3       3       3       0
   -------------------------------------------------------
    Total      36      36      14      13      13       1
   -------------------------------------------------------

  ==> Iterations <==

                           Total Energy        Delta E     RMS |[F,P]|

   @DF-UKS iter   0:  -582.37554185777606   -5.82376e+02   2.45126e-03 
   @DF-UKS iter   1:  -582.38279290537082   -7.25105e-03   1.18526e-04 DIIS/ADIIS
   @DF-UKS iter   2:  -582.38278979749987    3.10787e-06   1.37501e-04 DIIS/ADIIS/DAMP=1%
   @DF-UKS iter   3:  -582.38287807560505   -8.82781e-05   1.91135e-05 DIIS/DAMP=1%
   @DF-UKS iter   4:  -582.38278915036688    8.89252e-05   2.36312e-06 DIIS/DAMP=1%
   @DF-UKS iter   5:  -582.38279691918660   -7.76882e-06   5.49511e-07 DIIS/DAMP=1%
   @DF-UKS iter   6:  -582.38279760597027   -6.86784e-07   2.24375e-07 DIIS/DAMP=1%
   @DF-UKS iter   7:  -582.38279678032245    8.25648e-07   3.94900e-08 DIIS/DAMP=1%
   @DF-UKS iter   8:  -582.38279714310556   -3.62783e-07   8.32033e-09 DIIS/DAMP=1%
   @DF-UKS iter   9:  -582.38279711873884    2.43667e-08   4.29311e-10 DIIS/DAMP=1%
   @DF-UKS iter  10:  -582.38279712300698   -4.26814e-09   7.52927e-11 DIIS/DAMP=1%
  Energy and wave function converged.


  ==> Post-Iterations <==

   Electrons on quadrature grid:
      Nalpha   =   13.9999982179 ; deviation = -1.782e-06
      Nbeta    =   12.9999981900 ; deviation = -1.810e-06
      Ntotal   =   26.9999964080 ; deviation = -3.592e-06 

   @Spin Contamination Metric:   5.423561528E-03
   @S^2 Expected:                7.500000000E-01
   @S^2 Observed:                7.554235615E-01
   @S   Expected:                5.000000000E-01
   @S   Observed:                5.000000000E-01

    Orbital Energies [Eh]
    ---------------------

    Alpha Occupied:                                                       

       1A1   -77.414616     2A1   -56.484804     3A1    -6.942301  
       4A1    -5.141704     1B1    -5.074773     1B2    -5.074773  
       5A1    -4.633502     6A1    -3.223720     2B1    -3.154842  
       2B2    -3.154842     7A1    -0.883068     8A1    -0.570858  
       3B2    -0.566316     3B1    -0.566316  

    Alpha Virtual:                                                        

       9A1    -0.359729     4B2    -0.224277     4B1    -0.224277  
      10A1    -0.123591     5B1    -0.051230     5B2    -0.051230  
       1A2    -0.045388    11A1    -0.045387    12A1    -0.043211  
       6B2     0.085070     6B1     0.085070    13A1     0.097910  
      14A1     0.128573     7B1     0.281695     7B2     0.281695  
       2A2     0.337863    15A1     0.337864    16A1     0.351542  
       8B2     0.594346     8B1     0.594346    17A1     0.769664  
      18A1     1.441413  

    Beta Occupied:                                                        

       1A1   -77.411945     2A1   -56.481334     3A1    -6.939456  
       4A1    -5.133328     1B1    -5.073039     1B2    -5.073039  
       5A1    -4.627985     6A1    -3.220084     2B1    -3.150733  
       2B2    -3.150733     7A1    -0.862489     3B2    -0.559283  
       3B1    -0.559283  

    Beta Virtual:                                                         

       8A1    -0.465546     9A1    -0.310826     4B1    -0.199359  
       4B2    -0.199359    10A1    -0.117601     5B1    -0.042220  
       5B2    -0.042220     1A2    -0.034388    11A1    -0.034387  
      12A1    -0.028382     6B2     0.107629     6B1     0.107629  
      13A1     0.129251    14A1     0.143907     7B1     0.296733  
       7B2     0.296733     2A2     0.349885    15A1     0.349887  
      16A1     0.374451     8B2     0.616411     8B1     0.616411  
      17A1     0.790257    18A1     1.451542  

    Final Occupation by Irrep:
             A1    A2    B1    B2 
    DOCC [     7,    0,    3,    3 ]
    SOCC [     1,    0,    0,    0 ]
    NA   [     8,    0,    3,    3 ]
    NB   [     7,    0,    3,    3 ]

  @DF-UKS Final Energy:  -582.38279712300698

   => Energetics <=

    Nuclear Repulsion Energy =             84.9747797097714681
    One-Electron Energy =                -965.4514557059762865
    Two-Electron Energy =                 331.9811983270973883
    DFT Exchange-Correlation Energy =     -33.8873194538996643
    Empirical Dispersion Energy =           0.0000000000000000
    VV10 Nonlocal Energy =                  0.0000000000000000
    Total Energy =                       -582.3827971230070943

  UHF NO Occupations:
  HONO-2 :    3 B1 1.9996234
  HONO-1 :    7 A1 1.9980403
  HONO-0 :    8 A1 1.0000000
  LUNO+0 :    9 A1 0.0019597
  LUNO+1 :    4 B2 0.0003766
  LUNO+2 :    4 B1 0.0003766
  LUNO+3 :   10 A1 0.0000004


Computation Completed


Properties will be evaluated at   0.000000,   0.000000,   0.000000 [a0]

Properties computed using the SCF density matrix


 Multipole Moments:

 ------------------------------------------------------------------------------------
     Multipole            Electronic (a.u.)      Nuclear  (a.u.)        Total (a.u.)
 ------------------------------------------------------------------------------------

 L = 1.  Multiply by 2.5417464519 to convert [e a0] to [Debye]
 Dipole X            :          0.0000000            0.0000000            0.0000000
 Dipole Y            :          0.0000000            0.0000000            0.0000000
 Dipole Z            :          1.1052315           -0.0817330            1.0234986
 Magnitude           :                                                    1.0234986

 ------------------------------------------------------------------------------------

*** tstop() called on Joses-MacBook-Pro-2.local at Thu Jul 17 15:17:23 2025
Module time:
	user time   =       9.68 seconds =       0.16 minutes
	system time =       1.85 seconds =       0.03 minutes
	total time  =          1 seconds =       0.02 minutes
Total time:
	user time   =      41.57 seconds =       0.69 minutes
	system time =       8.24 seconds =       0.14 minutes
	total time  =          5 seconds =       0.08 minutes

*** tstart() called on Joses-MacBook-Pro-2.local
*** at Thu Jul 17 15:17:23 2025


         ------------------------------------------------------------
                                   SCF GRAD                          
                          Rob Parrish, Justin Turney,                
                       Andy Simmonett, and Alex Sokolov              
         ------------------------------------------------------------

  ==> Geometry <==

    Molecular point group: c2v
    Full point group: C_inf_v

    Geometry (in Angstrom), charge = 1, multiplicity = 2:

       Center              X                  Y                   Z               Mass       
    ------------   -----------------  -----------------  -----------------  -----------------
         AL           0.000000000000     0.000000000000     0.649002681896    26.981538530000
         P            0.000000000000     0.000000000000    -0.565352405967    30.973761998420

  Nuclear repulsion =   84.974779709771468

  ==> Basis Set <==

  Basis Set: CC-PVDZ
    Blend: CC-PVDZ
    Number of shells: 16
    Number of basis functions: 36
    Number of Cartesian functions: 38
    Spherical Harmonics?: true
    Max angular momentum: 2

  ==> DFJKGrad: Density-Fitted SCF Gradients <==

    Gradient:                    1
    J tasked:                  Yes
    K tasked:                  Yes
    wK tasked:                  No
    OpenMP threads:              1
    Integrals threads:           1
    Memory [MiB]:              375
    Schwarz Cutoff:          1E-12
    Fitting Condition:       1E-10

   => Auxiliary Basis Set <=

  Basis Set: (CC-PVDZ AUX)
    Blend: CC-PVDZ-JKFIT
    Number of shells: 72
    Number of basis functions: 224
    Number of Cartesian functions: 260
    Spherical Harmonics?: true
    Max angular momentum: 3

  ==> DFT Potential <==

   => LibXC <=

    Version 6.2.2
    S. Lehtola, C. Steigemann, M. J.T. Oliveira, and M. A.L. Marques.,  SoftwareX 7, 1–5 (2018) (10.1016/j.softx.2017.11.002)

   => Composite Functional: B3LYP <= 

    B3LYP Hyb-GGA Exchange-Correlation Functional

    P. J. Stephens, F. J. Devlin, C. F. Chabalowski, and M. J. Frisch.,  J. Phys. Chem. 98, 11623 (1994) (10.1021/j100096a001)

    Deriv               =              1
    GGA                 =           TRUE
    Meta                =          FALSE

    Exchange Hybrid     =           TRUE
    MP2 Hybrid          =          FALSE

   => Exchange Functionals <=

    0.0800   Slater exchange
    0.7200         Becke 88

   => Exact (HF) Exchange <=

    0.2000               HF 

   => Correlation Functionals <=

    0.1900   Vosko, Wilk & Nusair (VWN5_RPA)
    0.8100   Lee, Yang & Parr

   => LibXC Density Thresholds  <==

    XC_HYB_GGA_XC_B3LYP:  1.00E-15 

   => Molecular Quadrature <=

    Radial Scheme          =       TREUTLER
    Pruning Scheme         =           NONE
    Nuclear Scheme         =       TREUTLER

    Blocking Scheme        =         OCTREE
    BS radius alpha        =              1
    Pruning alpha          =              1
    Radial Points          =             75
    Spherical Points       =            302
    Total Points           =          42559
    Total Blocks           =            401
    Max Points             =            254
    Max Functions          =             36
    Weights Tolerance      =       1.00E-15


  -Total Gradient:
     Atom            X                  Y                   Z
    ------   -----------------  -----------------  -----------------
       1        0.000000000000     0.000000000000    -1.898771873480
       2        0.000000000000    -0.000000000000     1.898759247871


*** tstop() called on Joses-MacBook-Pro-2.local at Thu Jul 17 15:17:23 2025
Module time:
	user time   =       2.93 seconds =       0.05 minutes
	system time =       0.86 seconds =       0.01 minutes
	total time  =          0 seconds =       0.00 minutes
Total time:
	user time   =      44.51 seconds =       0.74 minutes
	system time =       9.10 seconds =       0.15 minutes
	total time  =          5 seconds =       0.08 minutes

    			-----------------------------------------

    			 OPTKING 3.0: for geometry optimizations 

    			     By R.A. King, Bethel University     

    			        with contributions from          

    			    A.V. Copan, J. Cayton, A. Heide      

    			-----------------------------------------

    
	                            ===> Fragment 1 <== 

	 Z (Atomic Numbers)          Masses                          Geom                  
	      13.000000            26.981539          0.00000000  0.00000000  1.22643732   
	      15.000000            30.973762          0.00000000  0.00000000 -1.06836121   

	 - Coordinate -           - BOHR/RAD -       - ANG/DEG -
	 R(1,2)           =         2.294799           1.214355


	        --- Internal Coordinate Step in ANG or DEG, aJ/ANG or AJ/DEG ---
	-------------------------------------------------------------------------------
	           Coordinate      Previous         Force          Change          New 
	           ----------      --------        ------          ------        ------
	               R(1,2)       1.21436       15.64340        0.03673       1.25108
	-------------------------------------------------------------------------------

	                                 ==> Convergence Check <==                                  
    
	Measures of convergence in internal coordinates in au.
    
	Criteria marked as inactive (o), active & met (*), and active & unmet ( ).

	----------------------------------------------------------------------------------------------
	   Step    Total Energy     Delta E     Max Force     RMS Force      Max Disp      RMS Disp   
	----------------------------------------------------------------------------------------------
	  Convergence Criteria     1.00e-06 *    3.00e-04 *             o    1.20e-03 *             o
	----------------------------------------------------------------------------------------------
	     3    -582.38279712   -3.47e-02      1.90e+00      1.90e+00 o    6.94e-02      6.94e-02 o  ~
	----------------------------------------------------------------------------------------------

Next Geometry in Ang 
	Fragment 1 (Ang)

	   Al   0.0000000000   0.0000000000   0.6673652678
	    P   0.0000000000   0.0000000000  -0.5837149918


    Structure for next step:
    Molecular point group: c2v
    Full point group: C_inf_v

    Geometry (in Angstrom), charge = 1, multiplicity = 2:

    AL           0.000000000000     0.000000000000     0.668630165822
    P            0.000000000000     0.000000000000    -0.582450093804


Scratch directory: /tmp/
gradient() will perform analytic gradient computation.
   => Libint2 <=

    Primary   basis highest AM E, G, H:  6, 6, 3
    Auxiliary basis highest AM E, G, H:  7, 7, 4
    Onebody   basis highest AM E, G, H:  -, -, -
    Solid Harmonics ordering:            Gaussian

*** tstart() called on Joses-MacBook-Pro-2.local
*** at Thu Jul 17 15:17:23 2025

   => Loading Basis Set <=

    Name: CC-PVDZ
    Role: ORBITAL
    Keyword: BASIS
    atoms 1 entry AL         line   418 file /Users/joseantoniorodriguesromero/anaconda3/share/psi4/basis/cc-pvdz.gbs 
    atoms 2 entry P          line   538 file /Users/joseantoniorodriguesromero/anaconda3/share/psi4/basis/cc-pvdz.gbs 


         ---------------------------------------------------------
                                   SCF
               by Justin Turney, Rob Parrish, Andy Simmonett
                          and Daniel G. A. Smith
                              UKS Reference
                        1 Threads,    500 MiB Core
         ---------------------------------------------------------

  ==> Geometry <==

    Molecular point group: c2v
    Full point group: C_inf_v

    Geometry (in Angstrom), charge = 1, multiplicity = 2:

       Center              X                  Y                   Z               Mass       
    ------------   -----------------  -----------------  -----------------  -----------------
         AL           0.000000000000     0.000000000000     0.668630165822    26.981538530000
         P            0.000000000000     0.000000000000    -0.582450093804    30.973761998420

  Running in c2v symmetry.

  Rotational constants: A = ************  B =      0.74689  C =      0.74689 [cm^-1]
  Rotational constants: A = ************  B =  22391.30220  C =  22391.30220 [MHz]
  Nuclear repulsion =   82.480364698191920

  Charge       = 1
  Multiplicity = 2
  Electrons    = 27
  Nalpha       = 14
  Nbeta        = 13

  ==> Algorithm <==

  SCF Algorithm Type is DF.
  DIIS enabled.
  MOM disabled.
  Fractional occupation disabled.
  Guess Type is READ.
  Energy threshold   = 1.00e-08
  Density threshold  = 1.00e-08
  Integral threshold = 1.00e-12

  ==> Primary Basis <==

  Basis Set: CC-PVDZ
    Blend: CC-PVDZ
    Number of shells: 16
    Number of basis functions: 36
    Number of Cartesian functions: 38
    Spherical Harmonics?: true
    Max angular momentum: 2

  ==> DFT Potential <==

   => LibXC <=

    Version 6.2.2
    S. Lehtola, C. Steigemann, M. J.T. Oliveira, and M. A.L. Marques.,  SoftwareX 7, 1–5 (2018) (10.1016/j.softx.2017.11.002)

   => Composite Functional: B3LYP <= 

    B3LYP Hyb-GGA Exchange-Correlation Functional

    P. J. Stephens, F. J. Devlin, C. F. Chabalowski, and M. J. Frisch.,  J. Phys. Chem. 98, 11623 (1994) (10.1021/j100096a001)

    Deriv               =              1
    GGA                 =           TRUE
    Meta                =          FALSE

    Exchange Hybrid     =           TRUE
    MP2 Hybrid          =          FALSE

   => Exchange Functionals <=

    0.0800   Slater exchange
    0.7200         Becke 88

   => Exact (HF) Exchange <=

    0.2000               HF 

   => Correlation Functionals <=

    0.1900   Vosko, Wilk & Nusair (VWN5_RPA)
    0.8100   Lee, Yang & Parr

   => LibXC Density Thresholds  <==

    XC_HYB_GGA_XC_B3LYP:  1.00E-15 

   => Molecular Quadrature <=

    Radial Scheme          =       TREUTLER
    Pruning Scheme         =           NONE
    Nuclear Scheme         =       TREUTLER

    Blocking Scheme        =         OCTREE
    BS radius alpha        =              1
    Pruning alpha          =              1
    Radial Points          =             75
    Spherical Points       =            302
    Total Points           =          42563
    Total Blocks           =            401
    Max Points             =            256
    Max Functions          =             36
    Weights Tolerance      =       1.00E-15

   => Loading Basis Set <=

    Name: (CC-PVDZ AUX)
    Role: JKFIT
    Keyword: DF_BASIS_SCF
    atoms 1 entry AL         line   371 file /Users/joseantoniorodriguesromero/anaconda3/share/psi4/basis/cc-pvdz-jkfit.gbs 
    atoms 2 entry P          line   519 file /Users/joseantoniorodriguesromero/anaconda3/share/psi4/basis/cc-pvdz-jkfit.gbs 

   => Loading Basis Set <=

    Name: CC-PVDZ
    Role: ORBITAL
    Keyword: BASIS
    atoms 1 entry AL         line   418 file /Users/joseantoniorodriguesromero/anaconda3/share/psi4/basis/cc-pvdz.gbs 
    atoms 2 entry P          line   538 file /Users/joseantoniorodriguesromero/anaconda3/share/psi4/basis/cc-pvdz.gbs 

  Reading orbitals from file /tmp/doublet_AlP.default.75231.180.npy, no projection.

  ==> Integral Setup <==

  DFHelper Memory: AOs need 0.003 GiB; user supplied 0.323 GiB. 
  Using in-core AOs.

  ==> MemDFJK: Density-Fitted J/K Matrices <==

    J tasked:                   Yes
    K tasked:                   Yes
    wK tasked:                   No
    OpenMP threads:               1
    Memory [MiB]:               330
    Algorithm:                 Core
    Schwarz Cutoff:           1E-12
    Mask sparsity (%):       0.0000
    Fitting Condition:        1E-10

   => Auxiliary Basis Set <=

  Basis Set: (CC-PVDZ AUX)
    Blend: CC-PVDZ-JKFIT
    Number of shells: 72
    Number of basis functions: 224
    Number of Cartesian functions: 260
    Spherical Harmonics?: true
    Max angular momentum: 3

  Cached 100.0% of DFT collocation blocks in 0.044 [GiB].

  Minimum eigenvalue in the overlap matrix is 3.9691000487E-03.
  Reciprocal condition number of the overlap matrix is 1.2322471300E-03.
    Using symmetric orthogonalization.

  ==> Pre-Iterations <==

  SCF Guess: Orbitals guess was supplied from a previous computation.

   -------------------------------------------------------
    Irrep   Nso     Nmo     Nalpha   Nbeta   Ndocc  Nsocc
   -------------------------------------------------------
     A1        18      18       8       7       7       1
     A2         2       2       0       0       0       0
     B1         8       8       3       3       3       0
     B2         8       8       3       3       3       0
   -------------------------------------------------------
    Total      36      36      14      13      13       1
   -------------------------------------------------------

  ==> Iterations <==

                           Total Energy        Delta E     RMS |[F,P]|

   @DF-UKS iter   0:  -582.47990945313381   -5.82480e+02   9.26050e-03 
   @DF-UKS iter   1:  -582.50683767846806   -2.69282e-02   4.39377e-04 DIIS/ADIIS
   @DF-UKS iter   2:  -582.50678911502246    4.85634e-05   5.25097e-04 DIIS/ADIIS/DAMP=1%
   @DF-UKS iter   3:  -582.50719315139315   -4.04036e-04   7.32598e-05 DIIS/DAMP=1%
   @DF-UKS iter   4:  -582.50685529798045    3.37853e-04   9.91448e-06 DIIS/DAMP=1%
   @DF-UKS iter   5:  -582.50690578562467   -5.04876e-05   2.99807e-06 DIIS/DAMP=1%
   @DF-UKS iter   6:  -582.50689212070017    1.36649e-05   1.06600e-06 DIIS/DAMP=1%
   @DF-UKS iter   7:  -582.50689800700468   -5.88630e-06   1.63684e-07 DIIS/DAMP=1%
   @DF-UKS iter   8:  -582.50689717959835    8.27406e-07   3.96749e-08 DIIS/DAMP=1%
   @DF-UKS iter   9:  -582.50689720305991   -2.34616e-08   1.10342e-09 DIIS/DAMP=1%
   @DF-UKS iter  10:  -582.50689720231037    7.49537e-10   3.49371e-10 DIIS/DAMP=1%
  Energy and wave function converged.


  ==> Post-Iterations <==

   Electrons on quadrature grid:
      Nalpha   =   13.9999983914 ; deviation = -1.609e-06
      Nbeta    =   12.9999983726 ; deviation = -1.627e-06
      Ntotal   =   26.9999967640 ; deviation = -3.236e-06 

   @Spin Contamination Metric:   5.400967120E-03
   @S^2 Expected:                7.500000000E-01
   @S^2 Observed:                7.554009671E-01
   @S   Expected:                5.000000000E-01
   @S   Observed:                5.000000000E-01

    Orbital Energies [Eh]
    ---------------------

    Alpha Occupied:                                                       

       1A1   -77.397852     2A1   -56.463145     3A1    -6.919882  
       4A1    -5.115165     1B2    -5.055805     1B1    -5.055805  
       5A1    -4.607661     6A1    -3.196102     2B2    -3.131717  
       2B1    -3.131717     7A1    -0.882200     8A1    -0.571999  
       3B2    -0.558061     3B1    -0.558061  

    Alpha Virtual:                                                        

       9A1    -0.366432     4B1    -0.225866     4B2    -0.225866  
      10A1    -0.125288     5B2    -0.049534     5B1    -0.049534  
      11A1    -0.043375     1A2    -0.040326    12A1    -0.040326  
       6B2     0.082654     6B1     0.082654    13A1     0.092567  
      14A1     0.119340     7B1     0.280852     7B2     0.280852  
       2A2     0.335724    15A1     0.335726    16A1     0.346072  
       8B1     0.590954     8B2     0.590954    17A1     0.746969  
      18A1     1.333309  

    Beta Occupied:                                                        

       1A1   -77.395039     2A1   -56.459722     3A1    -6.916800  
       4A1    -5.106500     1B2    -5.053928     1B1    -5.053928  
       5A1    -4.602125     6A1    -3.192650     2B2    -3.127655  
       2B1    -3.127655     7A1    -0.861635     3B2    -0.550748  
       3B1    -0.550748  

    Beta Virtual:                                                         

       8A1    -0.466768     9A1    -0.318008     4B1    -0.201377  
       4B2    -0.201377    10A1    -0.119125     5B2    -0.040414  
       5B1    -0.040414     1A2    -0.029358    11A1    -0.029357  
      12A1    -0.029033     6B2     0.105129     6B1     0.105129  
      13A1     0.122909    14A1     0.135024     7B1     0.295348  
       7B2     0.295348     2A2     0.347837    15A1     0.347840  
      16A1     0.370217     8B1     0.613785     8B2     0.613785  
      17A1     0.767406    18A1     1.343933  

    Final Occupation by Irrep:
             A1    A2    B1    B2 
    DOCC [     7,    0,    3,    3 ]
    SOCC [     1,    0,    0,    0 ]
    NA   [     8,    0,    3,    3 ]
    NB   [     7,    0,    3,    3 ]

  @DF-UKS Final Energy:  -582.50689720231037

   => Energetics <=

    Nuclear Repulsion Energy =             82.4803646981919201
    One-Electron Energy =                -961.2110351423546035
    Two-Electron Energy =                 330.0886789884763743
    DFT Exchange-Correlation Energy =     -33.8649057466240180
    Empirical Dispersion Energy =           0.0000000000000000
    VV10 Nonlocal Energy =                  0.0000000000000000
    Total Energy =                       -582.5068972023103697

  UHF NO Occupations:
  HONO-2 :    3 B1 1.9996280
  HONO-1 :    7 A1 1.9980426
  HONO-0 :    8 A1 1.0000000
  LUNO+0 :    9 A1 0.0019574
  LUNO+1 :    4 B1 0.0003720
  LUNO+2 :    4 B2 0.0003720
  LUNO+3 :   10 A1 0.0000004


Computation Completed


Properties will be evaluated at   0.000000,   0.000000,   0.000000 [a0]

Properties computed using the SCF density matrix


 Multipole Moments:

 ------------------------------------------------------------------------------------
     Multipole            Electronic (a.u.)      Nuclear  (a.u.)        Total (a.u.)
 ------------------------------------------------------------------------------------

 L = 1.  Multiply by 2.5417464519 to convert [e a0] to [Debye]
 Dipole X            :          0.0000000            0.0000000            0.0000000
 Dipole Y            :          0.0000000            0.0000000            0.0000000
 Dipole Z            :          1.1673124           -0.0842048            1.0831076
 Magnitude           :                                                    1.0831076

 ------------------------------------------------------------------------------------

*** tstop() called on Joses-MacBook-Pro-2.local at Thu Jul 17 15:17:24 2025
Module time:
	user time   =       9.47 seconds =       0.16 minutes
	system time =       1.65 seconds =       0.03 minutes
	total time  =          1 seconds =       0.02 minutes
Total time:
	user time   =      54.21 seconds =       0.90 minutes
	system time =      10.75 seconds =       0.18 minutes
	total time  =          6 seconds =       0.10 minutes

*** tstart() called on Joses-MacBook-Pro-2.local
*** at Thu Jul 17 15:17:24 2025


         ------------------------------------------------------------
                                   SCF GRAD                          
                          Rob Parrish, Justin Turney,                
                       Andy Simmonett, and Alex Sokolov              
         ------------------------------------------------------------

  ==> Geometry <==

    Molecular point group: c2v
    Full point group: C_inf_v

    Geometry (in Angstrom), charge = 1, multiplicity = 2:

       Center              X                  Y                   Z               Mass       
    ------------   -----------------  -----------------  -----------------  -----------------
         AL           0.000000000000     0.000000000000     0.668630165822    26.981538530000
         P            0.000000000000     0.000000000000    -0.582450093804    30.973761998420

  Nuclear repulsion =   82.480364698191920

  ==> Basis Set <==

  Basis Set: CC-PVDZ
    Blend: CC-PVDZ
    Number of shells: 16
    Number of basis functions: 36
    Number of Cartesian functions: 38
    Spherical Harmonics?: true
    Max angular momentum: 2

  ==> DFJKGrad: Density-Fitted SCF Gradients <==

    Gradient:                    1
    J tasked:                  Yes
    K tasked:                  Yes
    wK tasked:                  No
    OpenMP threads:              1
    Integrals threads:           1
    Memory [MiB]:              375
    Schwarz Cutoff:          1E-12
    Fitting Condition:       1E-10

   => Auxiliary Basis Set <=

  Basis Set: (CC-PVDZ AUX)
    Blend: CC-PVDZ-JKFIT
    Number of shells: 72
    Number of basis functions: 224
    Number of Cartesian functions: 260
    Spherical Harmonics?: true
    Max angular momentum: 3

  ==> DFT Potential <==

   => LibXC <=

    Version 6.2.2
    S. Lehtola, C. Steigemann, M. J.T. Oliveira, and M. A.L. Marques.,  SoftwareX 7, 1–5 (2018) (10.1016/j.softx.2017.11.002)

   => Composite Functional: B3LYP <= 

    B3LYP Hyb-GGA Exchange-Correlation Functional

    P. J. Stephens, F. J. Devlin, C. F. Chabalowski, and M. J. Frisch.,  J. Phys. Chem. 98, 11623 (1994) (10.1021/j100096a001)

    Deriv               =              1
    GGA                 =           TRUE
    Meta                =          FALSE

    Exchange Hybrid     =           TRUE
    MP2 Hybrid          =          FALSE

   => Exchange Functionals <=

    0.0800   Slater exchange
    0.7200         Becke 88

   => Exact (HF) Exchange <=

    0.2000               HF 

   => Correlation Functionals <=

    0.1900   Vosko, Wilk & Nusair (VWN5_RPA)
    0.8100   Lee, Yang & Parr

   => LibXC Density Thresholds  <==

    XC_HYB_GGA_XC_B3LYP:  1.00E-15 

   => Molecular Quadrature <=

    Radial Scheme          =       TREUTLER
    Pruning Scheme         =           NONE
    Nuclear Scheme         =       TREUTLER

    Blocking Scheme        =         OCTREE
    BS radius alpha        =              1
    Pruning alpha          =              1
    Radial Points          =             75
    Spherical Points       =            302
    Total Points           =          42563
    Total Blocks           =            401
    Max Points             =            256
    Max Functions          =             36
    Weights Tolerance      =       1.00E-15


  -Total Gradient:
     Atom            X                  Y                   Z
    ------   -----------------  -----------------  -----------------
       1        0.000000000000     0.000000000000    -1.682036920060
       2        0.000000000000    -0.000000000000     1.682079997883


*** tstop() called on Joses-MacBook-Pro-2.local at Thu Jul 17 15:17:25 2025
Module time:
	user time   =       2.63 seconds =       0.04 minutes
	system time =       1.17 seconds =       0.02 minutes
	total time  =          1 seconds =       0.02 minutes
Total time:
	user time   =      56.84 seconds =       0.95 minutes
	system time =      11.92 seconds =       0.20 minutes
	total time  =          7 seconds =       0.12 minutes

    			-----------------------------------------

    			 OPTKING 3.0: for geometry optimizations 

    			     By R.A. King, Bethel University     

    			        with contributions from          

    			    A.V. Copan, J. Cayton, A. Heide      

    			-----------------------------------------

    
	                            ===> Fragment 1 <== 

	 Z (Atomic Numbers)          Masses                          Geom                  
	      13.000000            26.981539          0.00000000  0.00000000  1.26352789   
	      15.000000            30.973762          0.00000000  0.00000000 -1.10067116   

	 - Coordinate -           - BOHR/RAD -       - ANG/DEG -
	 R(1,2)           =         2.364199           1.251080


	        --- Internal Coordinate Step in ANG or DEG, aJ/ANG or AJ/DEG ---
	-------------------------------------------------------------------------------
	           Coordinate      Previous         Force          Change          New 
	           ----------      --------        ------          ------        ------
	               R(1,2)       1.25108       13.85801        0.21739       1.46847
	-------------------------------------------------------------------------------

	                                 ==> Convergence Check <==                                  
    
	Measures of convergence in internal coordinates in au.
    
	Criteria marked as inactive (o), active & met (*), and active & unmet ( ).

	----------------------------------------------------------------------------------------------
	   Step    Total Energy     Delta E     Max Force     RMS Force      Max Disp      RMS Disp   
	----------------------------------------------------------------------------------------------
	  Convergence Criteria     1.00e-06 *    3.00e-04 *             o    1.20e-03 *             o
	----------------------------------------------------------------------------------------------
	     4    -582.50689720   -1.24e-01      1.68e+00      1.68e+00 o    4.11e-01      4.11e-01 o  ~
	----------------------------------------------------------------------------------------------

Next Geometry in Ang 
	Fragment 1 (Ang)

	   Al   0.0000000000   0.0000000000   0.7773261886
	    P   0.0000000000   0.0000000000  -0.6911461166


    Structure for next step:
    Molecular point group: c2v
    Full point group: C_inf_v

    Geometry (in Angstrom), charge = 1, multiplicity = 2:

    AL           0.000000000000     0.000000000000     0.784813662692
    P            0.000000000000     0.000000000000    -0.683658642430


Scratch directory: /tmp/
gradient() will perform analytic gradient computation.
   => Libint2 <=

    Primary   basis highest AM E, G, H:  6, 6, 3
    Auxiliary basis highest AM E, G, H:  7, 7, 4
    Onebody   basis highest AM E, G, H:  -, -, -
    Solid Harmonics ordering:            Gaussian

*** tstart() called on Joses-MacBook-Pro-2.local
*** at Thu Jul 17 15:17:25 2025

   => Loading Basis Set <=

    Name: CC-PVDZ
    Role: ORBITAL
    Keyword: BASIS
    atoms 1 entry AL         line   418 file /Users/joseantoniorodriguesromero/anaconda3/share/psi4/basis/cc-pvdz.gbs 
    atoms 2 entry P          line   538 file /Users/joseantoniorodriguesromero/anaconda3/share/psi4/basis/cc-pvdz.gbs 


         ---------------------------------------------------------
                                   SCF
               by Justin Turney, Rob Parrish, Andy Simmonett
                          and Daniel G. A. Smith
                              UKS Reference
                        1 Threads,    500 MiB Core
         ---------------------------------------------------------

  ==> Geometry <==

    Molecular point group: c2v
    Full point group: C_inf_v

    Geometry (in Angstrom), charge = 1, multiplicity = 2:

       Center              X                  Y                   Z               Mass       
    ------------   -----------------  -----------------  -----------------  -----------------
         AL           0.000000000000     0.000000000000     0.784813662692    26.981538530000
         P            0.000000000000     0.000000000000    -0.683658642430    30.973761998420

  Running in c2v symmetry.

  Rotational constants: A = ************  B =      0.54212  C =      0.54212 [cm^-1]
[...]
	   Step    Total Energy     Delta E     Max Force     RMS Force      Max Disp      RMS Disp   
	----------------------------------------------------------------------------------------------
	  Convergence Criteria     1.00e-06 *    3.00e-04 *             o    1.20e-03 *             o
	----------------------------------------------------------------------------------------------
	    14    -583.41699173   -1.35e-05      5.44e-04      5.44e-04 o    4.19e-03      4.19e-03 o  ~
	----------------------------------------------------------------------------------------------

Next Geometry in Ang 
	Fragment 1 (Ang)

	   Al   0.0000000000   0.0000000000   1.1890775594
	    P   0.0000000000   0.0000000000  -1.0359596369


    Structure for next step:
    Molecular point group: c2v
    Full point group: C_inf_v

    Geometry (in Angstrom), charge = 1, multiplicity = 2:

    AL           0.000000000000     0.000000000000     1.189153915649
    P            0.000000000000     0.000000000000    -1.035883280656


Scratch directory: /tmp/
gradient() will perform analytic gradient computation.
   => Libint2 <=

    Primary   basis highest AM E, G, H:  6, 6, 3
    Auxiliary basis highest AM E, G, H:  7, 7, 4
    Onebody   basis highest AM E, G, H:  -, -, -
    Solid Harmonics ordering:            Gaussian

*** tstart() called on Joses-MacBook-Pro-2.local
*** at Thu Jul 17 15:18:05 2025

   => Loading Basis Set <=

    Name: CC-PVDZ
    Role: ORBITAL
    Keyword: BASIS
    atoms 1 entry AL         line   418 file /Users/joseantoniorodriguesromero/anaconda3/share/psi4/basis/cc-pvdz.gbs 
    atoms 2 entry P          line   538 file /Users/joseantoniorodriguesromero/anaconda3/share/psi4/basis/cc-pvdz.gbs 


         ---------------------------------------------------------
                                   SCF
               by Justin Turney, Rob Parrish, Andy Simmonett
                          and Daniel G. A. Smith
                              UKS Reference
                        1 Threads,    500 MiB Core
         ---------------------------------------------------------

  ==> Geometry <==

    Molecular point group: c2v
    Full point group: C_inf_v

    Geometry (in Angstrom), charge = 1, multiplicity = 2:

       Center              X                  Y                   Z               Mass       
    ------------   -----------------  -----------------  -----------------  -----------------
         AL           0.000000000000     0.000000000000     1.189153915649    26.981538530000
         P            0.000000000000     0.000000000000    -1.035883280656    30.973761998420

  Running in c2v symmetry.

  Rotational constants: A = ************  B =      0.23613  C =      0.23613 [cm^-1]
  Rotational constants: A = ************  B =   7079.05267  C =   7079.05267 [MHz]
  Nuclear repulsion =   46.376553278296200

  Charge       = 1
  Multiplicity = 2
  Electrons    = 27
  Nalpha       = 14
  Nbeta        = 13

  ==> Algorithm <==

  SCF Algorithm Type is DF.
  DIIS enabled.
  MOM disabled.
  Fractional occupation disabled.
  Guess Type is READ.
  Energy threshold   = 1.00e-08
  Density threshold  = 1.00e-08
  Integral threshold = 1.00e-12

  ==> Primary Basis <==

  Basis Set: CC-PVDZ
    Blend: CC-PVDZ
    Number of shells: 16
    Number of basis functions: 36
    Number of Cartesian functions: 38
    Spherical Harmonics?: true
    Max angular momentum: 2

  ==> DFT Potential <==

   => LibXC <=

    Version 6.2.2
    S. Lehtola, C. Steigemann, M. J.T. Oliveira, and M. A.L. Marques.,  SoftwareX 7, 1–5 (2018) (10.1016/j.softx.2017.11.002)

   => Composite Functional: B3LYP <= 

    B3LYP Hyb-GGA Exchange-Correlation Functional

    P. J. Stephens, F. J. Devlin, C. F. Chabalowski, and M. J. Frisch.,  J. Phys. Chem. 98, 11623 (1994) (10.1021/j100096a001)

    Deriv               =              1
    GGA                 =           TRUE
    Meta                =          FALSE

    Exchange Hybrid     =           TRUE
    MP2 Hybrid          =          FALSE

   => Exchange Functionals <=

    0.0800   Slater exchange
    0.7200         Becke 88

   => Exact (HF) Exchange <=

    0.2000               HF 

   => Correlation Functionals <=

    0.1900   Vosko, Wilk & Nusair (VWN5_RPA)
    0.8100   Lee, Yang & Parr

   => LibXC Density Thresholds  <==

    XC_HYB_GGA_XC_B3LYP:  1.00E-15 

   => Molecular Quadrature <=

    Radial Scheme          =       TREUTLER
    Pruning Scheme         =           NONE
    Nuclear Scheme         =       TREUTLER

    Blocking Scheme        =         OCTREE
    BS radius alpha        =              1
    Pruning alpha          =              1
    Radial Points          =             75
    Spherical Points       =            302
    Total Points           =          42655
    Total Blocks           =            401
    Max Points             =            256
    Max Functions          =             36
    Weights Tolerance      =       1.00E-15

   => Loading Basis Set <=

    Name: (CC-PVDZ AUX)
    Role: JKFIT
    Keyword: DF_BASIS_SCF
    atoms 1 entry AL         line   371 file /Users/joseantoniorodriguesromero/anaconda3/share/psi4/basis/cc-pvdz-jkfit.gbs 
    atoms 2 entry P          line   519 file /Users/joseantoniorodriguesromero/anaconda3/share/psi4/basis/cc-pvdz-jkfit.gbs 

   => Loading Basis Set <=

    Name: CC-PVDZ
    Role: ORBITAL
    Keyword: BASIS
    atoms 1 entry AL         line   418 file /Users/joseantoniorodriguesromero/anaconda3/share/psi4/basis/cc-pvdz.gbs 
    atoms 2 entry P          line   538 file /Users/joseantoniorodriguesromero/anaconda3/share/psi4/basis/cc-pvdz.gbs 

  Reading orbitals from file /tmp/doublet_AlP.default.75231.180.npy, no projection.

  ==> Integral Setup <==

  DFHelper Memory: AOs need 0.003 GiB; user supplied 0.323 GiB. 
  Using in-core AOs.

  ==> MemDFJK: Density-Fitted J/K Matrices <==

    J tasked:                   Yes
    K tasked:                   Yes
    wK tasked:                   No
    OpenMP threads:               1
    Memory [MiB]:               330
    Algorithm:                 Core
    Schwarz Cutoff:           1E-12
    Mask sparsity (%):       0.0000
    Fitting Condition:        1E-10

   => Auxiliary Basis Set <=

  Basis Set: (CC-PVDZ AUX)
    Blend: CC-PVDZ-JKFIT
    Number of shells: 72
    Number of basis functions: 224
    Number of Cartesian functions: 260
    Spherical Harmonics?: true
    Max angular momentum: 3

  Cached 100.0% of DFT collocation blocks in 0.043 [GiB].

  Minimum eigenvalue in the overlap matrix is 1.8443815584E-02.
  Reciprocal condition number of the overlap matrix is 6.1621634268E-03.
    Using symmetric orthogonalization.

  ==> Pre-Iterations <==

  SCF Guess: Orbitals guess was supplied from a previous computation.

   -------------------------------------------------------
    Irrep   Nso     Nmo     Nalpha   Nbeta   Ndocc  Nsocc
   -------------------------------------------------------
     A1        18      18       8       8       8       0
     A2         2       2       0       0       0       0
     B1         8       8       3       2       2       1
     B2         8       8       3       3       3       0
   -------------------------------------------------------
    Total      36      36      14      13      13       1
   -------------------------------------------------------

  ==> Iterations <==

                           Total Energy        Delta E     RMS |[F,P]|

   @DF-UKS iter   0:  -583.41604466697981   -5.83416e+02   1.37698e-04 
   @DF-UKS iter   1:  -583.41699291138229   -9.48244e-04   1.90370e-05 DIIS
   @DF-UKS iter   2:  -583.41699249014766    4.21235e-07   3.46264e-05 DIIS/DAMP=1%
   @DF-UKS iter   3:  -583.41695932860034    3.31615e-05   1.13364e-05 DIIS/DAMP=1%
   @DF-UKS iter   4:  -583.41699525001127   -3.59214e-05   4.50537e-07 DIIS/DAMP=1%
   @DF-UKS iter   5:  -583.41699286911717    2.38089e-06   1.34348e-07 DIIS/DAMP=1%
   @DF-UKS iter   6:  -583.41699309293585   -2.23819e-07   5.94743e-08 DIIS/DAMP=1%
   @DF-UKS iter   7:  -583.41699312096989   -2.80340e-08   2.80903e-08 DIIS/DAMP=1%
   @DF-UKS iter   8:  -583.41699308448574    3.64842e-08   8.66596e-09 DIIS/DAMP=1%
   @DF-UKS iter   9:  -583.41699309821388   -1.37281e-08   3.64460e-09 DIIS/DAMP=1%
   @DF-UKS iter  10:  -583.41699309482851    3.38537e-09   2.36483e-09 DIIS/DAMP=1%
  Energy and wave function converged.


  ==> Post-Iterations <==

   Electrons on quadrature grid:
      Nalpha   =   14.0000007048 ; deviation = 7.048e-07
      Nbeta    =   13.0000003590 ; deviation = 3.590e-07
      Ntotal   =   27.0000010639 ; deviation = 1.064e-06 

   @Spin Contamination Metric:   2.092720161E-02
   @S^2 Expected:                7.500000000E-01
   @S^2 Observed:                7.709272016E-01
   @S   Expected:                5.000000000E-01
   @S   Observed:                5.000000000E-01

    Orbital Energies [Eh]
    ---------------------

    Alpha Occupied:                                                       

       1A1   -77.349498     2A1   -56.390181     3A1    -6.815263  
       1B1    -4.980947     4A1    -4.980814     1B2    -4.968425  
       5A1    -4.463240     6A1    -3.016907     2B1    -3.016759  
       2B2    -3.013403     7A1    -0.821423     8A1    -0.573914  
       3B1    -0.478894     3B2    -0.446160  

    Alpha Virtual:                                                        

       9A1    -0.408546     4B1    -0.284626     4B2    -0.272009  
      10A1    -0.168745    11A1    -0.058484     5B1    -0.015708  
      12A1    -0.006707     5B2    -0.004978     1A2     0.021645  
      13A1     0.021788     6B1     0.032440     6B2     0.042010  
      14A1     0.095201     7B1     0.226535     7B2     0.249539  
      15A1     0.261982     2A2     0.263023    16A1     0.295490  
      17A1     0.357634     8B1     0.395776     8B2     0.418348  
      18A1     0.687247  

    Beta Occupied:                                                        

       1A1   -77.345174     2A1   -56.390383     3A1    -6.810606  
       4A1    -4.977271     1B1    -4.967537     1B2    -4.965030  
       5A1    -4.463704     6A1    -3.017233     2B1    -3.015937  
       2B2    -3.014267     7A1    -0.782326     8A1    -0.564266  
       3B2    -0.433782  

    Beta Virtual:                                                         

       9A1    -0.403531     3B1    -0.368675     4B2    -0.274497  
       4B1    -0.264410    10A1    -0.164600    11A1    -0.052281  
       5B2    -0.004624    12A1    -0.003957     5B1    -0.001299  
       1A2     0.024478    13A1     0.025364     6B2     0.039014  
       6B1     0.040859    14A1     0.100556     7B2     0.256771  
       7B1     0.262832    15A1     0.304610     2A2     0.304801  
      16A1     0.309138    17A1     0.368076     8B2     0.425671  
       8B1     0.431057    18A1     0.702767  

    Final Occupation by Irrep:
             A1    A2    B1    B2 
    DOCC [     8,    0,    2,    3 ]
    SOCC [     0,    0,    1,    0 ]
    NA   [     8,    0,    3,    3 ]
    NB   [     8,    0,    2,    3 ]

  @DF-UKS Final Energy:  -583.41699309482851

   => Energetics <=

    Nuclear Repulsion Energy =             46.3765532782961998
    One-Electron Energy =                -893.6668659128959007
    Two-Electron Energy =                 297.3522257661539925
    DFT Exchange-Correlation Energy =     -33.4789062263827901
    Empirical Dispersion Energy =           0.0000000000000000
    VV10 Nonlocal Energy =                  0.0000000000000000
    Total Energy =                       -583.4169930948285128

  UHF NO Occupations:
  HONO-2 :    3 B2 1.9976434
  HONO-1 :    8 A1 1.9926576
  HONO-0 :    3 B1 1.0000000
  LUNO+0 :    9 A1 0.0073424
  LUNO+1 :    4 B2 0.0023566
  LUNO+2 :   10 A1 0.0007945
  LUNO+3 :    4 B1 0.0000000


Computation Completed


Properties will be evaluated at   0.000000,   0.000000,   0.000000 [a0]

Properties computed using the SCF density matrix


 Multipole Moments:

 ------------------------------------------------------------------------------------
     Multipole            Electronic (a.u.)      Nuclear  (a.u.)        Total (a.u.)
 ------------------------------------------------------------------------------------

 L = 1.  Multiply by 2.5417464519 to convert [e a0] to [Debye]
 Dipole X            :          0.0000000            0.0000000            0.0000000
 Dipole Y            :          0.0000000            0.0000000            0.0000000
 Dipole Z            :          1.9781265           -0.1497576            1.8283689
 Magnitude           :                                                    1.8283689

 ------------------------------------------------------------------------------------

*** tstop() called on Joses-MacBook-Pro-2.local at Thu Jul 17 15:18:05 2025
Module time:
	user time   =       8.40 seconds =       0.14 minutes
	system time =       1.39 seconds =       0.02 minutes
	total time  =          0 seconds =       0.00 minutes
Total time:
	user time   =     416.24 seconds =       6.94 minutes
	system time =      61.71 seconds =       1.03 minutes
	total time  =         47 seconds =       0.78 minutes

*** tstart() called on Joses-MacBook-Pro-2.local
*** at Thu Jul 17 15:18:05 2025


         ------------------------------------------------------------
                                   SCF GRAD                          
                          Rob Parrish, Justin Turney,                
                       Andy Simmonett, and Alex Sokolov              
         ------------------------------------------------------------

  ==> Geometry <==

    Molecular point group: c2v
    Full point group: C_inf_v

    Geometry (in Angstrom), charge = 1, multiplicity = 2:

       Center              X                  Y                   Z               Mass       
    ------------   -----------------  -----------------  -----------------  -----------------
         AL           0.000000000000     0.000000000000     1.189153915649    26.981538530000
         P            0.000000000000     0.000000000000    -1.035883280656    30.973761998420

  Nuclear repulsion =   46.376553278296200

  ==> Basis Set <==

  Basis Set: CC-PVDZ
    Blend: CC-PVDZ
    Number of shells: 16
    Number of basis functions: 36
    Number of Cartesian functions: 38
    Spherical Harmonics?: true
    Max angular momentum: 2

  ==> DFJKGrad: Density-Fitted SCF Gradients <==

    Gradient:                    1
    J tasked:                  Yes
    K tasked:                  Yes
    wK tasked:                  No
    OpenMP threads:              1
    Integrals threads:           1
    Memory [MiB]:              375
    Schwarz Cutoff:          1E-12
    Fitting Condition:       1E-10

   => Auxiliary Basis Set <=

  Basis Set: (CC-PVDZ AUX)
    Blend: CC-PVDZ-JKFIT
    Number of shells: 72
    Number of basis functions: 224
    Number of Cartesian functions: 260
    Spherical Harmonics?: true
    Max angular momentum: 3

  ==> DFT Potential <==

   => LibXC <=

    Version 6.2.2
    S. Lehtola, C. Steigemann, M. J.T. Oliveira, and M. A.L. Marques.,  SoftwareX 7, 1–5 (2018) (10.1016/j.softx.2017.11.002)

   => Composite Functional: B3LYP <= 

    B3LYP Hyb-GGA Exchange-Correlation Functional

    P. J. Stephens, F. J. Devlin, C. F. Chabalowski, and M. J. Frisch.,  J. Phys. Chem. 98, 11623 (1994) (10.1021/j100096a001)

    Deriv               =              1
    GGA                 =           TRUE
    Meta                =          FALSE

    Exchange Hybrid     =           TRUE
    MP2 Hybrid          =          FALSE

   => Exchange Functionals <=

    0.0800   Slater exchange
    0.7200         Becke 88

   => Exact (HF) Exchange <=

    0.2000               HF 

   => Correlation Functionals <=

    0.1900   Vosko, Wilk & Nusair (VWN5_RPA)
    0.8100   Lee, Yang & Parr

   => LibXC Density Thresholds  <==

    XC_HYB_GGA_XC_B3LYP:  1.00E-15 

   => Molecular Quadrature <=

    Radial Scheme          =       TREUTLER
    Pruning Scheme         =           NONE
    Nuclear Scheme         =       TREUTLER

    Blocking Scheme        =         OCTREE
    BS radius alpha        =              1
    Pruning alpha          =              1
    Radial Points          =             75
    Spherical Points       =            302
    Total Points           =          42655
    Total Blocks           =            401
    Max Points             =            256
    Max Functions          =             36
    Weights Tolerance      =       1.00E-15


  -Total Gradient:
     Atom            X                  Y                   Z
    ------   -----------------  -----------------  -----------------
       1        0.000000000000    -0.000000000000    -0.000097631386
       2        0.000000000000    -0.000000000000     0.000113443638


*** tstop() called on Joses-MacBook-Pro-2.local at Thu Jul 17 15:18:06 2025
Module time:
	user time   =       2.57 seconds =       0.04 minutes
	system time =       1.35 seconds =       0.02 minutes
	total time  =          1 seconds =       0.02 minutes
Total time:
	user time   =     418.81 seconds =       6.98 minutes
	system time =      63.06 seconds =       1.05 minutes
	total time  =         48 seconds =       0.80 minutes

    			-----------------------------------------

    			 OPTKING 3.0: for geometry optimizations 

    			     By R.A. King, Bethel University     

    			        with contributions from          

    			    A.V. Copan, J. Cayton, A. Heide      

    			-----------------------------------------

    
	                            ===> Fragment 1 <== 

	 Z (Atomic Numbers)          Masses                          Geom                  
	      13.000000            26.981539          0.00000000  0.00000000  2.24717522   
	      15.000000            30.973762          0.00000000  0.00000000 -1.95753570   

	 - Coordinate -           - BOHR/RAD -       - ANG/DEG -
	 R(1,2)           =         4.204711           2.225037


	        --- Internal Coordinate Step in ANG or DEG, aJ/ANG or AJ/DEG ---
	-------------------------------------------------------------------------------
	           Coordinate      Previous         Force          Change          New 
	           ----------      --------        ------          ------        ------
	               R(1,2)       2.22504        0.00087        0.00049       2.22552
	-------------------------------------------------------------------------------

	                                 ==> Convergence Check <==                                  
    
	Measures of convergence in internal coordinates in au.
    
	Criteria marked as inactive (o), active & met (*), and active & unmet ( ).

	----------------------------------------------------------------------------------------------
	   Step    Total Energy     Delta E     Max Force     RMS Force      Max Disp      RMS Disp   
	----------------------------------------------------------------------------------------------
	  Convergence Criteria     1.00e-06 *    3.00e-04 *             o    1.20e-03 *             o
	----------------------------------------------------------------------------------------------
	    15    -583.41699309   -1.36e-06      1.06e-04 *    1.06e-04 o    9.19e-04 *    9.19e-04 o  ~
	----------------------------------------------------------------------------------------------

Next Geometry in Ang 
	Fragment 1 (Ang)

	   Al   0.0000000000   0.0000000000   1.1893970958
	    P   0.0000000000   0.0000000000  -1.0361264608


    Final optimized geometry and variables:
    Molecular point group: c2v
    Full point group: C_inf_v

    Geometry (in Angstrom), charge = 1, multiplicity = 2:

    AL           0.000000000000     0.000000000000     1.189153915649
    P            0.000000000000     0.000000000000    -1.035883280656


    Psi4 stopped on: Thursday, 17 July 2025 03:18PM
    Psi4 wall time for execution: 0:00:48.71

*** Psi4 exiting successfully. Buy a developer a beer!
