
    -----------------------------------------------------------------------
          Psi4: An Open-Source Ab Initio Electronic Structure Package
                               Psi4 1.9.1 release

                         Git: Rev {} zzzzzzz 


    D. G. A. Smith, L. A. Burns, A. C. Simmonett, R. M. Parrish,
    M. C. Schieber, R. Galvelis, P. Kraus, H. Kruse, R. Di Remigio,
    A. Alenaizan, A. M. James, S. Lehtola, J. P. Misiewicz, M. Scheurer,
    R. A. Shaw, J. B. Schriber, Y. Xie, Z. L. Glick, D. A. Sirianni,
    J. S. O'Brien, J. M. Waldrop, A. Kumar, E. G. Hohenstein,
    B. P. Pritchard, B. R. Brooks, H. F. Schaefer III, A. Yu. Sokolov,
    K. Patkowski, A. E. DePrince III, U. Bozkaya, R. A. King,
    F. A. Evangelista, J. M. Turney, T. D. Crawford, C. D. Sherrill,
    J. Chem. Phys. 152(18) 184108 (2020). https://doi.org/10.1063/5.0006002

                            Additional Code Authors
    E. T. Seidl, C. L. Janssen, E. F. Valeev, M. L. Leininger,
    J. F. Gonthier, R. M. Richard, H. R. McAlexander, M. Saitow, X. Wang,
    P. Verma, M. H. Lechner, A. Jiang, S. Behnle, A. G. Heide,
    M. F. Herbst, and D. L. Poole

             Previous Authors, Complete List of Code Contributors,
                       and Citations for Specific Modules
    https://github.com/psi4/psi4/blob/master/codemeta.json
    https://github.com/psi4/psi4/graphs/contributors
    http://psicode.org/psi4manual/master/introduction.html#citing-psifour

    -----------------------------------------------------------------------


    Psi4 started on: Thursday, 17 July 2025 12:30PM

    Process ID: 73779
    Host:       Joses-MacBook-Pro-2.local
    PSIDATADIR: /Users/joseantoniorodriguesromero/anaconda3/share/psi4
    Memory:     500.0 MiB
    Threads:    1
    
  ==> Input File <==

--------------------------------------------------------------------------
molecule { 
1 2
He   0.00000        0.60000        0.00000
Mg   0.00000       -0.60000        0.00000
}

set { 
basis              cc-pvdz
reference          uks
maxiter            500
geom_maxiter       500
DAMPING_PERCENTAGE 1
guess              SAP
}

optimize('b3lyp')
--------------------------------------------------------------------------

Scratch directory: /tmp/
gradient() will perform analytic gradient computation.
   => Libint2 <=

    Primary   basis highest AM E, G, H:  6, 6, 3
    Auxiliary basis highest AM E, G, H:  7, 7, 4
    Onebody   basis highest AM E, G, H:  -, -, -
    Solid Harmonics ordering:            Gaussian

*** tstart() called on Joses-MacBook-Pro-2.local
*** at Thu Jul 17 12:30:08 2025

   => Loading Basis Set <=

    Name: CC-PVDZ
    Role: ORBITAL
    Keyword: BASIS
    atoms 1 entry HE         line    32 file /Users/joseantoniorodriguesromero/anaconda3/share/psi4/basis/cc-pvdz.gbs 
    atoms 2 entry MG         line   353 file /Users/joseantoniorodriguesromero/anaconda3/share/psi4/basis/cc-pvdz.gbs 


         ---------------------------------------------------------
                                   SCF
               by Justin Turney, Rob Parrish, Andy Simmonett
                          and Daniel G. A. Smith
                              UKS Reference
                        1 Threads,    500 MiB Core
         ---------------------------------------------------------

  ==> Geometry <==

    Molecular point group: c2v
    Full point group: C_inf_v

    Geometry (in Angstrom), charge = 1, multiplicity = 2:

       Center              X                  Y                   Z               Mass       
    ------------   -----------------  -----------------  -----------------  -----------------
         HE           0.000000000000     0.000000000000     1.028384134737     4.002603254130
         MG           0.000000000000     0.000000000000    -0.171615865263    23.985041697000

  Running in c2v symmetry.

  Rotational constants: A = ************  B =      3.41285  C =      3.41285 [cm^-1]
  Rotational constants: A = ************  B = 102314.70141  C = 102314.70141 [MHz]
  Nuclear repulsion =   10.583544213400002

  Charge       = 1
  Multiplicity = 2
  Electrons    = 13
  Nalpha       = 7
  Nbeta        = 6

  ==> Algorithm <==

  SCF Algorithm Type is DF.
  DIIS enabled.
  MOM disabled.
  Fractional occupation disabled.
  Guess Type is SAP.
  Energy threshold   = 1.00e-08
  Density threshold  = 1.00e-08
  Integral threshold = 1.00e-12

  ==> Primary Basis <==

  Basis Set: CC-PVDZ
    Blend: CC-PVDZ
    Number of shells: 11
    Number of basis functions: 23
    Number of Cartesian functions: 24
    Spherical Harmonics?: true
    Max angular momentum: 2

  ==> DFT Potential <==

   => LibXC <=

    Version 6.2.2
    S. Lehtola, C. Steigemann, M. J.T. Oliveira, and M. A.L. Marques.,  SoftwareX 7, 1–5 (2018) (10.1016/j.softx.2017.11.002)

   => Composite Functional: B3LYP <= 

    B3LYP Hyb-GGA Exchange-Correlation Functional

    P. J. Stephens, F. J. Devlin, C. F. Chabalowski, and M. J. Frisch.,  J. Phys. Chem. 98, 11623 (1994) (10.1021/j100096a001)

    Deriv               =              1
    GGA                 =           TRUE
    Meta                =          FALSE

    Exchange Hybrid     =           TRUE
    MP2 Hybrid          =          FALSE

   => Exchange Functionals <=

    0.0800   Slater exchange
    0.7200         Becke 88

   => Exact (HF) Exchange <=

    0.2000               HF 

   => Correlation Functionals <=

    0.1900   Vosko, Wilk & Nusair (VWN5_RPA)
    0.8100   Lee, Yang & Parr

   => LibXC Density Thresholds  <==

    XC_HYB_GGA_XC_B3LYP:  1.00E-15 

   => Molecular Quadrature <=

    Radial Scheme          =       TREUTLER
    Pruning Scheme         =           NONE
    Nuclear Scheme         =       TREUTLER

    Blocking Scheme        =         OCTREE
    BS radius alpha        =              1
    Pruning alpha          =              1
    Radial Points          =             75
    Spherical Points       =            302
    Total Points           =          43359
    Total Blocks           =            401
    Max Points             =            254
    Max Functions          =             23
    Weights Tolerance      =       1.00E-15

   => Loading Basis Set <=

    Name: (CC-PVDZ AUX)
    Role: JKFIT
    Keyword: DF_BASIS_SCF
    atoms 1 entry HE         line    34 file /Users/joseantoniorodriguesromero/anaconda3/share/psi4/basis/def2-universal-jkfit.gbs 
    atoms 2 entry MG         line   576 file /Users/joseantoniorodriguesromero/anaconda3/share/psi4/basis/def2-universal-jkfit.gbs 

  ==> Integral Setup <==

  DFHelper Memory: AOs need 0.001 GiB; user supplied 0.337 GiB. 
  Using in-core AOs.

  ==> MemDFJK: Density-Fitted J/K Matrices <==

    J tasked:                   Yes
    K tasked:                   Yes
    wK tasked:                   No
    OpenMP threads:               1
    Memory [MiB]:               345
    Algorithm:                 Core
    Schwarz Cutoff:           1E-12
    Mask sparsity (%):       0.0000
    Fitting Condition:        1E-10

   => Auxiliary Basis Set <=

  Basis Set: (CC-PVDZ AUX)
    Blend: DEF2-UNIVERSAL-JKFIT
    Number of shells: 43
    Number of basis functions: 135
    Number of Cartesian functions: 162
    Spherical Harmonics?: true
    Max angular momentum: 4

  Cached 100.0% of DFT collocation blocks in 0.029 [GiB].

  Minimum eigenvalue in the overlap matrix is 9.1100996706E-03.
  Reciprocal condition number of the overlap matrix is 3.2225504375E-03.
    Using symmetric orthogonalization.

  ==> Pre-Iterations <==

  SCF Guess: Superposition of Atomic Potentials (doi:10.1021/acs.jctc.8b01089).

  ==> SAP guess <==

   => Molecular Quadrature <=

    Radial Scheme          =       TREUTLER
    Pruning Scheme         =           NONE
    Nuclear Scheme         =       TREUTLER

    Blocking Scheme        =         OCTREE
    BS radius alpha        =              1
    Pruning alpha          =              1
    Radial Points          =             75
    Spherical Points       =            302
    Total Points           =          43359
    Total Blocks           =            401
    Max Points             =            254
    Max Functions          =             23
    Weights Tolerance      =       1.00E-15

   -------------------------------------------------------
    Irrep   Nso     Nmo     Nalpha   Nbeta   Ndocc  Nsocc
   -------------------------------------------------------
     A1        12      12       5       4       4       1
     A2         1       1       0       0       0       0
     B1         5       5       1       1       1       0
     B2         5       5       1       1       1       0
   -------------------------------------------------------
    Total      23      23       7       6       6       1
   -------------------------------------------------------

  ==> Iterations <==

                           Total Energy        Delta E     RMS |[F,P]|

   @DF-UKS iter   1:  -202.54825170653660   -2.02548e+02   6.54858e-03 ADIIS/DIIS
   @DF-UKS iter   2:  -202.55699285759275   -8.74115e-03   7.79591e-04 ADIIS/DIIS/DAMP=1%
   @DF-UKS iter   3:  -202.55717049232587   -1.77635e-04   7.52149e-05 DIIS/DAMP=1%
   @DF-UKS iter   4:  -202.55706838688752    1.02105e-04   8.82544e-06 DIIS/DAMP=1%
   @DF-UKS iter   5:  -202.55709771346937   -2.93266e-05   6.76704e-07 DIIS/DAMP=1%
   @DF-UKS iter   6:  -202.55709727981267    4.33657e-07   1.30065e-07 DIIS/DAMP=1%
   @DF-UKS iter   7:  -202.55709731426001   -3.44473e-08   1.74613e-08 DIIS/DAMP=1%
   @DF-UKS iter   8:  -202.55709730402486    1.02351e-08   1.54287e-09 DIIS/DAMP=1%
   @DF-UKS iter   9:  -202.55709730399468    3.01839e-11   8.55985e-11 DIIS/DAMP=1%
  Energy and wave function converged.


  ==> Post-Iterations <==

   Electrons on quadrature grid:
      Nalpha   =    7.0000011428 ; deviation = 1.143e-06
      Nbeta    =    6.0000011032 ; deviation = 1.103e-06
      Ntotal   =   13.0000022460 ; deviation = 2.246e-06 

   @Spin Contamination Metric:   3.214536578E-05
   @S^2 Expected:                7.500000000E-01
   @S^2 Observed:                7.500321454E-01
   @S   Expected:                5.000000000E-01
   @S   Observed:                5.000000000E-01

    Orbital Energies [Eh]
    ---------------------

    Alpha Occupied:                                                       

       1A1   -47.146256     2A1    -3.445278     3A1    -2.201950  
       1B2    -2.182713     1B1    -2.182713     4A1    -1.163589  
       5A1    -0.422920  

    Alpha Virtual:                                                        

       2B1    -0.270226     2B2    -0.270226     6A1    -0.183589  
       7A1    -0.077822     3B1    -0.040354     3B2    -0.040354  
       8A1    -0.017086     4B1     0.018231     4B2     0.018231  
       9A1     0.044830     1A2     0.044831    10A1     0.270300  
      11A1     1.143675    12A1     1.888155     5B2     1.896341  
       5B1     1.896341  

    Beta Occupied:                                                        

       1A1   -47.143375     2A1    -3.440337     3A1    -2.197192  
       1B2    -2.179329     1B1    -2.179329     4A1    -1.157577  

    Beta Virtual:                                                         

       5A1    -0.323540     2B1    -0.234811     2B2    -0.234811  
       6A1    -0.164764     7A1    -0.056388     3B1    -0.026861  
       3B2    -0.026861     8A1     0.009080     4B1     0.055968  
       4B2     0.055968     9A1     0.087222     1A2     0.087223  
      10A1     0.295608    11A1     1.149334    12A1     1.892839  
       5B2     1.900908     5B1     1.900908  

    Final Occupation by Irrep:
             A1    A2    B1    B2 
    DOCC [     4,    0,    1,    1 ]
    SOCC [     1,    0,    0,    0 ]
    NA   [     5,    0,    1,    1 ]
    NB   [     4,    0,    1,    1 ]

  @DF-UKS Final Energy:  -202.55709730399468

   => Energetics <=

    Nuclear Repulsion Energy =             10.5835442134000015
    One-Electron Energy =                -299.1862873836065546
    Two-Electron Energy =                 100.1141437780471222
    DFT Exchange-Correlation Energy =     -14.0684979118352320
    Empirical Dispersion Energy =           0.0000000000000000
    VV10 Nonlocal Energy =                  0.0000000000000000
    Total Energy =                       -202.5570973039946807

  UHF NO Occupations:
  HONO-2 :    1 B1 1.9999982
  HONO-1 :    4 A1 1.9999880
  HONO-0 :    5 A1 1.0000000
  LUNO+0 :    6 A1 0.0000120
  LUNO+1 :    2 B2 0.0000018
  LUNO+2 :    2 B1 0.0000018
  LUNO+3 :    7 A1 0.0000004


Computation Completed


Properties will be evaluated at   0.000000,   0.000000,   0.000000 [a0]

Properties computed using the SCF density matrix


 Multipole Moments:

 ------------------------------------------------------------------------------------
     Multipole            Electronic (a.u.)      Nuclear  (a.u.)        Total (a.u.)
 ------------------------------------------------------------------------------------

 L = 1.  Multiply by 2.5417464519 to convert [e a0] to [Debye]
 Dipole X            :          0.0000000            0.0000000            0.0000000
 Dipole Y            :          0.0000000            0.0000000            0.0000000
 Dipole Z            :          0.5811955           -0.0049551            0.5762404
 Magnitude           :                                                    0.5762404

 ------------------------------------------------------------------------------------

*** tstop() called on Joses-MacBook-Pro-2.local at Thu Jul 17 12:30:09 2025
Module time:
	user time   =       3.13 seconds =       0.05 minutes
	system time =       3.06 seconds =       0.05 minutes
	total time  =          1 seconds =       0.02 minutes
Total time:
	user time   =       3.13 seconds =       0.05 minutes
	system time =       3.06 seconds =       0.05 minutes
	total time  =          1 seconds =       0.02 minutes

*** tstart() called on Joses-MacBook-Pro-2.local
*** at Thu Jul 17 12:30:09 2025


         ------------------------------------------------------------
                                   SCF GRAD                          
                          Rob Parrish, Justin Turney,                
                       Andy Simmonett, and Alex Sokolov              
         ------------------------------------------------------------

  ==> Geometry <==

    Molecular point group: c2v
    Full point group: C_inf_v

    Geometry (in Angstrom), charge = 1, multiplicity = 2:

       Center              X                  Y                   Z               Mass       
    ------------   -----------------  -----------------  -----------------  -----------------
         HE           0.000000000000     0.000000000000     1.028384134737     4.002603254130
         MG           0.000000000000     0.000000000000    -0.171615865263    23.985041697000

  Nuclear repulsion =   10.583544213400002

  ==> Basis Set <==

  Basis Set: CC-PVDZ
    Blend: CC-PVDZ
    Number of shells: 11
    Number of basis functions: 23
    Number of Cartesian functions: 24
    Spherical Harmonics?: true
    Max angular momentum: 2

  ==> DFJKGrad: Density-Fitted SCF Gradients <==

    Gradient:                    1
    J tasked:                  Yes
    K tasked:                  Yes
    wK tasked:                  No
    OpenMP threads:              1
    Integrals threads:           1
    Memory [MiB]:              375
    Schwarz Cutoff:          1E-12
    Fitting Condition:       1E-10

   => Auxiliary Basis Set <=

  Basis Set: (CC-PVDZ AUX)
    Blend: DEF2-UNIVERSAL-JKFIT
    Number of shells: 43
    Number of basis functions: 135
    Number of Cartesian functions: 162
    Spherical Harmonics?: true
    Max angular momentum: 4

  ==> DFT Potential <==

   => LibXC <=

    Version 6.2.2
    S. Lehtola, C. Steigemann, M. J.T. Oliveira, and M. A.L. Marques.,  SoftwareX 7, 1–5 (2018) (10.1016/j.softx.2017.11.002)

   => Composite Functional: B3LYP <= 

    B3LYP Hyb-GGA Exchange-Correlation Functional

    P. J. Stephens, F. J. Devlin, C. F. Chabalowski, and M. J. Frisch.,  J. Phys. Chem. 98, 11623 (1994) (10.1021/j100096a001)

    Deriv               =              1
    GGA                 =           TRUE
    Meta                =          FALSE

    Exchange Hybrid     =           TRUE
    MP2 Hybrid          =          FALSE

   => Exchange Functionals <=

    0.0800   Slater exchange
    0.7200         Becke 88

   => Exact (HF) Exchange <=

    0.2000               HF 

   => Correlation Functionals <=

    0.1900   Vosko, Wilk & Nusair (VWN5_RPA)
    0.8100   Lee, Yang & Parr

   => LibXC Density Thresholds  <==

    XC_HYB_GGA_XC_B3LYP:  1.00E-15 

   => Molecular Quadrature <=

    Radial Scheme          =       TREUTLER
    Pruning Scheme         =           NONE
    Nuclear Scheme         =       TREUTLER

    Blocking Scheme        =         OCTREE
    BS radius alpha        =              1
    Pruning alpha          =              1
    Radial Points          =             75
    Spherical Points       =            302
    Total Points           =          43359
    Total Blocks           =            401
    Max Points             =            254
    Max Functions          =             23
    Weights Tolerance      =       1.00E-15


  -Total Gradient:
     Atom            X                  Y                   Z
    ------   -----------------  -----------------  -----------------
       1        0.000000000000     0.000000000000    -0.348021869098
       2       -0.000000000000     0.000000000000     0.348060706351


*** tstop() called on Joses-MacBook-Pro-2.local at Thu Jul 17 12:30:09 2025
Module time:
	user time   =       0.79 seconds =       0.01 minutes
	system time =       1.28 seconds =       0.02 minutes
	total time  =          0 seconds =       0.00 minutes
Total time:
	user time   =       3.93 seconds =       0.07 minutes
	system time =       4.34 seconds =       0.07 minutes
	total time  =          1 seconds =       0.02 minutes

    			-----------------------------------------

    			 OPTKING 3.0: for geometry optimizations 

    			     By R.A. King, Bethel University     

    			        with contributions from          

    			    A.V. Copan, J. Cayton, A. Heide      

    			-----------------------------------------

    
	                            ===> Fragment 1 <== 

	 Z (Atomic Numbers)          Masses                          Geom                  
	       2.000000             4.002603          0.00000000  0.00000000  1.94336437   
	      12.000000            23.985042          0.00000000  0.00000000 -0.32430698   

	 - Coordinate -           - BOHR/RAD -       - ANG/DEG -
	 R(1,2)           =         2.267671           1.200000


	        --- Internal Coordinate Step in ANG or DEG, aJ/ANG or AJ/DEG ---
	-------------------------------------------------------------------------------
	           Coordinate      Previous         Force          Change          New 
	           ----------      --------        ------          ------        ------
	               R(1,2)       1.20000        2.86742        0.26459       1.46459
	-------------------------------------------------------------------------------

	                                 ==> Convergence Check <==                                  
    
	Measures of convergence in internal coordinates in au.
    
	Criteria marked as inactive (o), active & met (*), and active & unmet ( ).

	----------------------------------------------------------------------------------------------
	   Step    Total Energy     Delta E     Max Force     RMS Force      Max Disp      RMS Disp   
	----------------------------------------------------------------------------------------------
	  Convergence Criteria     1.00e-06 *    3.00e-04 *             o    1.20e-03 *             o
	----------------------------------------------------------------------------------------------
	     1    -202.55709730   -2.03e+02      3.48e-01      3.48e-01 o    5.00e-01      5.00e-01 o  ~
	----------------------------------------------------------------------------------------------

Next Geometry in Ang 
	Fragment 1 (Ang)

	   He   0.0000000000   0.0000000000   1.1606785774
	   Mg   0.0000000000   0.0000000000  -0.3039103079


    Structure for next step:
    Molecular point group: c2v
    Full point group: C_inf_v

    Geometry (in Angstrom), charge = 1, multiplicity = 2:

    HE           0.000000000000     0.000000000000     1.255133311346
    MG           0.000000000000     0.000000000000    -0.209455574013


Scratch directory: /tmp/
gradient() will perform analytic gradient computation.
   => Libint2 <=

    Primary   basis highest AM E, G, H:  6, 6, 3
    Auxiliary basis highest AM E, G, H:  7, 7, 4
    Onebody   basis highest AM E, G, H:  -, -, -
    Solid Harmonics ordering:            Gaussian

*** tstart() called on Joses-MacBook-Pro-2.local
*** at Thu Jul 17 12:30:09 2025

   => Loading Basis Set <=

    Name: CC-PVDZ
    Role: ORBITAL
    Keyword: BASIS
    atoms 1 entry HE         line    32 file /Users/joseantoniorodriguesromero/anaconda3/share/psi4/basis/cc-pvdz.gbs 
    atoms 2 entry MG         line   353 file /Users/joseantoniorodriguesromero/anaconda3/share/psi4/basis/cc-pvdz.gbs 


         ---------------------------------------------------------
                                   SCF
               by Justin Turney, Rob Parrish, Andy Simmonett
                          and Daniel G. A. Smith
                              UKS Reference
                        1 Threads,    500 MiB Core
         ---------------------------------------------------------

  ==> Geometry <==

    Molecular point group: c2v
    Full point group: C_inf_v

    Geometry (in Angstrom), charge = 1, multiplicity = 2:

       Center              X                  Y                   Z               Mass       
    ------------   -----------------  -----------------  -----------------  -----------------
         HE           0.000000000000     0.000000000000     1.255133311346     4.002603254130
         MG           0.000000000000     0.000000000000    -0.209455574013    23.985041697000

  Running in c2v symmetry.

  Rotational constants: A = ************  B =      2.29112  C =      2.29112 [cm^-1]
  Rotational constants: A = ************  B =  68686.13281  C =  68686.13281 [MHz]
  Nuclear repulsion =    8.671548161428762

  Charge       = 1
  Multiplicity = 2
  Electrons    = 13
  Nalpha       = 7
  Nbeta        = 6

  ==> Algorithm <==

  SCF Algorithm Type is DF.
  DIIS enabled.
  MOM disabled.
  Fractional occupation disabled.
  Guess Type is READ.
  Energy threshold   = 1.00e-08
  Density threshold  = 1.00e-08
  Integral threshold = 1.00e-12

  ==> Primary Basis <==

  Basis Set: CC-PVDZ
    Blend: CC-PVDZ
    Number of shells: 11
    Number of basis functions: 23
    Number of Cartesian functions: 24
    Spherical Harmonics?: true
    Max angular momentum: 2

  ==> DFT Potential <==

   => LibXC <=

    Version 6.2.2
    S. Lehtola, C. Steigemann, M. J.T. Oliveira, and M. A.L. Marques.,  SoftwareX 7, 1–5 (2018) (10.1016/j.softx.2017.11.002)

   => Composite Functional: B3LYP <= 

    B3LYP Hyb-GGA Exchange-Correlation Functional

    P. J. Stephens, F. J. Devlin, C. F. Chabalowski, and M. J. Frisch.,  J. Phys. Chem. 98, 11623 (1994) (10.1021/j100096a001)

    Deriv               =              1
    GGA                 =           TRUE
    Meta                =          FALSE

    Exchange Hybrid     =           TRUE
    MP2 Hybrid          =          FALSE

   => Exchange Functionals <=

    0.0800   Slater exchange
    0.7200         Becke 88

   => Exact (HF) Exchange <=

    0.2000               HF 

   => Correlation Functionals <=

    0.1900   Vosko, Wilk & Nusair (VWN5_RPA)
    0.8100   Lee, Yang & Parr

   => LibXC Density Thresholds  <==

    XC_HYB_GGA_XC_B3LYP:  1.00E-15 

   => Molecular Quadrature <=

    Radial Scheme          =       TREUTLER
    Pruning Scheme         =           NONE
    Nuclear Scheme         =       TREUTLER

    Blocking Scheme        =         OCTREE
    BS radius alpha        =              1
    Pruning alpha          =              1
    Radial Points          =             75
    Spherical Points       =            302
    Total Points           =          43395
    Total Blocks           =            402
    Max Points             =            256
    Max Functions          =             23
    Weights Tolerance      =       1.00E-15

   => Loading Basis Set <=

    Name: (CC-PVDZ AUX)
    Role: JKFIT
    Keyword: DF_BASIS_SCF
    atoms 1 entry HE         line    34 file /Users/joseantoniorodriguesromero/anaconda3/share/psi4/basis/def2-universal-jkfit.gbs 
    atoms 2 entry MG         line   576 file /Users/joseantoniorodriguesromero/anaconda3/share/psi4/basis/def2-universal-jkfit.gbs 

   => Loading Basis Set <=

    Name: CC-PVDZ
    Role: ORBITAL
    Keyword: BASIS
    atoms 1 entry HE         line    32 file /Users/joseantoniorodriguesromero/anaconda3/share/psi4/basis/cc-pvdz.gbs 
    atoms 2 entry MG         line   353 file /Users/joseantoniorodriguesromero/anaconda3/share/psi4/basis/cc-pvdz.gbs 

  Reading orbitals from file /tmp/doublet_HeMg.default.73779.180.npy, no projection.

  ==> Integral Setup <==

  DFHelper Memory: AOs need 0.001 GiB; user supplied 0.337 GiB. 
  Using in-core AOs.

  ==> MemDFJK: Density-Fitted J/K Matrices <==

    J tasked:                   Yes
    K tasked:                   Yes
    wK tasked:                   No
    OpenMP threads:               1
    Memory [MiB]:               345
    Algorithm:                 Core
    Schwarz Cutoff:           1E-12
    Mask sparsity (%):       0.0000
    Fitting Condition:        1E-10

   => Auxiliary Basis Set <=

  Basis Set: (CC-PVDZ AUX)
    Blend: DEF2-UNIVERSAL-JKFIT
    Number of shells: 43
    Number of basis functions: 135
    Number of Cartesian functions: 162
    Spherical Harmonics?: true
    Max angular momentum: 4

  Cached 100.0% of DFT collocation blocks in 0.029 [GiB].

  Minimum eigenvalue in the overlap matrix is 1.9649917610E-02.
  Reciprocal condition number of the overlap matrix is 7.0021230021E-03.
    Using symmetric orthogonalization.

  ==> Pre-Iterations <==

  SCF Guess: Orbitals guess was supplied from a previous computation.

   -------------------------------------------------------
    Irrep   Nso     Nmo     Nalpha   Nbeta   Ndocc  Nsocc
   -------------------------------------------------------
     A1        12      12       5       4       4       1
     A2         1       1       0       0       0       0
     B1         5       5       1       1       1       0
     B2         5       5       1       1       1       0
   -------------------------------------------------------
    Total      23      23       7       6       6       1
   -------------------------------------------------------

  ==> Iterations <==

                           Total Energy        Delta E     RMS |[F,P]|

   @DF-UKS iter   0:  -202.74195886798913   -2.02742e+02   3.74841e-02 
   @DF-UKS iter   1:  -202.65907129348042    8.28876e-02   3.05948e-03 ADIIS/DIIS
   @DF-UKS iter   2:  -202.65995930485991   -8.88011e-04   8.35025e-04 ADIIS/DIIS/DAMP=1%
   @DF-UKS iter   3:  -202.66007870249680   -1.19398e-04   3.17517e-05 DIIS/DAMP=1%
   @DF-UKS iter   4:  -202.66002350286371    5.51996e-05   6.11061e-06 DIIS/DAMP=1%
   @DF-UKS iter   5:  -202.66001992571898    3.57714e-06   1.67431e-07 DIIS/DAMP=1%
   @DF-UKS iter   6:  -202.66002089579879   -9.70080e-07   2.20428e-08 DIIS/DAMP=1%
   @DF-UKS iter   7:  -202.66002089670107   -9.02276e-10   1.78150e-09 DIIS/DAMP=1%
  Energy and wave function converged.


  ==> Post-Iterations <==

   Electrons on quadrature grid:
      Nalpha   =    6.9999969872 ; deviation = -3.013e-06
      Nbeta    =    5.9999971182 ; deviation = -2.882e-06
      Ntotal   =   12.9999941054 ; deviation = -5.895e-06 

   @Spin Contamination Metric:   3.342423459E-05
   @S^2 Expected:                7.500000000E-01
   @S^2 Observed:                7.500334242E-01
   @S   Expected:                5.000000000E-01
   @S   Observed:                5.000000000E-01

    Orbital Energies [Eh]
    ---------------------

    Alpha Occupied:                                                       

       1A1   -47.154218     2A1    -3.434939     3A1    -2.181217  
       1B2    -2.176300     1B1    -2.176300     4A1    -1.102908  
       5A1    -0.428614  

    Alpha Virtual:                                                        

       2B1    -0.264175     2B2    -0.264175     6A1    -0.180251  
       7A1    -0.087946     3B1    -0.034881     3B2    -0.034881  
       8A1    -0.028922     4B1     0.027499     4B2     0.027499  
       1A2     0.050683     9A1     0.050685    10A1     0.237377  
      11A1     1.049943     5B2     1.904829     5B1     1.904829  
      12A1     2.117811  

    Beta Occupied:                                                        

       1A1   -47.151107     2A1    -3.429406     3A1    -2.176949  
       1B2    -2.172541     1B1    -2.172541     4A1    -1.096693  

    Beta Virtual:                                                         

       5A1    -0.330694     2B1    -0.226761     2B2    -0.226761  
       6A1    -0.157430     7A1    -0.068843     3B1    -0.018812  
       3B2    -0.018812     8A1    -0.005338     4B1     0.063378  
       4B2     0.063378     9A1     0.094336     1A2     0.094340  
      10A1     0.267609    11A1     1.055022     5B2     1.909529  
       5B1     1.909529    12A1     2.123937  

    Final Occupation by Irrep:
             A1    A2    B1    B2 
    DOCC [     4,    0,    1,    1 ]
    SOCC [     1,    0,    0,    0 ]
    NA   [     5,    0,    1,    1 ]
    NB   [     4,    0,    1,    1 ]

  @DF-UKS Final Energy:  -202.66002089670107

   => Energetics <=

    Nuclear Repulsion Energy =              8.6715481614287615
    One-Electron Energy =                -295.7935879993839308
    Two-Electron Energy =                  98.4774863636774995
    DFT Exchange-Correlation Energy =     -14.0154674224234057
    Empirical Dispersion Energy =           0.0000000000000000
    VV10 Nonlocal Energy =                  0.0000000000000000
    Total Energy =                       -202.6600208967010985

  UHF NO Occupations:
  HONO-2 :    1 B1 1.9999981
  HONO-1 :    4 A1 1.9999876
  HONO-0 :    5 A1 1.0000000
  LUNO+0 :    6 A1 0.0000124
  LUNO+1 :    2 B1 0.0000019
  LUNO+2 :    2 B2 0.0000019
  LUNO+3 :    7 A1 0.0000006


Computation Completed


Properties will be evaluated at   0.000000,   0.000000,   0.000000 [a0]

Properties computed using the SCF density matrix


 Multipole Moments:

 ------------------------------------------------------------------------------------
     Multipole            Electronic (a.u.)      Nuclear  (a.u.)        Total (a.u.)
 ------------------------------------------------------------------------------------

 L = 1.  Multiply by 2.5417464519 to convert [e a0] to [Debye]
 Dipole X            :          0.0000000            0.0000000            0.0000000
 Dipole Y            :          0.0000000            0.0000000            0.0000000
 Dipole Z            :          0.4502520           -0.0060476            0.4442043
 Magnitude           :                                                    0.4442043

 ------------------------------------------------------------------------------------

*** tstop() called on Joses-MacBook-Pro-2.local at Thu Jul 17 12:30:10 2025
Module time:
	user time   =       2.61 seconds =       0.04 minutes
	system time =       2.82 seconds =       0.05 minutes
	total time  =          1 seconds =       0.02 minutes
Total time:
	user time   =       6.57 seconds =       0.11 minutes
	system time =       7.37 seconds =       0.12 minutes
	total time  =          2 seconds =       0.03 minutes

*** tstart() called on Joses-MacBook-Pro-2.local
*** at Thu Jul 17 12:30:10 2025


         ------------------------------------------------------------
                                   SCF GRAD                          
                          Rob Parrish, Justin Turney,                
                       Andy Simmonett, and Alex Sokolov              
         ------------------------------------------------------------

  ==> Geometry <==

    Molecular point group: c2v
    Full point group: C_inf_v

    Geometry (in Angstrom), charge = 1, multiplicity = 2:

       Center              X                  Y                   Z               Mass       
    ------------   -----------------  -----------------  -----------------  -----------------
         HE           0.000000000000     0.000000000000     1.255133311346     4.002603254130
         MG           0.000000000000     0.000000000000    -0.209455574013    23.985041697000

  Nuclear repulsion =    8.671548161428763

  ==> Basis Set <==

  Basis Set: CC-PVDZ
    Blend: CC-PVDZ
    Number of shells: 11
    Number of basis functions: 23
    Number of Cartesian functions: 24
    Spherical Harmonics?: true
    Max angular momentum: 2

  ==> DFJKGrad: Density-Fitted SCF Gradients <==

    Gradient:                    1
    J tasked:                  Yes
    K tasked:                  Yes
    wK tasked:                  No
    OpenMP threads:              1
    Integrals threads:           1
    Memory [MiB]:              375
    Schwarz Cutoff:          1E-12
    Fitting Condition:       1E-10

   => Auxiliary Basis Set <=

  Basis Set: (CC-PVDZ AUX)
    Blend: DEF2-UNIVERSAL-JKFIT
    Number of shells: 43
    Number of basis functions: 135
    Number of Cartesian functions: 162
    Spherical Harmonics?: true
    Max angular momentum: 4

  ==> DFT Potential <==

   => LibXC <=

    Version 6.2.2
    S. Lehtola, C. Steigemann, M. J.T. Oliveira, and M. A.L. Marques.,  SoftwareX 7, 1–5 (2018) (10.1016/j.softx.2017.11.002)

   => Composite Functional: B3LYP <= 

    B3LYP Hyb-GGA Exchange-Correlation Functional

    P. J. Stephens, F. J. Devlin, C. F. Chabalowski, and M. J. Frisch.,  J. Phys. Chem. 98, 11623 (1994) (10.1021/j100096a001)

    Deriv               =              1
    GGA                 =           TRUE
    Meta                =          FALSE

    Exchange Hybrid     =           TRUE
    MP2 Hybrid          =          FALSE

   => Exchange Functionals <=

    0.0800   Slater exchange
    0.7200         Becke 88

   => Exact (HF) Exchange <=

    0.2000               HF 

   => Correlation Functionals <=

    0.1900   Vosko, Wilk & Nusair (VWN5_RPA)
    0.8100   Lee, Yang & Parr

   => LibXC Density Thresholds  <==

    XC_HYB_GGA_XC_B3LYP:  1.00E-15 

   => Molecular Quadrature <=

    Radial Scheme          =       TREUTLER
    Pruning Scheme         =           NONE
    Nuclear Scheme         =       TREUTLER

    Blocking Scheme        =         OCTREE
    BS radius alpha        =              1
    Pruning alpha          =              1
    Radial Points          =             75
    Spherical Points       =            302
    Total Points           =          43395
    Total Blocks           =            402
    Max Points             =            256
    Max Functions          =             23
    Weights Tolerance      =       1.00E-15


  -Total Gradient:
     Atom            X                  Y                   Z
    ------   -----------------  -----------------  -----------------
       1        0.000000000000     0.000000000000    -0.112036386022
       2        0.000000000000     0.000000000000     0.111964037807


*** tstop() called on Joses-MacBook-Pro-2.local at Thu Jul 17 12:30:10 2025
Module time:
	user time   =       0.62 seconds =       0.01 minutes
	system time =       1.24 seconds =       0.02 minutes
	total time  =          0 seconds =       0.00 minutes
Total time:
	user time   =       7.20 seconds =       0.12 minutes
	system time =       8.61 seconds =       0.14 minutes
	total time  =          2 seconds =       0.03 minutes

    			-----------------------------------------

    			 OPTKING 3.0: for geometry optimizations 

    			     By R.A. King, Bethel University     

    			        with contributions from          

    			    A.V. Copan, J. Cayton, A. Heide      

    			-----------------------------------------

    
	                            ===> Fragment 1 <== 

	 Z (Atomic Numbers)          Masses                          Geom                  
	       2.000000             4.002603          0.00000000  0.00000000  2.37185821   
	      12.000000            23.985042          0.00000000  0.00000000 -0.39581367   

	 - Coordinate -           - BOHR/RAD -       - ANG/DEG -
	 R(1,2)           =         2.767672           1.464589


	        --- Internal Coordinate Step in ANG or DEG, aJ/ANG or AJ/DEG ---
	-------------------------------------------------------------------------------
	           Coordinate      Previous         Force          Change          New 
	           ----------      --------        ------          ------        ------
	               R(1,2)       1.46459        0.92274        0.11918       1.58377
	-------------------------------------------------------------------------------

	                                 ==> Convergence Check <==                                  
    
	Measures of convergence in internal coordinates in au.
    
	Criteria marked as inactive (o), active & met (*), and active & unmet ( ).

	----------------------------------------------------------------------------------------------
	   Step    Total Energy     Delta E     Max Force     RMS Force      Max Disp      RMS Disp   
	----------------------------------------------------------------------------------------------
	  Convergence Criteria     1.00e-06 *    3.00e-04 *             o    1.20e-03 *             o
	----------------------------------------------------------------------------------------------
	     2    -202.66002090   -1.03e-01      1.12e-01      1.12e-01 o    2.25e-01      2.25e-01 o  ~
	----------------------------------------------------------------------------------------------

Next Geometry in Ang 
	Fragment 1 (Ang)

	   He   0.0000000000   0.0000000000   1.3147223762
	   Mg   0.0000000000   0.0000000000  -0.2690446389


    Structure for next step:
    Molecular point group: c2v
    Full point group: C_inf_v

    Geometry (in Angstrom), charge = 1, multiplicity = 2:

    HE           0.000000000000     0.000000000000     1.357267392887
    MG           0.000000000000     0.000000000000    -0.226499622228


Scratch directory: /tmp/
gradient() will perform analytic gradient computation.
   => Libint2 <=

    Primary   basis highest AM E, G, H:  6, 6, 3
    Auxiliary basis highest AM E, G, H:  7, 7, 4
    Onebody   basis highest AM E, G, H:  -, -, -
    Solid Harmonics ordering:            Gaussian

*** tstart() called on Joses-MacBook-Pro-2.local
*** at Thu Jul 17 12:30:10 2025

   => Loading Basis Set <=

    Name: CC-PVDZ
    Role: ORBITAL
    Keyword: BASIS
    atoms 1 entry HE         line    32 file /Users/joseantoniorodriguesromero/anaconda3/share/psi4/basis/cc-pvdz.gbs 
    atoms 2 entry MG         line   353 file /Users/joseantoniorodriguesromero/anaconda3/share/psi4/basis/cc-pvdz.gbs 


         ---------------------------------------------------------
                                   SCF
               by Justin Turney, Rob Parrish, Andy Simmonett
                          and Daniel G. A. Smith
                              UKS Reference
                        1 Threads,    500 MiB Core
         ---------------------------------------------------------

  ==> Geometry <==

    Molecular point group: c2v
    Full point group: C_inf_v

    Geometry (in Angstrom), charge = 1, multiplicity = 2:

       Center              X                  Y                   Z               Mass       
    ------------   -----------------  -----------------  -----------------  -----------------
         HE           0.000000000000     0.000000000000     1.357267392887     4.002603254130
         MG           0.000000000000     0.000000000000    -0.226499622228    23.985041697000

  Running in c2v symmetry.

  Rotational constants: A = ************  B =      1.95928  C =      1.95928 [cm^-1]
  Rotational constants: A = ************  B =  58737.83647  C =  58737.83647 [MHz]
  Nuclear repulsion =    8.019016013637851

  Charge       = 1
  Multiplicity = 2
  Electrons    = 13
  Nalpha       = 7
  Nbeta        = 6

  ==> Algorithm <==

  SCF Algorithm Type is DF.
  DIIS enabled.
  MOM disabled.
  Fractional occupation disabled.
  Guess Type is READ.
  Energy threshold   = 1.00e-08
  Density threshold  = 1.00e-08
  Integral threshold = 1.00e-12

  ==> Primary Basis <==

  Basis Set: CC-PVDZ
    Blend: CC-PVDZ
    Number of shells: 11
    Number of basis functions: 23
    Number of Cartesian functions: 24
    Spherical Harmonics?: true
    Max angular momentum: 2

  ==> DFT Potential <==

   => LibXC <=

    Version 6.2.2
    S. Lehtola, C. Steigemann, M. J.T. Oliveira, and M. A.L. Marques.,  SoftwareX 7, 1–5 (2018) (10.1016/j.softx.2017.11.002)

   => Composite Functional: B3LYP <= 

    B3LYP Hyb-GGA Exchange-Correlation Functional

    P. J. Stephens, F. J. Devlin, C. F. Chabalowski, and M. J. Frisch.,  J. Phys. Chem. 98, 11623 (1994) (10.1021/j100096a001)

    Deriv               =              1
    GGA                 =           TRUE
    Meta                =          FALSE

    Exchange Hybrid     =           TRUE
    MP2 Hybrid          =          FALSE

   => Exchange Functionals <=

    0.0800   Slater exchange
    0.7200         Becke 88

   => Exact (HF) Exchange <=

    0.2000               HF 

   => Correlation Functionals <=

    0.1900   Vosko, Wilk & Nusair (VWN5_RPA)
    0.8100   Lee, Yang & Parr

   => LibXC Density Thresholds  <==

    XC_HYB_GGA_XC_B3LYP:  1.00E-15 

   => Molecular Quadrature <=

    Radial Scheme          =       TREUTLER
    Pruning Scheme         =           NONE
    Nuclear Scheme         =       TREUTLER

    Blocking Scheme        =         OCTREE
    BS radius alpha        =              1
    Pruning alpha          =              1
    Radial Points          =             75
    Spherical Points       =            302
    Total Points           =          43415
    Total Blocks           =            401
    Max Points             =            256
    Max Functions          =             23
    Weights Tolerance      =       1.00E-15

   => Loading Basis Set <=

    Name: (CC-PVDZ AUX)
    Role: JKFIT
    Keyword: DF_BASIS_SCF
    atoms 1 entry HE         line    34 file /Users/joseantoniorodriguesromero/anaconda3/share/psi4/basis/def2-universal-jkfit.gbs 
    atoms 2 entry MG         line   576 file /Users/joseantoniorodriguesromero/anaconda3/share/psi4/basis/def2-universal-jkfit.gbs 

   => Loading Basis Set <=

    Name: CC-PVDZ
    Role: ORBITAL
    Keyword: BASIS
    atoms 1 entry HE         line    32 file /Users/joseantoniorodriguesromero/anaconda3/share/psi4/basis/cc-pvdz.gbs 
    atoms 2 entry MG         line   353 file /Users/joseantoniorodriguesromero/anaconda3/share/psi4/basis/cc-pvdz.gbs 

  Reading orbitals from file /tmp/doublet_HeMg.default.73779.180.npy, no projection.

  ==> Integral Setup <==

  DFHelper Memory: AOs need 0.001 GiB; user supplied 0.337 GiB. 
  Using in-core AOs.

  ==> MemDFJK: Density-Fitted J/K Matrices <==

    J tasked:                   Yes
    K tasked:                   Yes
    wK tasked:                   No
    OpenMP threads:               1
    Memory [MiB]:               345
    Algorithm:                 Core
    Schwarz Cutoff:           1E-12
    Mask sparsity (%):       0.0000
    Fitting Condition:        1E-10

   => Auxiliary Basis Set <=

  Basis Set: (CC-PVDZ AUX)
    Blend: DEF2-UNIVERSAL-JKFIT
    Number of shells: 43
    Number of basis functions: 135
    Number of Cartesian functions: 162
    Spherical Harmonics?: true
    Max angular momentum: 4

  Cached 100.0% of DFT collocation blocks in 0.029 [GiB].

  Minimum eigenvalue in the overlap matrix is 2.7258646200E-02.
  Reciprocal condition number of the overlap matrix is 9.7957781272E-03.
    Using symmetric orthogonalization.

  ==> Pre-Iterations <==

  SCF Guess: Orbitals guess was supplied from a previous computation.

   -------------------------------------------------------
    Irrep   Nso     Nmo     Nalpha   Nbeta   Ndocc  Nsocc
   -------------------------------------------------------
     A1        12      12       5       4       4       1
     A2         1       1       0       0       0       0
     B1         5       5       1       1       1       0
     B2         5       5       1       1       1       0
   -------------------------------------------------------
    Total      23      23       7       6       6       1
   -------------------------------------------------------

  ==> Iterations <==

                           Total Energy        Delta E     RMS |[F,P]|

   @DF-UKS iter   0:  -202.68168088513636   -2.02682e+02   9.23536e-03 
   @DF-UKS iter   1:  -202.68000468682945    1.67620e-03   3.01380e-04 ADIIS/DIIS
   @DF-UKS iter   2:  -202.68001485194503   -1.01651e-05   5.81364e-05 DIIS/DAMP=1%
   @DF-UKS iter   3:  -202.68002407032697   -9.21838e-06   6.57836e-06 DIIS/DAMP=1%
   @DF-UKS iter   4:  -202.68001503847910    9.03185e-06   1.38663e-06 DIIS/DAMP=1%
   @DF-UKS iter   5:  -202.68001503936043   -8.81329e-10   1.29999e-07 DIIS/DAMP=1%
   @DF-UKS iter   6:  -202.68001518455910   -1.45199e-07   1.19375e-08 DIIS/DAMP=1%
   @DF-UKS iter   7:  -202.68001517555689    9.00221e-09   6.95496e-10 DIIS/DAMP=1%
  Energy and wave function converged.


  ==> Post-Iterations <==

   Electrons on quadrature grid:
      Nalpha   =    6.9999964417 ; deviation = -3.558e-06
      Nbeta    =    5.9999965812 ; deviation = -3.419e-06
      Ntotal   =   12.9999930228 ; deviation = -6.977e-06 

   @Spin Contamination Metric:   3.375714655E-05
   @S^2 Expected:                7.500000000E-01
   @S^2 Observed:                7.500337571E-01
   @S   Expected:                5.000000000E-01
   @S   Observed:                5.000000000E-01

    Orbital Energies [Eh]
    ---------------------

    Alpha Occupied:                                                       

       1A1   -47.155539     2A1    -3.432373     3A1    -2.177120  
       1B1    -2.174360     1B2    -2.174360     4A1    -1.070687  
       5A1    -0.432013  

    Alpha Virtual:                                                        

       2B2    -0.261664     2B1    -0.261664     6A1    -0.182840  
       7A1    -0.091766     8A1    -0.033272     3B2    -0.033046  
       3B1    -0.033046     4B2     0.032646     4B1     0.032646  
       9A1     0.052765     1A2     0.052765    10A1     0.208433  
      11A1     1.046025     5B2     1.904580     5B1     1.904580  
      12A1     2.172256  

    Beta Occupied:                                                        

       1A1   -47.152338     2A1    -3.426620     3A1    -2.172929  
       1B1    -2.170464     1B2    -2.170464     4A1    -1.064363  

    Beta Virtual:                                                         

       5A1    -0.335096     2B2    -0.223386     2B1    -0.223386  
       6A1    -0.157168     7A1    -0.074707     3B2    -0.015591  
       3B1    -0.015591     8A1    -0.010924     4B2     0.067680  
       4B1     0.067680     1A2     0.096821     9A1     0.096824  
      10A1     0.239447    11A1     1.051066     5B2     1.909156  
       5B1     1.909156    12A1     2.178671  

    Final Occupation by Irrep:
             A1    A2    B1    B2 
    DOCC [     4,    0,    1,    1 ]
    SOCC [     1,    0,    0,    0 ]
    NA   [     5,    0,    1,    1 ]
    NB   [     4,    0,    1,    1 ]

  @DF-UKS Final Energy:  -202.68001517555689

   => Energetics <=

    Nuclear Repulsion Energy =              8.0190160136378505
    One-Electron Energy =                -294.6176852684690175
    Two-Electron Energy =                  97.9211074065670886
    DFT Exchange-Correlation Energy =     -14.0024533272928071
    Empirical Dispersion Energy =           0.0000000000000000
    VV10 Nonlocal Energy =                  0.0000000000000000
    Total Energy =                       -202.6800151755568891

  UHF NO Occupations:
  HONO-2 :    1 B1 1.9999981
  HONO-1 :    4 A1 1.9999875
  HONO-0 :    5 A1 1.0000000
  LUNO+0 :    6 A1 0.0000125
  LUNO+1 :    2 B2 0.0000019
  LUNO+2 :    2 B1 0.0000019
  LUNO+3 :    7 A1 0.0000006


Computation Completed


Properties will be evaluated at   0.000000,   0.000000,   0.000000 [a0]

Properties computed using the SCF density matrix


 Multipole Moments:

 ------------------------------------------------------------------------------------
     Multipole            Electronic (a.u.)      Nuclear  (a.u.)        Total (a.u.)
 ------------------------------------------------------------------------------------

 L = 1.  Multiply by 2.5417464519 to convert [e a0] to [Debye]
 Dipole X            :          0.0000000            0.0000000            0.0000000
 Dipole Y            :          0.0000000            0.0000000            0.0000000
 Dipole Z            :          0.3630790           -0.0065397            0.3565393
 Magnitude           :                                                    0.3565393

 ------------------------------------------------------------------------------------

*** tstop() called on Joses-MacBook-Pro-2.local at Thu Jul 17 12:30:10 2025
Module time:
	user time   =       2.13 seconds =       0.04 minutes
	system time =       3.64 seconds =       0.06 minutes
	total time  =          0 seconds =       0.00 minutes
Total time:
	user time   =       9.36 seconds =       0.16 minutes
	system time =      12.44 seconds =       0.21 minutes
	total time  =          2 seconds =       0.03 minutes

*** tstart() called on Joses-MacBook-Pro-2.local
*** at Thu Jul 17 12:30:10 2025


         ------------------------------------------------------------
                                   SCF GRAD                          
                          Rob Parrish, Justin Turney,                
                       Andy Simmonett, and Alex Sokolov              
         ------------------------------------------------------------

  ==> Geometry <==

    Molecular point group: c2v
    Full point group: C_inf_v

    Geometry (in Angstrom), charge = 1, multiplicity = 2:

       Center              X                  Y                   Z               Mass       
    ------------   -----------------  -----------------  -----------------  -----------------
         HE           0.000000000000     0.000000000000     1.357267392887     4.002603254130
         MG           0.000000000000     0.000000000000    -0.226499622228    23.985041697000

  Nuclear repulsion =    8.019016013637851

  ==> Basis Set <==

  Basis Set: CC-PVDZ
    Blend: CC-PVDZ
    Number of shells: 11
    Number of basis functions: 23
    Number of Cartesian functions: 24
    Spherical Harmonics?: true
    Max angular momentum: 2

  ==> DFJKGrad: Density-Fitted SCF Gradients <==

    Gradient:                    1
    J tasked:                  Yes
    K tasked:                  Yes
    wK tasked:                  No
    OpenMP threads:              1
    Integrals threads:           1
    Memory [MiB]:              375
    Schwarz Cutoff:          1E-12
    Fitting Condition:       1E-10

   => Auxiliary Basis Set <=

  Basis Set: (CC-PVDZ AUX)
    Blend: DEF2-UNIVERSAL-JKFIT
    Number of shells: 43
    Number of basis functions: 135
    Number of Cartesian functions: 162
    Spherical Harmonics?: true
    Max angular momentum: 4

  ==> DFT Potential <==

   => LibXC <=

    Version 6.2.2
    S. Lehtola, C. Steigemann, M. J.T. Oliveira, and M. A.L. Marques.,  SoftwareX 7, 1–5 (2018) (10.1016/j.softx.2017.11.002)

   => Composite Functional: B3LYP <= 

    B3LYP Hyb-GGA Exchange-Correlation Functional

    P. J. Stephens, F. J. Devlin, C. F. Chabalowski, and M. J. Frisch.,  J. Phys. Chem. 98, 11623 (1994) (10.1021/j100096a001)

    Deriv               =              1
    GGA                 =           TRUE
    Meta                =          FALSE

    Exchange Hybrid     =           TRUE
    MP2 Hybrid          =          FALSE

   => Exchange Functionals <=

    0.0800   Slater exchange
    0.7200         Becke 88

   => Exact (HF) Exchange <=

    0.2000               HF 

   => Correlation Functionals <=

    0.1900   Vosko, Wilk & Nusair (VWN5_RPA)
    0.8100   Lee, Yang & Parr

   => LibXC Density Thresholds  <==

    XC_HYB_GGA_XC_B3LYP:  1.00E-15 

   => Molecular Quadrature <=

    Radial Scheme          =       TREUTLER
    Pruning Scheme         =           NONE
    Nuclear Scheme         =       TREUTLER

    Blocking Scheme        =         OCTREE
    BS radius alpha        =              1
    Pruning alpha          =              1
    Radial Points          =             75
    Spherical Points       =            302
    Total Points           =          43415
    Total Blocks           =            401
    Max Points             =            256
    Max Functions          =             23
    Weights Tolerance      =       1.00E-15


  -Total Gradient:
     Atom            X                  Y                   Z
    ------   -----------------  -----------------  -----------------
       1        0.000000000000    -0.000000000000    -0.069111376918
       2        0.000000000000     0.000000000000     0.069165393474


*** tstop() called on Joses-MacBook-Pro-2.local at Thu Jul 17 12:30:11 2025
Module time:
	user time   =       0.50 seconds =       0.01 minutes
	system time =       1.65 seconds =       0.03 minutes
	total time  =          1 seconds =       0.02 minutes
Total time:
	user time   =       9.86 seconds =       0.16 minutes
	system time =      14.09 seconds =       0.23 minutes
	total time  =          3 seconds =       0.05 minutes

    			-----------------------------------------

    			 OPTKING 3.0: for geometry optimizations 

    			     By R.A. King, Bethel University     

    			        with contributions from          

    			    A.V. Copan, J. Cayton, A. Heide      

    			-----------------------------------------

    
	                            ===> Fragment 1 <== 

	 Z (Atomic Numbers)          Masses                          Geom                  
	       2.000000             4.002603          0.00000000  0.00000000  2.56486365   
	      12.000000            23.985042          0.00000000  0.00000000 -0.42802225   

	 - Coordinate -           - BOHR/RAD -       - ANG/DEG -
	 R(1,2)           =         2.992886           1.583767


	        --- Internal Coordinate Step in ANG or DEG, aJ/ANG or AJ/DEG ---
	-------------------------------------------------------------------------------
	           Coordinate      Previous         Force          Change          New 
	           ----------      --------        ------          ------        ------
	               R(1,2)       1.58377        0.56961        0.17194       1.75571
	-------------------------------------------------------------------------------

	                                 ==> Convergence Check <==                                  
    
	Measures of convergence in internal coordinates in au.
    
	Criteria marked as inactive (o), active & met (*), and active & unmet ( ).

	----------------------------------------------------------------------------------------------
	   Step    Total Energy     Delta E     Max Force     RMS Force      Max Disp      RMS Disp   
	----------------------------------------------------------------------------------------------
	  Convergence Criteria     1.00e-06 *    3.00e-04 *             o    1.20e-03 *             o
	----------------------------------------------------------------------------------------------
	     3    -202.68001518   -2.00e-02      6.91e-02      6.91e-02 o    3.25e-01      3.25e-01 o  ~
	----------------------------------------------------------------------------------------------

Next Geometry in Ang 
	Fragment 1 (Ang)

	   He   0.0000000000   0.0000000000   1.4432395151
	   Mg   0.0000000000   0.0000000000  -0.3124717444


    Structure for next step:
    Molecular point group: c2v
    Full point group: C_inf_v

    Geometry (in Angstrom), charge = 1, multiplicity = 2:

    HE           0.000000000000     0.000000000000     1.504621337037
    MG           0.000000000000     0.000000000000    -0.251089922458


Scratch directory: /tmp/
gradient() will perform analytic gradient computation.
   => Libint2 <=

    Primary   basis highest AM E, G, H:  6, 6, 3
    Auxiliary basis highest AM E, G, H:  7, 7, 4
    Onebody   basis highest AM E, G, H:  -, -, -
    Solid Harmonics ordering:            Gaussian

*** tstart() called on Joses-MacBook-Pro-2.local
*** at Thu Jul 17 12:30:11 2025

   => Loading Basis Set <=

    Name: CC-PVDZ
    Role: ORBITAL
    Keyword: BASIS
    atoms 1 entry HE         line    32 file /Users/joseantoniorodriguesromero/anaconda3/share/psi4/basis/cc-pvdz.gbs 
    atoms 2 entry MG         line   353 file /Users/joseantoniorodriguesromero/anaconda3/share/psi4/basis/cc-pvdz.gbs 


         ---------------------------------------------------------
                                   SCF
               by Justin Turney, Rob Parrish, Andy Simmonett
                          and Daniel G. A. Smith
                              UKS Reference
                        1 Threads,    500 MiB Core
         ---------------------------------------------------------

  ==> Geometry <==

    Molecular point group: c2v
    Full point group: C_inf_v

    Geometry (in Angstrom), charge = 1, multiplicity = 2:

       Center              X                  Y                   Z               Mass       
    ------------   -----------------  -----------------  -----------------  -----------------
         HE           0.000000000000     0.000000000000     1.504621337037     4.002603254130
         MG           0.000000000000     0.000000000000    -0.251089922458    23.985041697000

  Running in c2v symmetry.

  Rotational constants: A = ************  B =      1.59431  C =      1.59431 [cm^-1]
  Rotational constants: A = ************  B =  47796.30729  C =  47796.30729 [MHz]
  Nuclear repulsion =    7.233679790677554

  Charge       = 1
  Multiplicity = 2
  Electrons    = 13
  Nalpha       = 7
  Nbeta        = 6

  ==> Algorithm <==

  SCF Algorithm Type is DF.
  DIIS enabled.
  MOM disabled.
  Fractional occupation disabled.
  Guess Type is READ.
  Energy threshold   = 1.00e-08
  Density threshold  = 1.00e-08
  Integral threshold = 1.00e-12

  ==> Primary Basis <==

  Basis Set: CC-PVDZ
    Blend: CC-PVDZ
    Number of shells: 11
    Number of basis functions: 23
    Number of Cartesian functions: 24
    Spherical Harmonics?: true
    Max angular momentum: 2

  ==> DFT Potential <==

   => LibXC <=

    Version 6.2.2
    S. Lehtola, C. Steigemann, M. J.T. Oliveira, and M. A.L. Marques.,  SoftwareX 7, 1–5 (2018) (10.1016/j.softx.2017.11.002)

   => Composite Functional: B3LYP <= 

    B3LYP Hyb-GGA Exchange-Correlation Functional

    P. J. Stephens, F. J. Devlin, C. F. Chabalowski, and M. J. Frisch.,  J. Phys. Chem. 98, 11623 (1994) (10.1021/j100096a001)

    Deriv               =              1
    GGA                 =           TRUE
    Meta                =          FALSE

    Exchange Hybrid     =           TRUE
    MP2 Hybrid          =          FALSE

   => Exchange Functionals <=

    0.0800   Slater exchange
    0.7200         Becke 88

   => Exact (HF) Exchange <=

    0.2000               HF 

   => Correlation Functionals <=

    0.1900   Vosko, Wilk & Nusair (VWN5_RPA)
    0.8100   Lee, Yang & Parr

   => LibXC Density Thresholds  <==

    XC_HYB_GGA_XC_B3LYP:  1.00E-15 

   => Molecular Quadrature <=

    Radial Scheme          =       TREUTLER
    Pruning Scheme         =           NONE
    Nuclear Scheme         =       TREUTLER

    Blocking Scheme        =         OCTREE
    BS radius alpha        =              1
    Pruning alpha          =              1
    Radial Points          =             75
    Spherical Points       =            302
    Total Points           =          43429
    Total Blocks           =            398
    Max Points             =            254
    Max Functions          =             23
    Weights Tolerance      =       1.00E-15

   => Loading Basis Set <=

    Name: (CC-PVDZ AUX)
    Role: JKFIT
    Keyword: DF_BASIS_SCF
    atoms 1 entry HE         line    34 file /Users/joseantoniorodriguesromero/anaconda3/share/psi4/basis/def2-universal-jkfit.gbs 
    atoms 2 entry MG         line   576 file /Users/joseantoniorodriguesromero/anaconda3/share/psi4/basis/def2-universal-jkfit.gbs 

   => Loading Basis Set <=

    Name: CC-PVDZ
    Role: ORBITAL
    Keyword: BASIS
    atoms 1 entry HE         line    32 file /Users/joseantoniorodriguesromero/anaconda3/share/psi4/basis/cc-pvdz.gbs 
    atoms 2 entry MG         line   353 file /Users/joseantoniorodriguesromero/anaconda3/share/psi4/basis/cc-pvdz.gbs 

  Reading orbitals from file /tmp/doublet_HeMg.default.73779.180.npy, no projection.

  ==> Integral Setup <==

  DFHelper Memory: AOs need 0.001 GiB; user supplied 0.337 GiB. 
  Using in-core AOs.

  ==> MemDFJK: Density-Fitted J/K Matrices <==

    J tasked:                   Yes
    K tasked:                   Yes
    wK tasked:                   No
    OpenMP threads:               1
    Memory [MiB]:               345
    Algorithm:                 Core
    Schwarz Cutoff:           1E-12
    Mask sparsity (%):       0.0000
    Fitting Condition:        1E-10

   => Auxiliary Basis Set <=

  Basis Set: (CC-PVDZ AUX)
    Blend: DEF2-UNIVERSAL-JKFIT
    Number of shells: 43
    Number of basis functions: 135
    Number of Cartesian functions: 162
    Spherical Harmonics?: true
    Max angular momentum: 4

  Cached 100.0% of DFT collocation blocks in 0.029 [GiB].

  Minimum eigenvalue in the overlap matrix is 3.7008586198E-02.
  Reciprocal condition number of the overlap matrix is 1.3533392282E-02.
    Using symmetric orthogonalization.

  ==> Pre-Iterations <==

  SCF Guess: Orbitals guess was supplied from a previous computation.

   -------------------------------------------------------
    Irrep   Nso     Nmo     Nalpha   Nbeta   Ndocc  Nsocc
   -------------------------------------------------------
     A1        12      12       5       4       4       1
     A2         1       1       0       0       0       0
     B1         5       5       1       1       1       0
     B2         5       5       1       1       1       0
   -------------------------------------------------------
    Total      23      23       7       6       6       1
   -------------------------------------------------------

  ==> Iterations <==

                           Total Energy        Delta E     RMS |[F,P]|

   @DF-UKS iter   0:  -202.68772323762715   -2.02688e+02   9.19101e-03 
   @DF-UKS iter   1:  -202.69629444349061   -8.57121e-03   3.52329e-04 ADIIS/DIIS
   @DF-UKS iter   2:  -202.69631025941979   -1.58159e-05   9.83366e-05 DIIS/DAMP=1%
   @DF-UKS iter   3:  -202.69631456518360   -4.30576e-06   8.35863e-06 DIIS/DAMP=1%
   @DF-UKS iter   4:  -202.69631189346660    2.67172e-06   1.74661e-06 DIIS/DAMP=1%
   @DF-UKS iter   5:  -202.69631098325863    9.10208e-07   2.29140e-07 DIIS/DAMP=1%
   @DF-UKS iter   6:  -202.69631123149736   -2.48239e-07   1.70322e-08 DIIS/DAMP=1%
   @DF-UKS iter   7:  -202.69631120182981    2.96675e-08   1.25416e-09 DIIS/DAMP=1%
   @DF-UKS iter   8:  -202.69631120196732   -1.37504e-10   7.92532e-11 DIIS/DAMP=1%
  Energy and wave function converged.


  ==> Post-Iterations <==

   Electrons on quadrature grid:
      Nalpha   =    6.9999996061 ; deviation = -3.939e-07
      Nbeta    =    5.9999996175 ; deviation = -3.825e-07
      Ntotal   =   12.9999992236 ; deviation = -7.764e-07 

   @Spin Contamination Metric:   3.242785301E-05
   @S^2 Expected:                7.500000000E-01
   @S^2 Observed:                7.500324279E-01
   @S   Expected:                5.000000000E-01
   @S   Observed:                5.000000000E-01

    Orbital Energies [Eh]
    ---------------------

    Alpha Occupied:                                                       

       1A1   -47.156850     2A1    -3.430541     3A1    -2.174223  
       1B1    -2.172979     1B2    -2.172979     4A1    -1.025438  
       5A1    -0.437459  

    Alpha Virtual:                                                        

       2B2    -0.258842     2B1    -0.258842     6A1    -0.191172  
       7A1    -0.093531     8A1    -0.038040     3B2    -0.031377  
       3B1    -0.031377     4B1     0.039736     4B2     0.039736  
       9A1     0.054813     1A2     0.054814    10A1     0.171642  
      11A1     1.055042     5B2     1.907412     5B1     1.907412  
      12A1     2.178895  

    Beta Occupied:                                                        

       1A1   -47.153549     2A1    -3.424545     3A1    -2.170070  
       1B1    -2.168938     1B2    -2.168938     4A1    -1.019185  

    Beta Virtual:                                                         

       5A1    -0.342177     2B2    -0.220303     2B1    -0.220303  
       6A1    -0.162135     7A1    -0.081266     8A1    -0.017251  
       3B2    -0.014199     3B1    -0.014199     4B1     0.074234  
       4B2     0.074234     1A2     0.099224     9A1     0.099225  
      10A1     0.203272    11A1     1.059769     5B2     1.911604  
       5B1     1.911604    12A1     2.185255  

    Final Occupation by Irrep:
             A1    A2    B1    B2 
    DOCC [     4,    0,    1,    1 ]
    SOCC [     1,    0,    0,    0 ]
    NA   [     5,    0,    1,    1 ]
    NB   [     4,    0,    1,    1 ]

  @DF-UKS Final Energy:  -202.69631120196732

   => Energetics <=

    Nuclear Repulsion Energy =              7.2336797906775541
    One-Electron Energy =                -293.1856577500033723
    Two-Electron Energy =                  97.2465112106515051
    DFT Exchange-Correlation Energy =     -13.9908444532930361
    Empirical Dispersion Energy =           0.0000000000000000
    VV10 Nonlocal Energy =                  0.0000000000000000
    Total Energy =                       -202.6963112019673190

  UHF NO Occupations:
  HONO-2 :    1 B2 1.9999981
  HONO-1 :    4 A1 1.9999883
  HONO-0 :    5 A1 1.0000000
  LUNO+0 :    6 A1 0.0000117
  LUNO+1 :    2 B1 0.0000019
  LUNO+2 :    2 B2 0.0000019
  LUNO+3 :    7 A1 0.0000008


Computation Completed


Properties will be evaluated at   0.000000,   0.000000,   0.000000 [a0]

Properties computed using the SCF density matrix


 Multipole Moments:

 ------------------------------------------------------------------------------------
     Multipole            Electronic (a.u.)      Nuclear  (a.u.)        Total (a.u.)
 ------------------------------------------------------------------------------------

 L = 1.  Multiply by 2.5417464519 to convert [e a0] to [Debye]
 Dipole X            :          0.0000000            0.0000000            0.0000000
 Dipole Y            :          0.0000000            0.0000000            0.0000000
 Dipole Z            :          0.2135384           -0.0072497            0.2062886
 Magnitude           :                                                    0.2062886

 ------------------------------------------------------------------------------------

*** tstop() called on Joses-MacBook-Pro-2.local at Thu Jul 17 12:30:11 2025
Module time:
	user time   =       3.55 seconds =       0.06 minutes
	system time =       2.21 seconds =       0.04 minutes
	total time  =          0 seconds =       0.00 minutes
Total time:
	user time   =      13.44 seconds =       0.22 minutes
	system time =      16.52 seconds =       0.28 minutes
	total time  =          3 seconds =       0.05 minutes

*** tstart() called on Joses-MacBook-Pro-2.local
*** at Thu Jul 17 12:30:11 2025


         ------------------------------------------------------------
                                   SCF GRAD                          
                          Rob Parrish, Justin Turney,                
                       Andy Simmonett, and Alex Sokolov              
         ------------------------------------------------------------

  ==> Geometry <==

    Molecular point group: c2v
    Full point group: C_inf_v

    Geometry (in Angstrom), charge = 1, multiplicity = 2:

       Center              X                  Y                   Z               Mass       
    ------------   -----------------  -----------------  -----------------  -----------------
         HE           0.000000000000     0.000000000000     1.504621337037     4.002603254130
         MG           0.000000000000     0.000000000000    -0.251089922458    23.985041697000

  Nuclear repulsion =    7.233679790677554

  ==> Basis Set <==

  Basis Set: CC-PVDZ
    Blend: CC-PVDZ
    Number of shells: 11
    Number of basis functions: 23
    Number of Cartesian functions: 24
    Spherical Harmonics?: true
    Max angular momentum: 2

  ==> DFJKGrad: Density-Fitted SCF Gradients <==

    Gradient:                    1
    J tasked:                  Yes
    K tasked:                  Yes
    wK tasked:                  No
    OpenMP threads:              1
    Integrals threads:           1
    Memory [MiB]:              375
    Schwarz Cutoff:          1E-12
    Fitting Condition:       1E-10

   => Auxiliary Basis Set <=

  Basis Set: (CC-PVDZ AUX)
    Blend: DEF2-UNIVERSAL-JKFIT
    Number of shells: 43
    Number of basis functions: 135
    Number of Cartesian functions: 162
    Spherical Harmonics?: true
    Max angular momentum: 4

  ==> DFT Potential <==

   => LibXC <=

    Version 6.2.2
    S. Lehtola, C. Steigemann, M. J.T. Oliveira, and M. A.L. Marques.,  SoftwareX 7, 1–5 (2018) (10.1016/j.softx.2017.11.002)

   => Composite Functional: B3LYP <= 

    B3LYP Hyb-GGA Exchange-Correlation Functional

    P. J. Stephens, F. J. Devlin, C. F. Chabalowski, and M. J. Frisch.,  J. Phys. Chem. 98, 11623 (1994) (10.1021/j100096a001)

    Deriv               =              1
    GGA                 =           TRUE
    Meta                =          FALSE

    Exchange Hybrid     =           TRUE
    MP2 Hybrid          =          FALSE

   => Exchange Functionals <=

    0.0800   Slater exchange
    0.7200         Becke 88

   => Exact (HF) Exchange <=

    0.2000               HF 

   => Correlation Functionals <=

    0.1900   Vosko, Wilk & Nusair (VWN5_RPA)
    0.8100   Lee, Yang & Parr

   => LibXC Density Thresholds  <==

    XC_HYB_GGA_XC_B3LYP:  1.00E-15 

   => Molecular Quadrature <=

    Radial Scheme          =       TREUTLER
    Pruning Scheme         =           NONE
    Nuclear Scheme         =       TREUTLER

    Blocking Scheme        =         OCTREE
    BS radius alpha        =              1
    Pruning alpha          =              1
    Radial Points          =             75
    Spherical Points       =            302
    Total Points           =          43429
    Total Blocks           =            398
    Max Points             =            254
    Max Functions          =             23
    Weights Tolerance      =       1.00E-15


  -Total Gradient:
     Atom            X                  Y                   Z
    ------   -----------------  -----------------  -----------------
       1       -0.000000000000     0.000000000000    -0.035144806482
       2        0.000000000000     0.000000000000     0.035173882745


*** tstop() called on Joses-MacBook-Pro-2.local at Thu Jul 17 12:30:11 2025
Module time:
	user time   =       0.71 seconds =       0.01 minutes
	system time =       1.17 seconds =       0.02 minutes
	total time  =          0 seconds =       0.00 minutes
Total time:
	user time   =      14.15 seconds =       0.24 minutes
	system time =      17.69 seconds =       0.29 minutes
	total time  =          3 seconds =       0.05 minutes

    			-----------------------------------------

    			 OPTKING 3.0: for geometry optimizations 

    			     By R.A. King, Bethel University     

    			        with contributions from          

    			    A.V. Copan, J. Cayton, A. Heide      

    			-----------------------------------------

    
	                            ===> Fragment 1 <== 

	 Z (Atomic Numbers)          Masses                          Geom                  
	       2.000000             4.002603          0.00000000  0.00000000  2.84332225   
	      12.000000            23.985042          0.00000000  0.00000000 -0.47449119   

	 - Coordinate -           - BOHR/RAD -       - ANG/DEG -
	 R(1,2)           =         3.317813           1.755711


	        --- Internal Coordinate Step in ANG or DEG, aJ/ANG or AJ/DEG ---
	-------------------------------------------------------------------------------
	           Coordinate      Previous         Force          Change          New 
	           ----------      --------        ------          ------        ------
	               R(1,2)       1.75571        0.28967        0.16137       1.91708
	-------------------------------------------------------------------------------

	                                 ==> Convergence Check <==                                  
    
	Measures of convergence in internal coordinates in au.
    
	Criteria marked as inactive (o), active & met (*), and active & unmet ( ).

	----------------------------------------------------------------------------------------------
	   Step    Total Energy     Delta E     Max Force     RMS Force      Max Disp      RMS Disp   
	----------------------------------------------------------------------------------------------
	  Convergence Criteria     1.00e-06 *    3.00e-04 *             o    1.20e-03 *             o
	----------------------------------------------------------------------------------------------
	     4    -202.69631120   -1.63e-02      3.52e-02      3.52e-02 o    3.05e-01      3.05e-01 o  ~
	----------------------------------------------------------------------------------------------

Next Geometry in Ang 
	Fragment 1 (Ang)

	   He   0.0000000000   0.0000000000   1.5853072392
	   Mg   0.0000000000   0.0000000000  -0.3317758246


    Structure for next step:
    Molecular point group: c2v
    Full point group: C_inf_v

    Geometry (in Angstrom), charge = 1, multiplicity = 2:

    HE           0.000000000000     0.000000000000     1.642914839855
    MG           0.000000000000     0.000000000000    -0.274168223985


Scratch directory: /tmp/
gradient() will perform analytic gradient computation.
   => Libint2 <=

    Primary   basis highest AM E, G, H:  6, 6, 3
    Auxiliary basis highest AM E, G, H:  7, 7, 4
    Onebody   basis highest AM E, G, H:  -, -, -
    Solid Harmonics ordering:            Gaussian

*** tstart() called on Joses-MacBook-Pro-2.local
*** at Thu Jul 17 12:30:11 2025

   => Loading Basis Set <=

    Name: CC-PVDZ
    Role: ORBITAL
    Keyword: BASIS
    atoms 1 entry HE         line    32 file /Users/joseantoniorodriguesromero/anaconda3/share/psi4/basis/cc-pvdz.gbs 
    atoms 2 entry MG         line   353 file /Users/joseantoniorodriguesromero/anaconda3/share/psi4/basis/cc-pvdz.gbs 


         ---------------------------------------------------------
                                   SCF
               by Justin Turney, Rob Parrish, Andy Simmonett
                          and Daniel G. A. Smith
                              UKS Reference
                        1 Threads,    500 MiB Core
         ---------------------------------------------------------

  ==> Geometry <==

    Molecular point group: c2v
    Full point group: C_inf_v

    Geometry (in Angstrom), charge = 1, multiplicity = 2:

       Center              X                  Y                   Z               Mass       
    ------------   -----------------  -----------------  -----------------  -----------------
         HE           0.000000000000     0.000000000000     1.642914839855     4.002603254130
         MG           0.000000000000     0.000000000000    -0.274168223985    23.985041697000

  Running in c2v symmetry.

  Rotational constants: A = ************  B =      1.33720  C =      1.33720 [cm^-1]
  Rotational constants: A = ************  B =  40088.39530  C =  40088.39530 [MHz]
  Nuclear repulsion =    6.624779747751253

  Charge       = 1
  Multiplicity = 2
  Electrons    = 13
  Nalpha       = 7
  Nbeta        = 6

  ==> Algorithm <==

  SCF Algorithm Type is DF.
  DIIS enabled.
  MOM disabled.
  Fractional occupation disabled.
  Guess Type is READ.
  Energy threshold   = 1.00e-08
  Density threshold  = 1.00e-08
  Integral threshold = 1.00e-12

  ==> Primary Basis <==

  Basis Set: CC-PVDZ
    Blend: CC-PVDZ
    Number of shells: 11
    Number of basis functions: 23
    Number of Cartesian functions: 24
    Spherical Harmonics?: true
    Max angular momentum: 2

  ==> DFT Potential <==

   => LibXC <=

    Version 6.2.2
    S. Lehtola, C. Steigemann, M. J.T. Oliveira, and M. A.L. Marques.,  SoftwareX 7, 1–5 (2018) (10.1016/j.softx.2017.11.002)

   => Composite Functional: B3LYP <= 

    B3LYP Hyb-GGA Exchange-Correlation Functional

    P. J. Stephens, F. J. Devlin, C. F. Chabalowski, and M. J. Frisch.,  J. Phys. Chem. 98, 11623 (1994) (10.1021/j100096a001)

    Deriv               =              1
    GGA                 =           TRUE
    Meta                =          FALSE

    Exchange Hybrid     =           TRUE
    MP2 Hybrid          =          FALSE

   => Exchange Functionals <=

    0.0800   Slater exchange
    0.7200         Becke 88

   => Exact (HF) Exchange <=

    0.2000               HF 

   => Correlation Functionals <=

    0.1900   Vosko, Wilk & Nusair (VWN5_RPA)
    0.8100   Lee, Yang & Parr

   => LibXC Density Thresholds  <==

    XC_HYB_GGA_XC_B3LYP:  1.00E-15 

   => Molecular Quadrature <=

    Radial Scheme          =       TREUTLER
    Pruning Scheme         =           NONE
    Nuclear Scheme         =       TREUTLER

    Blocking Scheme        =         OCTREE
    BS radius alpha        =              1
    Pruning alpha          =              1
    Radial Points          =             75
    Spherical Points       =            302
    Total Points           =          43447
    Total Blocks           =            397
    Max Points             =            255
    Max Functions          =             23
    Weights Tolerance      =       1.00E-15

   => Loading Basis Set <=

    Name: (CC-PVDZ AUX)
    Role: JKFIT
    Keyword: DF_BASIS_SCF
    atoms 1 entry HE         line    34 file /Users/joseantoniorodriguesromero/anaconda3/share/psi4/basis/def2-universal-jkfit.gbs 
    atoms 2 entry MG         line   576 file /Users/joseantoniorodriguesromero/anaconda3/share/psi4/basis/def2-universal-jkfit.gbs 

   => Loading Basis Set <=

    Name: CC-PVDZ
    Role: ORBITAL
    Keyword: BASIS
    atoms 1 entry HE         line    32 file /Users/joseantoniorodriguesromero/anaconda3/share/psi4/basis/cc-pvdz.gbs 
    atoms 2 entry MG         line   353 file /Users/joseantoniorodriguesromero/anaconda3/share/psi4/basis/cc-pvdz.gbs 

  Reading orbitals from file /tmp/doublet_HeMg.default.73779.180.npy, no projection.

  ==> Integral Setup <==

  DFHelper Memory: AOs need 0.001 GiB; user supplied 0.337 GiB. 
  Using in-core AOs.

  ==> MemDFJK: Density-Fitted J/K Matrices <==

    J tasked:                   Yes
    K tasked:                   Yes
    wK tasked:                   No
    OpenMP threads:               1
    Memory [MiB]:               345
    Algorithm:                 Core
    Schwarz Cutoff:           1E-12
    Mask sparsity (%):       0.0000
    Fitting Condition:        1E-10

   => Auxiliary Basis Set <=

  Basis Set: (CC-PVDZ AUX)
    Blend: DEF2-UNIVERSAL-JKFIT
    Number of shells: 43
    Number of basis functions: 135
[...]

	 - Coordinate -           - BOHR/RAD -       - ANG/DEG -
	 R(1,2)           =         5.742364           3.038728


	        --- Internal Coordinate Step in ANG or DEG, aJ/ANG or AJ/DEG ---
	-------------------------------------------------------------------------------
	           Coordinate      Previous         Force          Change          New 
	           ----------      --------        ------          ------        ------
	               R(1,2)       3.03873        0.00023        0.01060       3.04933
	-------------------------------------------------------------------------------

	                                 ==> Convergence Check <==                                  
    
	Measures of convergence in internal coordinates in au.
    
	Criteria marked as inactive (o), active & met (*), and active & unmet ( ).

	----------------------------------------------------------------------------------------------
	   Step    Total Energy     Delta E     Max Force     RMS Force      Max Disp      RMS Disp   
	----------------------------------------------------------------------------------------------
	  Convergence Criteria     1.00e-06 *    3.00e-04 *             o    1.20e-03 *             o
	----------------------------------------------------------------------------------------------
	    13    -202.71426776   -3.25e-06      2.82e-05 *    2.82e-05 o    2.00e-02      2.00e-02 o  ~
	----------------------------------------------------------------------------------------------

Next Geometry in Ang 
	Fragment 1 (Ang)

	   He   0.0000000000   0.0000000000   2.6094517385
	   Mg   0.0000000000   0.0000000000  -0.4398802143


    Structure for next step:
    Molecular point group: c2v
    Full point group: C_inf_v

    Geometry (in Angstrom), charge = 1, multiplicity = 2:

    HE           0.000000000000     0.000000000000     2.613237168184
    MG           0.000000000000     0.000000000000    -0.436094784630


Scratch directory: /tmp/
gradient() will perform analytic gradient computation.
   => Libint2 <=

    Primary   basis highest AM E, G, H:  6, 6, 3
    Auxiliary basis highest AM E, G, H:  7, 7, 4
    Onebody   basis highest AM E, G, H:  -, -, -
    Solid Harmonics ordering:            Gaussian

*** tstart() called on Joses-MacBook-Pro-2.local
*** at Thu Jul 17 12:30:18 2025

   => Loading Basis Set <=

    Name: CC-PVDZ
    Role: ORBITAL
    Keyword: BASIS
    atoms 1 entry HE         line    32 file /Users/joseantoniorodriguesromero/anaconda3/share/psi4/basis/cc-pvdz.gbs 
    atoms 2 entry MG         line   353 file /Users/joseantoniorodriguesromero/anaconda3/share/psi4/basis/cc-pvdz.gbs 


         ---------------------------------------------------------
                                   SCF
               by Justin Turney, Rob Parrish, Andy Simmonett
                          and Daniel G. A. Smith
                              UKS Reference
                        1 Threads,    500 MiB Core
         ---------------------------------------------------------

  ==> Geometry <==

    Molecular point group: c2v
    Full point group: C_inf_v

    Geometry (in Angstrom), charge = 1, multiplicity = 2:

       Center              X                  Y                   Z               Mass       
    ------------   -----------------  -----------------  -----------------  -----------------
         HE           0.000000000000     0.000000000000     2.613237168184     4.002603254130
         MG           0.000000000000     0.000000000000    -0.436094784630    23.985041697000

  Running in c2v symmetry.

  Rotational constants: A = ************  B =      0.52853  C =      0.52853 [cm^-1]
  Rotational constants: A = ************  B =  15844.95916  C =  15844.95916 [MHz]
  Nuclear repulsion =    4.164929647741064

  Charge       = 1
  Multiplicity = 2
  Electrons    = 13
  Nalpha       = 7
  Nbeta        = 6

  ==> Algorithm <==

  SCF Algorithm Type is DF.
  DIIS enabled.
  MOM disabled.
  Fractional occupation disabled.
  Guess Type is READ.
  Energy threshold   = 1.00e-08
  Density threshold  = 1.00e-08
  Integral threshold = 1.00e-12

  ==> Primary Basis <==

  Basis Set: CC-PVDZ
    Blend: CC-PVDZ
    Number of shells: 11
    Number of basis functions: 23
    Number of Cartesian functions: 24
    Spherical Harmonics?: true
    Max angular momentum: 2

  ==> DFT Potential <==

   => LibXC <=

    Version 6.2.2
    S. Lehtola, C. Steigemann, M. J.T. Oliveira, and M. A.L. Marques.,  SoftwareX 7, 1–5 (2018) (10.1016/j.softx.2017.11.002)

   => Composite Functional: B3LYP <= 

    B3LYP Hyb-GGA Exchange-Correlation Functional

    P. J. Stephens, F. J. Devlin, C. F. Chabalowski, and M. J. Frisch.,  J. Phys. Chem. 98, 11623 (1994) (10.1021/j100096a001)

    Deriv               =              1
    GGA                 =           TRUE
    Meta                =          FALSE

    Exchange Hybrid     =           TRUE
    MP2 Hybrid          =          FALSE

   => Exchange Functionals <=

    0.0800   Slater exchange
    0.7200         Becke 88

   => Exact (HF) Exchange <=

    0.2000               HF 

   => Correlation Functionals <=

    0.1900   Vosko, Wilk & Nusair (VWN5_RPA)
    0.8100   Lee, Yang & Parr

   => LibXC Density Thresholds  <==

    XC_HYB_GGA_XC_B3LYP:  1.00E-15 

   => Molecular Quadrature <=

    Radial Scheme          =       TREUTLER
    Pruning Scheme         =           NONE
    Nuclear Scheme         =       TREUTLER

    Blocking Scheme        =         OCTREE
    BS radius alpha        =              1
    Pruning alpha          =              1
    Radial Points          =             75
    Spherical Points       =            302
    Total Points           =          43529
    Total Blocks           =            405
    Max Points             =            255
    Max Functions          =             23
    Weights Tolerance      =       1.00E-15

   => Loading Basis Set <=

    Name: (CC-PVDZ AUX)
    Role: JKFIT
    Keyword: DF_BASIS_SCF
    atoms 1 entry HE         line    34 file /Users/joseantoniorodriguesromero/anaconda3/share/psi4/basis/def2-universal-jkfit.gbs 
    atoms 2 entry MG         line   576 file /Users/joseantoniorodriguesromero/anaconda3/share/psi4/basis/def2-universal-jkfit.gbs 

   => Loading Basis Set <=

    Name: CC-PVDZ
    Role: ORBITAL
    Keyword: BASIS
    atoms 1 entry HE         line    32 file /Users/joseantoniorodriguesromero/anaconda3/share/psi4/basis/cc-pvdz.gbs 
    atoms 2 entry MG         line   353 file /Users/joseantoniorodriguesromero/anaconda3/share/psi4/basis/cc-pvdz.gbs 

  Reading orbitals from file /tmp/doublet_HeMg.default.73779.180.npy, no projection.

  ==> Integral Setup <==

  DFHelper Memory: AOs need 0.001 GiB; user supplied 0.339 GiB. 
  Using in-core AOs.

  ==> MemDFJK: Density-Fitted J/K Matrices <==

    J tasked:                   Yes
    K tasked:                   Yes
    wK tasked:                   No
    OpenMP threads:               1
    Memory [MiB]:               346
    Algorithm:                 Core
    Schwarz Cutoff:           1E-12
    Mask sparsity (%):       0.0000
    Fitting Condition:        1E-10

   => Auxiliary Basis Set <=

  Basis Set: (CC-PVDZ AUX)
    Blend: DEF2-UNIVERSAL-JKFIT
    Number of shells: 43
    Number of basis functions: 135
    Number of Cartesian functions: 162
    Spherical Harmonics?: true
    Max angular momentum: 4

  Cached 100.0% of DFT collocation blocks in 0.028 [GiB].

  Minimum eigenvalue in the overlap matrix is 3.8708811293E-02.
  Reciprocal condition number of the overlap matrix is 1.7127764041E-02.
    Using symmetric orthogonalization.

  ==> Pre-Iterations <==

  SCF Guess: Orbitals guess was supplied from a previous computation.

   -------------------------------------------------------
    Irrep   Nso     Nmo     Nalpha   Nbeta   Ndocc  Nsocc
   -------------------------------------------------------
     A1        12      12       5       4       4       1
     A2         1       1       0       0       0       0
     B1         5       5       1       1       1       0
     B2         5       5       1       1       1       0
   -------------------------------------------------------
    Total      23      23       7       6       6       1
   -------------------------------------------------------

  ==> Iterations <==

                           Total Energy        Delta E     RMS |[F,P]|

   @DF-UKS iter   0:  -202.71402384265954   -2.02714e+02   3.96132e-05 
   @DF-UKS iter   1:  -202.71426820859574   -2.44366e-04   8.72240e-06 DIIS
   @DF-UKS iter   2:  -202.71426821590140   -7.30566e-09   2.41207e-06 DIIS/DAMP=1%
   @DF-UKS iter   3:  -202.71426811286963    1.03032e-07   1.36862e-07 DIIS/DAMP=1%
   @DF-UKS iter   4:  -202.71426821840990   -1.05540e-07   2.10820e-08 DIIS/DAMP=1%
   @DF-UKS iter   5:  -202.71426821527049    3.13941e-09   1.47175e-09 DIIS/DAMP=1%
  Energy and wave function converged.


  ==> Post-Iterations <==

   Electrons on quadrature grid:
      Nalpha   =    6.9999921239 ; deviation = -7.876e-06
      Nbeta    =    5.9999921614 ; deviation = -7.839e-06
      Ntotal   =   12.9999842853 ; deviation = -1.571e-05 

   @Spin Contamination Metric:   1.312542183E-05
   @S^2 Expected:                7.500000000E-01
   @S^2 Observed:                7.500131254E-01
   @S   Expected:                5.000000000E-01
   @S   Observed:                5.000000000E-01

    Orbital Energies [Eh]
    ---------------------

    Alpha Occupied:                                                       

       1A1   -47.168159     2A1    -3.438579     3A1    -2.181437  
       1B2    -2.181419     1B1    -2.181419     4A1    -0.833421  
       5A1    -0.461971  

    Alpha Virtual:                                                        

       2B2    -0.255941     2B1    -0.255941     6A1    -0.249283  
       7A1    -0.076577     3B1    -0.031842     3B2    -0.031842  
       8A1    -0.027948     9A1     0.054055     1A2     0.054055  
       4B2     0.054184     4B1     0.054184    10A1     0.058187  
      11A1     1.045208     5B1     2.010120     5B2     2.010120  
      12A1     2.017871  

    Beta Occupied:                                                        

       1A1   -47.164793     2A1    -3.432361     3A1    -2.177319  
       1B2    -2.177296     1B1    -2.177296     4A1    -0.832544  

    Beta Virtual:                                                         

       5A1    -0.368626     2B1    -0.214213     2B2    -0.214213  
       6A1    -0.211241     7A1    -0.062229     8A1    -0.015637  
       3B1    -0.015442     3B2    -0.015442     9A1     0.096093  
       4B2     0.096649     4B1     0.096649    10A1     0.097055  
       1A2     0.097057    11A1     1.046465     5B1     2.010624  
       5B2     2.010624    12A1     2.018639  

    Final Occupation by Irrep:
             A1    A2    B1    B2 
    DOCC [     4,    0,    1,    1 ]
    SOCC [     1,    0,    0,    0 ]
    NA   [     5,    0,    1,    1 ]
    NB   [     4,    0,    1,    1 ]

  @DF-UKS Final Energy:  -202.71426821527049

   => Energetics <=

    Nuclear Repulsion Energy =              4.1649296477410642
    One-Electron Energy =                -287.3610769995894998
    Two-Electron Energy =                  94.4591826430805810
    DFT Exchange-Correlation Energy =     -13.9773035065026239
    Empirical Dispersion Energy =           0.0000000000000000
    VV10 Nonlocal Energy =                  0.0000000000000000
    Total Energy =                       -202.7142682152704936

  UHF NO Occupations:
  HONO-2 :    1 B1 1.9999985
  HONO-1 :    4 A1 1.9999974
  HONO-0 :    5 A1 1.0000000
  LUNO+0 :    6 A1 0.0000026
  LUNO+1 :    2 B1 0.0000015
  LUNO+2 :    2 B2 0.0000015
  LUNO+3 :    7 A1 0.0000009


Computation Completed


Properties will be evaluated at   0.000000,   0.000000,   0.000000 [a0]

Properties computed using the SCF density matrix


 Multipole Moments:

 ------------------------------------------------------------------------------------
     Multipole            Electronic (a.u.)      Nuclear  (a.u.)        Total (a.u.)
 ------------------------------------------------------------------------------------

 L = 1.  Multiply by 2.5417464519 to convert [e a0] to [Debye]
 Dipole X            :          0.0000000            0.0000000            0.0000000
 Dipole Y            :          0.0000000            0.0000000            0.0000000
 Dipole Z            :         -0.7231920           -0.0125914           -0.7357834
 Magnitude           :                                                    0.7357834

 ------------------------------------------------------------------------------------

*** tstop() called on Joses-MacBook-Pro-2.local at Thu Jul 17 12:30:18 2025
Module time:
	user time   =       2.00 seconds =       0.03 minutes
	system time =       2.27 seconds =       0.04 minutes
	total time  =          0 seconds =       0.00 minutes
Total time:
	user time   =      46.25 seconds =       0.77 minutes
	system time =      58.64 seconds =       0.98 minutes
	total time  =         10 seconds =       0.17 minutes

*** tstart() called on Joses-MacBook-Pro-2.local
*** at Thu Jul 17 12:30:18 2025


         ------------------------------------------------------------
                                   SCF GRAD                          
                          Rob Parrish, Justin Turney,                
                       Andy Simmonett, and Alex Sokolov              
         ------------------------------------------------------------

  ==> Geometry <==

    Molecular point group: c2v
    Full point group: C_inf_v

    Geometry (in Angstrom), charge = 1, multiplicity = 2:

       Center              X                  Y                   Z               Mass       
    ------------   -----------------  -----------------  -----------------  -----------------
         HE           0.000000000000     0.000000000000     2.613237168184     4.002603254130
         MG           0.000000000000     0.000000000000    -0.436094784630    23.985041697000

  Nuclear repulsion =    4.164929647741064

  ==> Basis Set <==

  Basis Set: CC-PVDZ
    Blend: CC-PVDZ
    Number of shells: 11
    Number of basis functions: 23
    Number of Cartesian functions: 24
    Spherical Harmonics?: true
    Max angular momentum: 2

  ==> DFJKGrad: Density-Fitted SCF Gradients <==

    Gradient:                    1
    J tasked:                  Yes
    K tasked:                  Yes
    wK tasked:                  No
    OpenMP threads:              1
    Integrals threads:           1
    Memory [MiB]:              375
    Schwarz Cutoff:          1E-12
    Fitting Condition:       1E-10

   => Auxiliary Basis Set <=

  Basis Set: (CC-PVDZ AUX)
    Blend: DEF2-UNIVERSAL-JKFIT
    Number of shells: 43
    Number of basis functions: 135
    Number of Cartesian functions: 162
    Spherical Harmonics?: true
    Max angular momentum: 4

  ==> DFT Potential <==

   => LibXC <=

    Version 6.2.2
    S. Lehtola, C. Steigemann, M. J.T. Oliveira, and M. A.L. Marques.,  SoftwareX 7, 1–5 (2018) (10.1016/j.softx.2017.11.002)

   => Composite Functional: B3LYP <= 

    B3LYP Hyb-GGA Exchange-Correlation Functional

    P. J. Stephens, F. J. Devlin, C. F. Chabalowski, and M. J. Frisch.,  J. Phys. Chem. 98, 11623 (1994) (10.1021/j100096a001)

    Deriv               =              1
    GGA                 =           TRUE
    Meta                =          FALSE

    Exchange Hybrid     =           TRUE
    MP2 Hybrid          =          FALSE

   => Exchange Functionals <=

    0.0800   Slater exchange
    0.7200         Becke 88

   => Exact (HF) Exchange <=

    0.2000               HF 

   => Correlation Functionals <=

    0.1900   Vosko, Wilk & Nusair (VWN5_RPA)
    0.8100   Lee, Yang & Parr

   => LibXC Density Thresholds  <==

    XC_HYB_GGA_XC_B3LYP:  1.00E-15 

   => Molecular Quadrature <=

    Radial Scheme          =       TREUTLER
    Pruning Scheme         =           NONE
    Nuclear Scheme         =       TREUTLER

    Blocking Scheme        =         OCTREE
    BS radius alpha        =              1
    Pruning alpha          =              1
    Radial Points          =             75
    Spherical Points       =            302
    Total Points           =          43529
    Total Blocks           =            405
    Max Points             =            255
    Max Functions          =             23
    Weights Tolerance      =       1.00E-15


  -Total Gradient:
     Atom            X                  Y                   Z
    ------   -----------------  -----------------  -----------------
       1       -0.000000000000     0.000000000000    -0.000023585764
       2        0.000000000000    -0.000000000000    -0.000004195548


*** tstop() called on Joses-MacBook-Pro-2.local at Thu Jul 17 12:30:18 2025
Module time:
	user time   =       0.70 seconds =       0.01 minutes
	system time =       1.16 seconds =       0.02 minutes
	total time  =          0 seconds =       0.00 minutes
Total time:
	user time   =      46.95 seconds =       0.78 minutes
	system time =      59.80 seconds =       1.00 minutes
	total time  =         10 seconds =       0.17 minutes

    			-----------------------------------------

    			 OPTKING 3.0: for geometry optimizations 

    			     By R.A. King, Bethel University     

    			        with contributions from          

    			    A.V. Copan, J. Cayton, A. Heide      

    			-----------------------------------------

    
	                            ===> Fragment 1 <== 

	 Z (Atomic Numbers)          Masses                          Geom                  
	       2.000000             4.002603          0.00000000  0.00000000  4.93830255   
	      12.000000            23.985042          0.00000000  0.00000000 -0.82409971   

	 - Coordinate -           - BOHR/RAD -       - ANG/DEG -
	 R(1,2)           =         5.762402           3.049332


	        --- Internal Coordinate Step in ANG or DEG, aJ/ANG or AJ/DEG ---
	-------------------------------------------------------------------------------
	           Coordinate      Previous         Force          Change          New 
	           ----------      --------        ------          ------        ------
	               R(1,2)       3.04933        0.00008        0.00371       3.05304
	-------------------------------------------------------------------------------

	                                 ==> Convergence Check <==                                  
    
	Measures of convergence in internal coordinates in au.
    
	Criteria marked as inactive (o), active & met (*), and active & unmet ( ).

	----------------------------------------------------------------------------------------------
	   Step    Total Energy     Delta E     Max Force     RMS Force      Max Disp      RMS Disp   
	----------------------------------------------------------------------------------------------
	  Convergence Criteria     1.00e-06 *    3.00e-04 *             o    1.20e-03 *             o
	----------------------------------------------------------------------------------------------
	    14    -202.71426822   -4.54e-07 *    9.70e-06 *    9.70e-06 o    7.01e-03      7.01e-03 o  ~
	----------------------------------------------------------------------------------------------

Next Geometry in Ang 
	Fragment 1 (Ang)

	   He   0.0000000000   0.0000000000   2.6150907028
	   Mg   0.0000000000   0.0000000000  -0.4379483193


    Final optimized geometry and variables:
    Molecular point group: c2v
    Full point group: C_inf_v

    Geometry (in Angstrom), charge = 1, multiplicity = 2:

    HE           0.000000000000     0.000000000000     2.613237168184
    MG           0.000000000000     0.000000000000    -0.436094784630


    Psi4 stopped on: Thursday, 17 July 2025 12:30PM
    Psi4 wall time for execution: 0:00:10.78

*** Psi4 exiting successfully. Buy a developer a beer!
