
    -----------------------------------------------------------------------
          Psi4: An Open-Source Ab Initio Electronic Structure Package
                               Psi4 1.9.1 release

                         Git: Rev {} zzzzzzz 


    D. G. A. Smith, L. A. Burns, A. C. Simmonett, R. M. Parrish,
    M. C. Schieber, R. Galvelis, P. Kraus, H. Kruse, R. Di Remigio,
    A. Alenaizan, A. M. James, S. Lehtola, J. P. Misiewicz, M. Scheurer,
    R. A. Shaw, J. B. Schriber, Y. Xie, Z. L. Glick, D. A. Sirianni,
    J. S. O'Brien, J. M. Waldrop, A. Kumar, E. G. Hohenstein,
    B. P. Pritchard, B. R. Brooks, H. F. Schaefer III, A. Yu. Sokolov,
    K. Patkowski, A. E. DePrince III, U. Bozkaya, R. A. King,
    F. A. Evangelista, J. M. Turney, T. D. Crawford, C. D. Sherrill,
    J. Chem. Phys. 152(18) 184108 (2020). https://doi.org/10.1063/5.0006002

                            Additional Code Authors
    E. T. Seidl, C. L. Janssen, E. F. Valeev, M. L. Leininger,
    J. F. Gonthier, R. M. Richard, H. R. McAlexander, M. Saitow, X. Wang,
    P. Verma, M. H. Lechner, A. Jiang, S. Behnle, A. G. Heide,
    M. F. Herbst, and D. L. Poole

             Previous Authors, Complete List of Code Contributors,
                       and Citations for Specific Modules
    https://github.com/psi4/psi4/blob/master/codemeta.json
    https://github.com/psi4/psi4/graphs/contributors
    http://psicode.org/psi4manual/master/introduction.html#citing-psifour

    -----------------------------------------------------------------------


    Psi4 started on: Thursday, 17 July 2025 02:53PM

    Process ID: 74953
    Host:       Joses-MacBook-Pro-2.local
    PSIDATADIR: /Users/joseantoniorodriguesromero/anaconda3/share/psi4
    Memory:     500.0 MiB
    Threads:    1
    
  ==> Input File <==

--------------------------------------------------------------------------
molecule { 
1 2
Na   0.00000        0.60000        0.00000
P   0.00000       -0.60000        0.00000
}

set { 
basis              cc-pvdz
reference          uks
maxiter            500
geom_maxiter       500
DAMPING_PERCENTAGE 1
guess              SAP
}

optimize('b3lyp')
--------------------------------------------------------------------------

Scratch directory: /tmp/
gradient() will perform analytic gradient computation.
   => Libint2 <=

    Primary   basis highest AM E, G, H:  6, 6, 3
    Auxiliary basis highest AM E, G, H:  7, 7, 4
    Onebody   basis highest AM E, G, H:  -, -, -
    Solid Harmonics ordering:            Gaussian

*** tstart() called on Joses-MacBook-Pro-2.local
*** at Thu Jul 17 14:53:57 2025

   => Loading Basis Set <=

    Name: CC-PVDZ
    Role: ORBITAL
    Keyword: BASIS
    atoms 1 entry NA         line   288 file /Users/joseantoniorodriguesromero/anaconda3/share/psi4/basis/cc-pvdz.gbs 
    atoms 2 entry P          line   538 file /Users/joseantoniorodriguesromero/anaconda3/share/psi4/basis/cc-pvdz.gbs 


         ---------------------------------------------------------
                                   SCF
               by Justin Turney, Rob Parrish, Andy Simmonett
                          and Daniel G. A. Smith
                              UKS Reference
                        1 Threads,    500 MiB Core
         ---------------------------------------------------------

  ==> Geometry <==

    Molecular point group: c2v
    Full point group: C_inf_v

    Geometry (in Angstrom), charge = 1, multiplicity = 2:

       Center              X                  Y                   Z               Mass       
    ------------   -----------------  -----------------  -----------------  -----------------
         NA           0.000000000000     0.000000000000     0.688770981368    22.989769282000
         P            0.000000000000     0.000000000000    -0.511229018632    30.973761998420

  Running in c2v symmetry.

  Rotational constants: A = ************  B =      0.88717  C =      0.88717 [cm^-1]
  Rotational constants: A = ************  B =  26596.62310  C =  26596.62310 [MHz]
  Nuclear repulsion =   72.761866467125003

  Charge       = 1
  Multiplicity = 2
  Electrons    = 25
  Nalpha       = 13
  Nbeta        = 12

  ==> Algorithm <==

  SCF Algorithm Type is DF.
  DIIS enabled.
  MOM disabled.
  Fractional occupation disabled.
  Guess Type is SAP.
  Energy threshold   = 1.00e-08
  Density threshold  = 1.00e-08
  Integral threshold = 1.00e-12

  ==> Primary Basis <==

  Basis Set: CC-PVDZ
    Blend: CC-PVDZ
    Number of shells: 16
    Number of basis functions: 36
    Number of Cartesian functions: 38
    Spherical Harmonics?: true
    Max angular momentum: 2

  ==> DFT Potential <==

   => LibXC <=

    Version 6.2.2
    S. Lehtola, C. Steigemann, M. J.T. Oliveira, and M. A.L. Marques.,  SoftwareX 7, 1–5 (2018) (10.1016/j.softx.2017.11.002)

   => Composite Functional: B3LYP <= 

    B3LYP Hyb-GGA Exchange-Correlation Functional

    P. J. Stephens, F. J. Devlin, C. F. Chabalowski, and M. J. Frisch.,  J. Phys. Chem. 98, 11623 (1994) (10.1021/j100096a001)

    Deriv               =              1
    GGA                 =           TRUE
    Meta                =          FALSE

    Exchange Hybrid     =           TRUE
    MP2 Hybrid          =          FALSE

   => Exchange Functionals <=

    0.0800   Slater exchange
    0.7200         Becke 88

   => Exact (HF) Exchange <=

    0.2000               HF 

   => Correlation Functionals <=

    0.1900   Vosko, Wilk & Nusair (VWN5_RPA)
    0.8100   Lee, Yang & Parr

   => LibXC Density Thresholds  <==

    XC_HYB_GGA_XC_B3LYP:  1.00E-15 

   => Molecular Quadrature <=

    Radial Scheme          =       TREUTLER
    Pruning Scheme         =           NONE
    Nuclear Scheme         =       TREUTLER

    Blocking Scheme        =         OCTREE
    BS radius alpha        =              1
    Pruning alpha          =              1
    Radial Points          =             75
    Spherical Points       =            302
    Total Points           =          43712
    Total Blocks           =            437
    Max Points             =            256
    Max Functions          =             36
    Weights Tolerance      =       1.00E-15

   => Loading Basis Set <=

    Name: (CC-PVDZ AUX)
    Role: JKFIT
    Keyword: DF_BASIS_SCF
    atoms 1 entry NA         line   498 file /Users/joseantoniorodriguesromero/anaconda3/share/psi4/basis/def2-universal-jkfit.gbs 
    atoms 2 entry P          line   519 file /Users/joseantoniorodriguesromero/anaconda3/share/psi4/basis/cc-pvdz-jkfit.gbs 

  ==> Integral Setup <==

  DFHelper Memory: AOs need 0.003 GiB; user supplied 0.322 GiB. 
  Using in-core AOs.

  ==> MemDFJK: Density-Fitted J/K Matrices <==

    J tasked:                   Yes
    K tasked:                   Yes
    wK tasked:                   No
    OpenMP threads:               1
    Memory [MiB]:               330
    Algorithm:                 Core
    Schwarz Cutoff:           1E-12
    Mask sparsity (%):       0.0000
    Fitting Condition:        1E-10

   => Auxiliary Basis Set <=

  Basis Set: (CC-PVDZ AUX)
    Blend: CC-PVDZ-JKFIT + DEF2-UNIVERSAL-JKFIT
    Number of shells: 70
    Number of basis functions: 224
    Number of Cartesian functions: 267
    Spherical Harmonics?: true
    Max angular momentum: 4

  Cached 100.0% of DFT collocation blocks in 0.044 [GiB].

  Minimum eigenvalue in the overlap matrix is 2.6819789373E-03.
  Reciprocal condition number of the overlap matrix is 8.8834017281E-04.
    Using symmetric orthogonalization.

  ==> Pre-Iterations <==

  SCF Guess: Superposition of Atomic Potentials (doi:10.1021/acs.jctc.8b01089).

  ==> SAP guess <==

   => Molecular Quadrature <=

    Radial Scheme          =       TREUTLER
    Pruning Scheme         =           NONE
    Nuclear Scheme         =       TREUTLER

    Blocking Scheme        =         OCTREE
    BS radius alpha        =              1
    Pruning alpha          =              1
    Radial Points          =             75
    Spherical Points       =            302
    Total Points           =          43712
    Total Blocks           =            437
    Max Points             =            256
    Max Functions          =             36
    Weights Tolerance      =       1.00E-15

   -------------------------------------------------------
    Irrep   Nso     Nmo     Nalpha   Nbeta   Ndocc  Nsocc
   -------------------------------------------------------
     A1        18      18       7       7       7       0
     A2         2       2       0       0       0       0
     B1         8       8       3       3       3       0
     B2         8       8       3       2       2       1
   -------------------------------------------------------
    Total      36      36      13      12      12       1
   -------------------------------------------------------

  ==> Iterations <==

                           Total Energy        Delta E     RMS |[F,P]|

   @DF-UKS iter   1:  -502.45731093254966   -5.02457e+02   9.46261e-03 DIIS/ADIIS
   @DF-UKS iter   2:  -502.47411003255678   -1.67991e-02   3.23594e-03 DIIS/ADIIS/DAMP=1%
   @DF-UKS iter   3:  -502.47310773420327    1.00230e-03   5.22206e-04 DIIS/ADIIS/DAMP=1%
   @DF-UKS iter   4:  -502.47810774141709   -5.00001e-03   1.14148e-04 DIIS/ADIIS/DAMP=1%
   @DF-UKS iter   5:  -502.47723821299371    8.69528e-04   4.06987e-05 DIIS/DAMP=1%
   @DF-UKS iter   6:  -502.47735010288301   -1.11890e-04   1.30540e-05 DIIS/DAMP=1%
   @DF-UKS iter   7:  -502.47734820065966    1.90222e-06   2.34557e-06 DIIS/DAMP=1%
   @DF-UKS iter   8:  -502.47734281307260    5.38759e-06   1.88314e-07 DIIS/DAMP=1%
   @DF-UKS iter   9:  -502.47734427911263   -1.46604e-06   8.74929e-09 DIIS/DAMP=1%
   @DF-UKS iter  10:  -502.47734416023860    1.18874e-07   1.31741e-09 DIIS/DAMP=1%
   @DF-UKS iter  11:  -502.47734416679214   -6.55353e-09   5.87499e-11 DIIS/DAMP=1%
  Energy and wave function converged.


  ==> Post-Iterations <==

   Electrons on quadrature grid:
      Nalpha   =   12.9999937244 ; deviation = -6.276e-06
      Nbeta    =   11.9999940114 ; deviation = -5.989e-06
      Ntotal   =   24.9999877359 ; deviation = -1.226e-05 

   @Spin Contamination Metric:   4.834311483E-03
   @S^2 Expected:                7.500000000E-01
   @S^2 Observed:                7.548343115E-01
   @S   Expected:                5.000000000E-01
   @S   Observed:                5.000000000E-01

    Orbital Energies [Eh]
    ---------------------

    Alpha Occupied:                                                       

       1A1   -77.437917     2A1   -39.106850     3A1    -6.947821  
       4A1    -5.130253     1B2    -5.097570     1B1    -5.079298  
       5A1    -2.916138     6A1    -1.848063     2B2    -1.780514  
       2B1    -1.770614     7A1    -0.784630     3B2    -0.541242  
       3B1    -0.495020  

    Alpha Virtual:                                                        

       8A1    -0.336064     9A1    -0.190253     4B2    -0.148711  
       4B1    -0.143659    10A1    -0.127904     1A2    -0.088719  
      11A1    -0.087621    12A1    -0.069633     5B2    -0.065263  
       5B1    -0.061837    13A1     0.014097     6B2     0.049403  
       6B1     0.057109    14A1     0.105454     7B2     0.140722  
       7B1     0.170804     2A2     0.262367    15A1     0.263133  
      16A1     0.337589     8B2     0.377894     8B1     0.401816  
      17A1     0.562346    18A1     0.623839  

    Beta Occupied:                                                        

       1A1   -77.433015     2A1   -39.104600     3A1    -6.942551  
       4A1    -5.127645     1B2    -5.080337     1B1    -5.076236  
       5A1    -2.912483     6A1    -1.844828     2B2    -1.770361  
       2B1    -1.768937     7A1    -0.741871     3B1    -0.482134  

    Beta Virtual:                                                         

       3B2    -0.405603     8A1    -0.328392     9A1    -0.184206  
       4B1    -0.143610     4B2    -0.140570    10A1    -0.125487  
       1A2    -0.076738    11A1    -0.073968    12A1    -0.069305  
       5B2    -0.062108     5B1    -0.062092    13A1     0.018956  
       6B1     0.057207     6B2     0.058053    14A1     0.110918  
       7B1     0.176209     7B2     0.183055     2A2     0.297807  
      15A1     0.302249    16A1     0.340637     8B1     0.404115  
       8B2     0.406363    17A1     0.570690    18A1     0.640149  

    Final Occupation by Irrep:
             A1    A2    B1    B2 
    DOCC [     7,    0,    3,    2 ]
    SOCC [     0,    0,    0,    1 ]
    NA   [     7,    0,    3,    3 ]
    NB   [     7,    0,    3,    2 ]

  @DF-UKS Final Energy:  -502.47734416679214

   => Energetics <=

    Nuclear Repulsion Energy =             72.7618664671250031
    One-Electron Energy =                -831.5936845435592204
    Two-Electron Energy =                 286.7457158399162154
    DFT Exchange-Correlation Energy =     -30.3912419302740808
    Empirical Dispersion Energy =           0.0000000000000000
    VV10 Nonlocal Energy =                  0.0000000000000000
    Total Energy =                       -502.4773441667921361

  UHF NO Occupations:
  HONO-2 :    3 B1 1.9999065
  HONO-1 :    7 A1 1.9976774
  HONO-0 :    3 B2 1.0000000
  LUNO+0 :    8 A1 0.0023226
  LUNO+1 :    4 B1 0.0000935
  LUNO+2 :    4 B2 0.0000027
  LUNO+3 :    9 A1 0.0000009


Computation Completed


Properties will be evaluated at   0.000000,   0.000000,   0.000000 [a0]

Properties computed using the SCF density matrix


 Multipole Moments:

 ------------------------------------------------------------------------------------
     Multipole            Electronic (a.u.)      Nuclear  (a.u.)        Total (a.u.)
 ------------------------------------------------------------------------------------

 L = 1.  Multiply by 2.5417464519 to convert [e a0] to [Debye]
 Dipole X            :          0.0000000            0.0000000            0.0000000
 Dipole Y            :          0.0000000            0.0000000            0.0000000
 Dipole Z            :          1.5455910           -0.1737688            1.3718222
 Magnitude           :                                                    1.3718222

 ------------------------------------------------------------------------------------

*** tstop() called on Joses-MacBook-Pro-2.local at Thu Jul 17 14:53:59 2025
Module time:
	user time   =      22.69 seconds =       0.38 minutes
	system time =       2.05 seconds =       0.03 minutes
	total time  =          2 seconds =       0.03 minutes
Total time:
	user time   =      22.69 seconds =       0.38 minutes
	system time =       2.05 seconds =       0.03 minutes
	total time  =          2 seconds =       0.03 minutes

*** tstart() called on Joses-MacBook-Pro-2.local
*** at Thu Jul 17 14:53:59 2025


         ------------------------------------------------------------
                                   SCF GRAD                          
                          Rob Parrish, Justin Turney,                
                       Andy Simmonett, and Alex Sokolov              
         ------------------------------------------------------------

  ==> Geometry <==

    Molecular point group: c2v
    Full point group: C_inf_v

    Geometry (in Angstrom), charge = 1, multiplicity = 2:

       Center              X                  Y                   Z               Mass       
    ------------   -----------------  -----------------  -----------------  -----------------
         NA           0.000000000000     0.000000000000     0.688770981368    22.989769282000
         P            0.000000000000     0.000000000000    -0.511229018632    30.973761998420

  Nuclear repulsion =   72.761866467125003

  ==> Basis Set <==

  Basis Set: CC-PVDZ
    Blend: CC-PVDZ
    Number of shells: 16
    Number of basis functions: 36
    Number of Cartesian functions: 38
    Spherical Harmonics?: true
    Max angular momentum: 2

  ==> DFJKGrad: Density-Fitted SCF Gradients <==

    Gradient:                    1
    J tasked:                  Yes
    K tasked:                  Yes
    wK tasked:                  No
    OpenMP threads:              1
    Integrals threads:           1
    Memory [MiB]:              375
    Schwarz Cutoff:          1E-12
    Fitting Condition:       1E-10

   => Auxiliary Basis Set <=

  Basis Set: (CC-PVDZ AUX)
    Blend: CC-PVDZ-JKFIT + DEF2-UNIVERSAL-JKFIT
    Number of shells: 70
    Number of basis functions: 224
    Number of Cartesian functions: 267
    Spherical Harmonics?: true
    Max angular momentum: 4

  ==> DFT Potential <==

   => LibXC <=

    Version 6.2.2
    S. Lehtola, C. Steigemann, M. J.T. Oliveira, and M. A.L. Marques.,  SoftwareX 7, 1–5 (2018) (10.1016/j.softx.2017.11.002)

   => Composite Functional: B3LYP <= 

    B3LYP Hyb-GGA Exchange-Correlation Functional

    P. J. Stephens, F. J. Devlin, C. F. Chabalowski, and M. J. Frisch.,  J. Phys. Chem. 98, 11623 (1994) (10.1021/j100096a001)

    Deriv               =              1
    GGA                 =           TRUE
    Meta                =          FALSE

    Exchange Hybrid     =           TRUE
    MP2 Hybrid          =          FALSE

   => Exchange Functionals <=

    0.0800   Slater exchange
    0.7200         Becke 88

   => Exact (HF) Exchange <=

    0.2000               HF 

   => Correlation Functionals <=

    0.1900   Vosko, Wilk & Nusair (VWN5_RPA)
    0.8100   Lee, Yang & Parr

   => LibXC Density Thresholds  <==

    XC_HYB_GGA_XC_B3LYP:  1.00E-15 

   => Molecular Quadrature <=

    Radial Scheme          =       TREUTLER
    Pruning Scheme         =           NONE
    Nuclear Scheme         =       TREUTLER

    Blocking Scheme        =         OCTREE
    BS radius alpha        =              1
    Pruning alpha          =              1
    Radial Points          =             75
    Spherical Points       =            302
    Total Points           =          43712
    Total Blocks           =            437
    Max Points             =            256
    Max Functions          =             36
    Weights Tolerance      =       1.00E-15


  -Total Gradient:
     Atom            X                  Y                   Z
    ------   -----------------  -----------------  -----------------
       1       -0.000000000000     0.000000000000    -1.482959024716
       2        0.000000000000    -0.000000000000     1.483020411122


*** tstop() called on Joses-MacBook-Pro-2.local at Thu Jul 17 14:54:00 2025
Module time:
	user time   =       3.86 seconds =       0.06 minutes
	system time =       1.39 seconds =       0.02 minutes
	total time  =          1 seconds =       0.02 minutes
Total time:
	user time   =      26.55 seconds =       0.44 minutes
	system time =       3.45 seconds =       0.06 minutes
	total time  =          3 seconds =       0.05 minutes

    			-----------------------------------------

    			 OPTKING 3.0: for geometry optimizations 

    			     By R.A. King, Bethel University     

    			        with contributions from          

    			    A.V. Copan, J. Cayton, A. Heide      

    			-----------------------------------------

    
	                            ===> Fragment 1 <== 

	 Z (Atomic Numbers)          Masses                          Geom                  
	      11.000000            22.989769          0.00000000  0.00000000  1.30158852   
	      15.000000            30.973762          0.00000000  0.00000000 -0.96608283   

	 - Coordinate -           - BOHR/RAD -       - ANG/DEG -
	 R(1,2)           =         2.267671           1.200000


	        --- Internal Coordinate Step in ANG or DEG, aJ/ANG or AJ/DEG ---
	-------------------------------------------------------------------------------
	           Coordinate      Previous         Force          Change          New 
	           ----------      --------        ------          ------        ------
	               R(1,2)       1.20000       12.21794        0.00360       1.20360
	-------------------------------------------------------------------------------

	                                 ==> Convergence Check <==                                  
    
	Measures of convergence in internal coordinates in au.
    
	Criteria marked as inactive (o), active & met (*), and active & unmet ( ).

	----------------------------------------------------------------------------------------------
	   Step    Total Energy     Delta E     Max Force     RMS Force      Max Disp      RMS Disp   
	----------------------------------------------------------------------------------------------
	  Convergence Criteria     1.00e-06 *    3.00e-04 *             o    1.20e-03 *             o
	----------------------------------------------------------------------------------------------
	     1    -502.47734417   -5.02e+02      1.48e+00      1.48e+00 o    6.81e-03      6.81e-03 o  ~
	----------------------------------------------------------------------------------------------

Next Geometry in Ang 
	Fragment 1 (Ang)

	   Na   0.0000000000   0.0000000000   0.6905722866
	    P   0.0000000000   0.0000000000  -0.5130303239


    Structure for next step:
    Molecular point group: c2v
    Full point group: C_inf_v

    Geometry (in Angstrom), charge = 1, multiplicity = 2:

    NA           0.000000000000     0.000000000000     0.690838792706
    P            0.000000000000     0.000000000000    -0.512763817846


Scratch directory: /tmp/
gradient() will perform analytic gradient computation.
   => Libint2 <=

    Primary   basis highest AM E, G, H:  6, 6, 3
    Auxiliary basis highest AM E, G, H:  7, 7, 4
    Onebody   basis highest AM E, G, H:  -, -, -
    Solid Harmonics ordering:            Gaussian

*** tstart() called on Joses-MacBook-Pro-2.local
*** at Thu Jul 17 14:54:00 2025

   => Loading Basis Set <=

    Name: CC-PVDZ
    Role: ORBITAL
    Keyword: BASIS
    atoms 1 entry NA         line   288 file /Users/joseantoniorodriguesromero/anaconda3/share/psi4/basis/cc-pvdz.gbs 
    atoms 2 entry P          line   538 file /Users/joseantoniorodriguesromero/anaconda3/share/psi4/basis/cc-pvdz.gbs 


         ---------------------------------------------------------
                                   SCF
               by Justin Turney, Rob Parrish, Andy Simmonett
                          and Daniel G. A. Smith
                              UKS Reference
                        1 Threads,    500 MiB Core
         ---------------------------------------------------------

  ==> Geometry <==

    Molecular point group: c2v
    Full point group: C_inf_v

    Geometry (in Angstrom), charge = 1, multiplicity = 2:

       Center              X                  Y                   Z               Mass       
    ------------   -----------------  -----------------  -----------------  -----------------
         NA           0.000000000000     0.000000000000     0.690838792706    22.989769282000
         P            0.000000000000     0.000000000000    -0.512763817846    30.973761998420

  Running in c2v symmetry.

  Rotational constants: A = ************  B =      0.88186  C =      0.88186 [cm^-1]
  Rotational constants: A = ************  B =  26437.64392  C =  26437.64392 [MHz]
  Nuclear repulsion =   72.544076421139110

  Charge       = 1
  Multiplicity = 2
  Electrons    = 25
  Nalpha       = 13
  Nbeta        = 12

  ==> Algorithm <==

  SCF Algorithm Type is DF.
  DIIS enabled.
  MOM disabled.
  Fractional occupation disabled.
  Guess Type is READ.
  Energy threshold   = 1.00e-08
  Density threshold  = 1.00e-08
  Integral threshold = 1.00e-12

  ==> Primary Basis <==

  Basis Set: CC-PVDZ
    Blend: CC-PVDZ
    Number of shells: 16
    Number of basis functions: 36
    Number of Cartesian functions: 38
    Spherical Harmonics?: true
    Max angular momentum: 2

  ==> DFT Potential <==

   => LibXC <=

    Version 6.2.2
    S. Lehtola, C. Steigemann, M. J.T. Oliveira, and M. A.L. Marques.,  SoftwareX 7, 1–5 (2018) (10.1016/j.softx.2017.11.002)

   => Composite Functional: B3LYP <= 

    B3LYP Hyb-GGA Exchange-Correlation Functional

    P. J. Stephens, F. J. Devlin, C. F. Chabalowski, and M. J. Frisch.,  J. Phys. Chem. 98, 11623 (1994) (10.1021/j100096a001)

    Deriv               =              1
    GGA                 =           TRUE
    Meta                =          FALSE

    Exchange Hybrid     =           TRUE
    MP2 Hybrid          =          FALSE

   => Exchange Functionals <=

    0.0800   Slater exchange
    0.7200         Becke 88

   => Exact (HF) Exchange <=

    0.2000               HF 

   => Correlation Functionals <=

    0.1900   Vosko, Wilk & Nusair (VWN5_RPA)
    0.8100   Lee, Yang & Parr

   => LibXC Density Thresholds  <==

    XC_HYB_GGA_XC_B3LYP:  1.00E-15 

   => Molecular Quadrature <=

    Radial Scheme          =       TREUTLER
    Pruning Scheme         =           NONE
    Nuclear Scheme         =       TREUTLER

    Blocking Scheme        =         OCTREE
    BS radius alpha        =              1
    Pruning alpha          =              1
    Radial Points          =             75
    Spherical Points       =            302
    Total Points           =          43717
    Total Blocks           =            439
    Max Points             =            256
    Max Functions          =             36
    Weights Tolerance      =       1.00E-15

   => Loading Basis Set <=

    Name: (CC-PVDZ AUX)
    Role: JKFIT
    Keyword: DF_BASIS_SCF
    atoms 1 entry NA         line   498 file /Users/joseantoniorodriguesromero/anaconda3/share/psi4/basis/def2-universal-jkfit.gbs 
    atoms 2 entry P          line   519 file /Users/joseantoniorodriguesromero/anaconda3/share/psi4/basis/cc-pvdz-jkfit.gbs 

   => Loading Basis Set <=

    Name: CC-PVDZ
    Role: ORBITAL
    Keyword: BASIS
    atoms 1 entry NA         line   288 file /Users/joseantoniorodriguesromero/anaconda3/share/psi4/basis/cc-pvdz.gbs 
    atoms 2 entry P          line   538 file /Users/joseantoniorodriguesromero/anaconda3/share/psi4/basis/cc-pvdz.gbs 

  Reading orbitals from file /tmp/doublet_NaP.default.74953.180.npy, no projection.

  ==> Integral Setup <==

  DFHelper Memory: AOs need 0.003 GiB; user supplied 0.322 GiB. 
  Using in-core AOs.

  ==> MemDFJK: Density-Fitted J/K Matrices <==

    J tasked:                   Yes
    K tasked:                   Yes
    wK tasked:                   No
    OpenMP threads:               1
    Memory [MiB]:               330
    Algorithm:                 Core
    Schwarz Cutoff:           1E-12
    Mask sparsity (%):       0.0000
    Fitting Condition:        1E-10

   => Auxiliary Basis Set <=

  Basis Set: (CC-PVDZ AUX)
    Blend: CC-PVDZ-JKFIT + DEF2-UNIVERSAL-JKFIT
    Number of shells: 70
    Number of basis functions: 224
    Number of Cartesian functions: 267
    Spherical Harmonics?: true
    Max angular momentum: 4

  Cached 100.0% of DFT collocation blocks in 0.044 [GiB].

  Minimum eigenvalue in the overlap matrix is 2.6843443749E-03.
  Reciprocal condition number of the overlap matrix is 8.8908516307E-04.
    Using symmetric orthogonalization.

  ==> Pre-Iterations <==

  SCF Guess: Orbitals guess was supplied from a previous computation.

   -------------------------------------------------------
    Irrep   Nso     Nmo     Nalpha   Nbeta   Ndocc  Nsocc
   -------------------------------------------------------
     A1        18      18       7       7       7       0
     A2         2       2       0       0       0       0
     B1         8       8       3       3       3       0
     B2         8       8       3       2       2       1
   -------------------------------------------------------
    Total      36      36      13      12      12       1
   -------------------------------------------------------

  ==> Iterations <==

                           Total Energy        Delta E     RMS |[F,P]|

   @DF-UKS iter   0:  -502.48884782731409   -5.02489e+02   9.01918e-04 
   @DF-UKS iter   1:  -502.48736667415614    1.48115e-03   6.60600e-05 DIIS
   @DF-UKS iter   2:  -502.48736778852253   -1.11437e-06   2.70380e-05 DIIS/DAMP=1%
   @DF-UKS iter   3:  -502.48740596905424   -3.81805e-05   3.00802e-06 DIIS/DAMP=1%
   @DF-UKS iter   4:  -502.48736753022331    3.84388e-05   4.22647e-07 DIIS/DAMP=1%
   @DF-UKS iter   5:  -502.48736791912756   -3.88904e-07   9.67348e-08 DIIS/DAMP=1%
   @DF-UKS iter   6:  -502.48736814180353   -2.22676e-07   1.17047e-08 DIIS/DAMP=1%
   @DF-UKS iter   7:  -502.48736801567827    1.26125e-07   3.16978e-09 DIIS/DAMP=1%
   @DF-UKS iter   8:  -502.48736802908059   -1.34023e-08   2.52115e-10 DIIS/DAMP=1%
   @DF-UKS iter   9:  -502.48736802752569    1.55489e-09   1.62574e-11 DIIS/DAMP=1%
  Energy and wave function converged.


  ==> Post-Iterations <==

   Electrons on quadrature grid:
      Nalpha   =   12.9999937859 ; deviation = -6.214e-06
      Nbeta    =   11.9999940547 ; deviation = -5.945e-06
      Ntotal   =   24.9999878406 ; deviation = -1.216e-05 

   @Spin Contamination Metric:   4.830207194E-03
   @S^2 Expected:                7.500000000E-01
   @S^2 Observed:                7.548302072E-01
   @S   Expected:                5.000000000E-01
   @S   Observed:                5.000000000E-01

    Orbital Energies [Eh]
    ---------------------

    Alpha Occupied:                                                       

       1A1   -77.436956     2A1   -39.104858     3A1    -6.946268  
       4A1    -5.128580     1B2    -5.096269     1B1    -5.078004  
       5A1    -2.912794     6A1    -1.845717     2B2    -1.777853  
       2B1    -1.768021     7A1    -0.784696     3B2    -0.541021  
       3B1    -0.494811  

    Alpha Virtual:                                                        

       8A1    -0.336262     9A1    -0.190539     4B2    -0.148639  
       4B1    -0.143595    10A1    -0.127916     1A2    -0.088356  
      11A1    -0.087266    12A1    -0.069588     5B2    -0.065237  
       5B1    -0.061801    13A1     0.013674     6B2     0.049447  
       6B1     0.057149    14A1     0.105790     7B2     0.140300  
       7B1     0.170385     2A2     0.262574    15A1     0.263331  
      16A1     0.336662     8B2     0.378047     8B1     0.401963  
      17A1     0.562919    18A1     0.619917  

    Beta Occupied:                                                        

       1A1   -77.432056     2A1   -39.102630     3A1    -6.941000  
       4A1    -5.125971     1B2    -5.079044     1B1    -5.074944  
       5A1    -2.909167     6A1    -1.842492     2B2    -1.767788  
       2B1    -1.766360     7A1    -0.741949     3B1    -0.481926  

    Beta Virtual:                                                         

       3B2    -0.405403     8A1    -0.328558     9A1    -0.184513  
       4B1    -0.143547     4B2    -0.140506    10A1    -0.125495  
       1A2    -0.076422    11A1    -0.073664    12A1    -0.069252  
       5B2    -0.062070     5B1    -0.062056    13A1     0.018510  
       6B1     0.057236     6B2     0.058089    14A1     0.111275  
       7B1     0.175810     7B2     0.182685     2A2     0.298049  
      15A1     0.302495    16A1     0.339726     8B1     0.404255  
       8B2     0.406511    17A1     0.571282    18A1     0.636167  

    Final Occupation by Irrep:
             A1    A2    B1    B2 
    DOCC [     7,    0,    3,    2 ]
    SOCC [     0,    0,    0,    1 ]
    NA   [     7,    0,    3,    3 ]
    NB   [     7,    0,    3,    2 ]

  @DF-UKS Final Energy:  -502.48736802752569

   => Energetics <=

    Nuclear Repulsion Energy =             72.5440764211391098
    One-Electron Energy =                -831.2194774148090346
    Two-Electron Energy =                 286.5769552737459662
    DFT Exchange-Correlation Energy =     -30.3889223076017458
    Empirical Dispersion Energy =           0.0000000000000000
    VV10 Nonlocal Energy =                  0.0000000000000000
    Total Energy =                       -502.4873680275256902

  UHF NO Occupations:
  HONO-2 :    3 B1 1.9999065
  HONO-1 :    7 A1 1.9976796
  HONO-0 :    3 B2 1.0000000
  LUNO+0 :    8 A1 0.0023204
  LUNO+1 :    4 B1 0.0000935
  LUNO+2 :    4 B2 0.0000027
  LUNO+3 :    9 A1 0.0000009


Computation Completed


Properties will be evaluated at   0.000000,   0.000000,   0.000000 [a0]

Properties computed using the SCF density matrix


 Multipole Moments:

 ------------------------------------------------------------------------------------
     Multipole            Electronic (a.u.)      Nuclear  (a.u.)        Total (a.u.)
 ------------------------------------------------------------------------------------

 L = 1.  Multiply by 2.5417464519 to convert [e a0] to [Debye]
 Dipole X            :          0.0000000            0.0000000            0.0000000
 Dipole Y            :          0.0000000            0.0000000            0.0000000
 Dipole Z            :          1.5452086           -0.1742905            1.3709181
 Magnitude           :                                                    1.3709181

 ------------------------------------------------------------------------------------

*** tstop() called on Joses-MacBook-Pro-2.local at Thu Jul 17 14:54:01 2025
Module time:
	user time   =       9.55 seconds =       0.16 minutes
	system time =       2.33 seconds =       0.04 minutes
	total time  =          1 seconds =       0.02 minutes
Total time:
	user time   =      36.38 seconds =       0.61 minutes
	system time =       5.78 seconds =       0.10 minutes
	total time  =          4 seconds =       0.07 minutes

*** tstart() called on Joses-MacBook-Pro-2.local
*** at Thu Jul 17 14:54:01 2025


         ------------------------------------------------------------
                                   SCF GRAD                          
                          Rob Parrish, Justin Turney,                
                       Andy Simmonett, and Alex Sokolov              
         ------------------------------------------------------------

  ==> Geometry <==

    Molecular point group: c2v
    Full point group: C_inf_v

    Geometry (in Angstrom), charge = 1, multiplicity = 2:

       Center              X                  Y                   Z               Mass       
    ------------   -----------------  -----------------  -----------------  -----------------
         NA           0.000000000000     0.000000000000     0.690838792706    22.989769282000
         P            0.000000000000     0.000000000000    -0.512763817846    30.973761998420

  Nuclear repulsion =   72.544076421139110

  ==> Basis Set <==

  Basis Set: CC-PVDZ
    Blend: CC-PVDZ
    Number of shells: 16
    Number of basis functions: 36
    Number of Cartesian functions: 38
    Spherical Harmonics?: true
    Max angular momentum: 2

  ==> DFJKGrad: Density-Fitted SCF Gradients <==

    Gradient:                    1
    J tasked:                  Yes
    K tasked:                  Yes
    wK tasked:                  No
    OpenMP threads:              1
    Integrals threads:           1
    Memory [MiB]:              375
    Schwarz Cutoff:          1E-12
    Fitting Condition:       1E-10

   => Auxiliary Basis Set <=

  Basis Set: (CC-PVDZ AUX)
    Blend: CC-PVDZ-JKFIT + DEF2-UNIVERSAL-JKFIT
    Number of shells: 70
    Number of basis functions: 224
    Number of Cartesian functions: 267
    Spherical Harmonics?: true
    Max angular momentum: 4

  ==> DFT Potential <==

   => LibXC <=

    Version 6.2.2
    S. Lehtola, C. Steigemann, M. J.T. Oliveira, and M. A.L. Marques.,  SoftwareX 7, 1–5 (2018) (10.1016/j.softx.2017.11.002)

   => Composite Functional: B3LYP <= 

    B3LYP Hyb-GGA Exchange-Correlation Functional

    P. J. Stephens, F. J. Devlin, C. F. Chabalowski, and M. J. Frisch.,  J. Phys. Chem. 98, 11623 (1994) (10.1021/j100096a001)

    Deriv               =              1
    GGA                 =           TRUE
    Meta                =          FALSE

    Exchange Hybrid     =           TRUE
    MP2 Hybrid          =          FALSE

   => Exchange Functionals <=

    0.0800   Slater exchange
    0.7200         Becke 88

   => Exact (HF) Exchange <=

    0.2000               HF 

   => Correlation Functionals <=

    0.1900   Vosko, Wilk & Nusair (VWN5_RPA)
    0.8100   Lee, Yang & Parr

   => LibXC Density Thresholds  <==

    XC_HYB_GGA_XC_B3LYP:  1.00E-15 

   => Molecular Quadrature <=

    Radial Scheme          =       TREUTLER
    Pruning Scheme         =           NONE
    Nuclear Scheme         =       TREUTLER

    Blocking Scheme        =         OCTREE
    BS radius alpha        =              1
    Pruning alpha          =              1
    Radial Points          =             75
    Spherical Points       =            302
    Total Points           =          43717
    Total Blocks           =            439
    Max Points             =            256
    Max Functions          =             36
    Weights Tolerance      =       1.00E-15


  -Total Gradient:
     Atom            X                  Y                   Z
    ------   -----------------  -----------------  -----------------
       1       -0.000000000000    -0.000000000000    -1.461923322141
       2        0.000000000000    -0.000000000000     1.462008988214


*** tstop() called on Joses-MacBook-Pro-2.local at Thu Jul 17 14:54:02 2025
Module time:
	user time   =       2.64 seconds =       0.04 minutes
	system time =       1.88 seconds =       0.03 minutes
	total time  =          1 seconds =       0.02 minutes
Total time:
	user time   =      39.03 seconds =       0.65 minutes
	system time =       7.66 seconds =       0.13 minutes
	total time  =          5 seconds =       0.08 minutes

    			-----------------------------------------

    			 OPTKING 3.0: for geometry optimizations 

    			     By R.A. King, Bethel University     

    			        with contributions from          

    			    A.V. Copan, J. Cayton, A. Heide      

    			-----------------------------------------

    
	                            ===> Fragment 1 <== 

	 Z (Atomic Numbers)          Masses                          Geom                  
	      11.000000            22.989769          0.00000000  0.00000000  1.30549612   
	      15.000000            30.973762          0.00000000  0.00000000 -0.96898318   

	 - Coordinate -           - BOHR/RAD -       - ANG/DEG -
	 R(1,2)           =         2.274479           1.203603


	        --- Internal Coordinate Step in ANG or DEG, aJ/ANG or AJ/DEG ---
	-------------------------------------------------------------------------------
	           Coordinate      Previous         Force          Change          New 
	           ----------      --------        ------          ------        ------
	               R(1,2)       1.20360       12.04473        0.00710       1.21070
	-------------------------------------------------------------------------------

	                                 ==> Convergence Check <==                                  
    
	Measures of convergence in internal coordinates in au.
    
	Criteria marked as inactive (o), active & met (*), and active & unmet ( ).

	----------------------------------------------------------------------------------------------
	   Step    Total Energy     Delta E     Max Force     RMS Force      Max Disp      RMS Disp   
	----------------------------------------------------------------------------------------------
	  Convergence Criteria     1.00e-06 *    3.00e-04 *             o    1.20e-03 *             o
	----------------------------------------------------------------------------------------------
	     2    -502.48736803   -1.00e-02      1.46e+00      1.46e+00 o    1.34e-02      1.34e-02 o  ~
	----------------------------------------------------------------------------------------------

Next Geometry in Ang 
	Fragment 1 (Ang)

	   Na   0.0000000000   0.0000000000   0.6943898558
	    P   0.0000000000   0.0000000000  -0.5163148810


    Structure for next step:
    Molecular point group: c2v
    Full point group: C_inf_v

    Geometry (in Angstrom), charge = 1, multiplicity = 2:

    NA           0.000000000000     0.000000000000     0.694915241407
    P            0.000000000000     0.000000000000    -0.515789495358


Scratch directory: /tmp/
gradient() will perform analytic gradient computation.
   => Libint2 <=

    Primary   basis highest AM E, G, H:  6, 6, 3
    Auxiliary basis highest AM E, G, H:  7, 7, 4
    Onebody   basis highest AM E, G, H:  -, -, -
    Solid Harmonics ordering:            Gaussian

*** tstart() called on Joses-MacBook-Pro-2.local
*** at Thu Jul 17 14:54:02 2025

   => Loading Basis Set <=

    Name: CC-PVDZ
    Role: ORBITAL
    Keyword: BASIS
    atoms 1 entry NA         line   288 file /Users/joseantoniorodriguesromero/anaconda3/share/psi4/basis/cc-pvdz.gbs 
    atoms 2 entry P          line   538 file /Users/joseantoniorodriguesromero/anaconda3/share/psi4/basis/cc-pvdz.gbs 


         ---------------------------------------------------------
                                   SCF
               by Justin Turney, Rob Parrish, Andy Simmonett
                          and Daniel G. A. Smith
                              UKS Reference
                        1 Threads,    500 MiB Core
         ---------------------------------------------------------

  ==> Geometry <==

    Molecular point group: c2v
    Full point group: C_inf_v

    Geometry (in Angstrom), charge = 1, multiplicity = 2:

       Center              X                  Y                   Z               Mass       
    ------------   -----------------  -----------------  -----------------  -----------------
         NA           0.000000000000     0.000000000000     0.694915241407    22.989769282000
         P            0.000000000000     0.000000000000    -0.515789495358    30.973761998420

  Running in c2v symmetry.

  Rotational constants: A = ************  B =      0.87155  C =      0.87155 [cm^-1]
  Rotational constants: A = ************  B =  26128.38146  C =  26128.38146 [MHz]
  Nuclear repulsion =   72.118524945952586

  Charge       = 1
  Multiplicity = 2
  Electrons    = 25
  Nalpha       = 13
  Nbeta        = 12

  ==> Algorithm <==

  SCF Algorithm Type is DF.
  DIIS enabled.
  MOM disabled.
  Fractional occupation disabled.
  Guess Type is READ.
  Energy threshold   = 1.00e-08
  Density threshold  = 1.00e-08
  Integral threshold = 1.00e-12

  ==> Primary Basis <==

  Basis Set: CC-PVDZ
    Blend: CC-PVDZ
    Number of shells: 16
    Number of basis functions: 36
    Number of Cartesian functions: 38
    Spherical Harmonics?: true
    Max angular momentum: 2

  ==> DFT Potential <==

   => LibXC <=

    Version 6.2.2
    S. Lehtola, C. Steigemann, M. J.T. Oliveira, and M. A.L. Marques.,  SoftwareX 7, 1–5 (2018) (10.1016/j.softx.2017.11.002)

   => Composite Functional: B3LYP <= 

    B3LYP Hyb-GGA Exchange-Correlation Functional

    P. J. Stephens, F. J. Devlin, C. F. Chabalowski, and M. J. Frisch.,  J. Phys. Chem. 98, 11623 (1994) (10.1021/j100096a001)

    Deriv               =              1
    GGA                 =           TRUE
    Meta                =          FALSE

    Exchange Hybrid     =           TRUE
    MP2 Hybrid          =          FALSE

   => Exchange Functionals <=

    0.0800   Slater exchange
    0.7200         Becke 88

   => Exact (HF) Exchange <=

    0.2000               HF 

   => Correlation Functionals <=

    0.1900   Vosko, Wilk & Nusair (VWN5_RPA)
    0.8100   Lee, Yang & Parr

   => LibXC Density Thresholds  <==

    XC_HYB_GGA_XC_B3LYP:  1.00E-15 

   => Molecular Quadrature <=

    Radial Scheme          =       TREUTLER
    Pruning Scheme         =           NONE
    Nuclear Scheme         =       TREUTLER

    Blocking Scheme        =         OCTREE
    BS radius alpha        =              1
    Pruning alpha          =              1
    Radial Points          =             75
    Spherical Points       =            302
    Total Points           =          43720
    Total Blocks           =            438
    Max Points             =            256
    Max Functions          =             36
    Weights Tolerance      =       1.00E-15

   => Loading Basis Set <=

    Name: (CC-PVDZ AUX)
    Role: JKFIT
    Keyword: DF_BASIS_SCF
    atoms 1 entry NA         line   498 file /Users/joseantoniorodriguesromero/anaconda3/share/psi4/basis/def2-universal-jkfit.gbs 
    atoms 2 entry P          line   519 file /Users/joseantoniorodriguesromero/anaconda3/share/psi4/basis/cc-pvdz-jkfit.gbs 

   => Loading Basis Set <=

    Name: CC-PVDZ
    Role: ORBITAL
    Keyword: BASIS
    atoms 1 entry NA         line   288 file /Users/joseantoniorodriguesromero/anaconda3/share/psi4/basis/cc-pvdz.gbs 
    atoms 2 entry P          line   538 file /Users/joseantoniorodriguesromero/anaconda3/share/psi4/basis/cc-pvdz.gbs 

  Reading orbitals from file /tmp/doublet_NaP.default.74953.180.npy, no projection.

  ==> Integral Setup <==

  DFHelper Memory: AOs need 0.003 GiB; user supplied 0.322 GiB. 
  Using in-core AOs.

  ==> MemDFJK: Density-Fitted J/K Matrices <==

    J tasked:                   Yes
    K tasked:                   Yes
    wK tasked:                   No
    OpenMP threads:               1
    Memory [MiB]:               330
    Algorithm:                 Core
    Schwarz Cutoff:           1E-12
    Mask sparsity (%):       0.0000
    Fitting Condition:        1E-10

   => Auxiliary Basis Set <=

  Basis Set: (CC-PVDZ AUX)
    Blend: CC-PVDZ-JKFIT + DEF2-UNIVERSAL-JKFIT
    Number of shells: 70
    Number of basis functions: 224
    Number of Cartesian functions: 267
    Spherical Harmonics?: true
    Max angular momentum: 4

  Cached 100.0% of DFT collocation blocks in 0.044 [GiB].

  Minimum eigenvalue in the overlap matrix is 2.6889090400E-03.
  Reciprocal condition number of the overlap matrix is 8.9052149017E-04.
    Using symmetric orthogonalization.

  ==> Pre-Iterations <==

  SCF Guess: Orbitals guess was supplied from a previous computation.

   -------------------------------------------------------
    Irrep   Nso     Nmo     Nalpha   Nbeta   Ndocc  Nsocc
   -------------------------------------------------------
     A1        18      18       7       7       7       0
     A2         2       2       0       0       0       0
     B1         8       8       3       3       3       0
     B2         8       8       3       2       2       1
   -------------------------------------------------------
    Total      36      36      13      12      12       1
   -------------------------------------------------------

  ==> Iterations <==

                           Total Energy        Delta E     RMS |[F,P]|

   @DF-UKS iter   0:  -502.50954456110173   -5.02510e+02   1.75316e-03 
   @DF-UKS iter   1:  -502.50671095803193    2.83360e-03   1.26783e-04 DIIS/ADIIS
   @DF-UKS iter   2:  -502.50671510761441   -4.14958e-06   5.24652e-05 DIIS/DAMP=1%
   @DF-UKS iter   3:  -502.50678793175507   -7.28241e-05   6.07496e-06 DIIS/DAMP=1%
   @DF-UKS iter   4:  -502.50671549932315    7.24324e-05   8.85394e-07 DIIS/DAMP=1%
   @DF-UKS iter   5:  -502.50671572648315   -2.27160e-07   1.83879e-07 DIIS/DAMP=1%
   @DF-UKS iter   6:  -502.50671624007464   -5.13591e-07   1.97422e-08 DIIS/DAMP=1%
   @DF-UKS iter   7:  -502.50671599261557    2.47459e-07   5.45122e-09 DIIS/DAMP=1%
   @DF-UKS iter   8:  -502.50671601569644   -2.30809e-08   5.28506e-10 DIIS/DAMP=1%
   @DF-UKS iter   9:  -502.50671601330339    2.39305e-09   3.34718e-11 DIIS/DAMP=1%
  Energy and wave function converged.


  ==> Post-Iterations <==

   Electrons on quadrature grid:
      Nalpha   =   12.9999939777 ; deviation = -6.022e-06
      Nbeta    =   11.9999942084 ; deviation = -5.792e-06
      Ntotal   =   24.9999881860 ; deviation = -1.181e-05 

   @Spin Contamination Metric:   4.821422617E-03
   @S^2 Expected:                7.500000000E-01
   @S^2 Observed:                7.548214226E-01
   @S   Expected:                5.000000000E-01
   @S   Observed:                5.000000000E-01

    Orbital Energies [Eh]
    ---------------------

    Alpha Occupied:                                                       

       1A1   -77.435088     2A1   -39.100913     3A1    -6.943265  
       4A1    -5.125345     1B2    -5.093749     1B1    -5.075498  
       5A1    -2.906237     6A1    -1.841076     2B2    -1.772643  
       2B1    -1.762944     7A1    -0.784842     3B2    -0.540580  
       3B1    -0.494395  

    Alpha Virtual:                                                        

       8A1    -0.336670     9A1    -0.191110     4B2    -0.148499  
       4B1    -0.143470    10A1    -0.127940     1A2    -0.087644  
      11A1    -0.086569    12A1    -0.069497     5B2    -0.065187  
       5B1    -0.061734    13A1     0.012839     6B2     0.049512  
       6B1     0.057211    14A1     0.106433     7B2     0.139533  
       7B1     0.169620     2A2     0.262972    15A1     0.263711  
      16A1     0.334792     8B2     0.378329     8B1     0.402233  
      17A1     0.564033    18A1     0.612375  

    Beta Occupied:                                                        

       1A1   -77.430192     2A1   -39.098730     3A1    -6.938003  
       4A1    -5.122734     1B2    -5.076539     1B1    -5.072442  
       5A1    -2.902665     6A1    -1.837869     2B2    -1.762750  
       2B1    -1.761315     7A1    -0.742117     3B1    -0.481511  

    Beta Virtual:                                                         

       3B2    -0.405006     8A1    -0.328903     9A1    -0.185125  
       4B1    -0.143424     4B2    -0.140381    10A1    -0.125513  
       1A2    -0.075800    11A1    -0.073072    12A1    -0.069144  
       5B2    -0.061996     5B1    -0.061988    13A1     0.017630  
       6B1     0.057276     6B2     0.058142    14A1     0.111957  
       7B1     0.175085     7B2     0.182016     2A2     0.298513  
      15A1     0.302968    16A1     0.337894     8B1     0.404514  
       8B2     0.406788    17A1     0.572445    18A1     0.628491  

    Final Occupation by Irrep:
             A1    A2    B1    B2 
    DOCC [     7,    0,    3,    2 ]
    SOCC [     0,    0,    0,    1 ]
    NA   [     7,    0,    3,    3 ]
    NB   [     7,    0,    3,    2 ]

  @DF-UKS Final Energy:  -502.50671601330339

   => Energetics <=

    Nuclear Repulsion Energy =             72.1185249459525863
    One-Electron Energy =                -830.4878310029037038
    Two-Electron Energy =                 286.2470403162669754
    DFT Exchange-Correlation Energy =     -30.3844502726192118
    Empirical Dispersion Energy =           0.0000000000000000
    VV10 Nonlocal Energy =                  0.0000000000000000
    Total Energy =                       -502.5067160133033894

  UHF NO Occupations:
  HONO-2 :    3 B1 1.9999063
  HONO-1 :    7 A1 1.9976841
  HONO-0 :    3 B2 1.0000000
  LUNO+0 :    8 A1 0.0023159
  LUNO+1 :    4 B1 0.0000937
  LUNO+2 :    4 B2 0.0000027
  LUNO+3 :    9 A1 0.0000010


Computation Completed


Properties will be evaluated at   0.000000,   0.000000,   0.000000 [a0]

Properties computed using the SCF density matrix


 Multipole Moments:

 ------------------------------------------------------------------------------------
     Multipole            Electronic (a.u.)      Nuclear  (a.u.)        Total (a.u.)
 ------------------------------------------------------------------------------------

 L = 1.  Multiply by 2.5417464519 to convert [e a0] to [Debye]
 Dipole X            :          0.0000000            0.0000000            0.0000000
 Dipole Y            :          0.0000000            0.0000000            0.0000000
 Dipole Z            :          1.5444224           -0.1753189            1.3691035
 Magnitude           :                                                    1.3691035

 ------------------------------------------------------------------------------------

*** tstop() called on Joses-MacBook-Pro-2.local at Thu Jul 17 14:54:03 2025
Module time:
	user time   =      11.68 seconds =       0.19 minutes
	system time =       2.34 seconds =       0.04 minutes
	total time  =          1 seconds =       0.02 minutes
Total time:
	user time   =      50.85 seconds =       0.85 minutes
	system time =      10.08 seconds =       0.17 minutes
	total time  =          6 seconds =       0.10 minutes

*** tstart() called on Joses-MacBook-Pro-2.local
*** at Thu Jul 17 14:54:03 2025


         ------------------------------------------------------------
                                   SCF GRAD                          
                          Rob Parrish, Justin Turney,                
                       Andy Simmonett, and Alex Sokolov              
         ------------------------------------------------------------

  ==> Geometry <==

    Molecular point group: c2v
    Full point group: C_inf_v

    Geometry (in Angstrom), charge = 1, multiplicity = 2:

       Center              X                  Y                   Z               Mass       
    ------------   -----------------  -----------------  -----------------  -----------------
         NA           0.000000000000     0.000000000000     0.694915241407    22.989769282000
         P            0.000000000000     0.000000000000    -0.515789495358    30.973761998420

  Nuclear repulsion =   72.118524945952586

  ==> Basis Set <==

  Basis Set: CC-PVDZ
    Blend: CC-PVDZ
    Number of shells: 16
    Number of basis functions: 36
    Number of Cartesian functions: 38
    Spherical Harmonics?: true
    Max angular momentum: 2

  ==> DFJKGrad: Density-Fitted SCF Gradients <==

    Gradient:                    1
    J tasked:                  Yes
    K tasked:                  Yes
    wK tasked:                  No
    OpenMP threads:              1
    Integrals threads:           1
    Memory [MiB]:              375
    Schwarz Cutoff:          1E-12
    Fitting Condition:       1E-10

   => Auxiliary Basis Set <=

  Basis Set: (CC-PVDZ AUX)
    Blend: CC-PVDZ-JKFIT + DEF2-UNIVERSAL-JKFIT
    Number of shells: 70
    Number of basis functions: 224
    Number of Cartesian functions: 267
    Spherical Harmonics?: true
    Max angular momentum: 4

  ==> DFT Potential <==

   => LibXC <=

    Version 6.2.2
    S. Lehtola, C. Steigemann, M. J.T. Oliveira, and M. A.L. Marques.,  SoftwareX 7, 1–5 (2018) (10.1016/j.softx.2017.11.002)

   => Composite Functional: B3LYP <= 

    B3LYP Hyb-GGA Exchange-Correlation Functional

    P. J. Stephens, F. J. Devlin, C. F. Chabalowski, and M. J. Frisch.,  J. Phys. Chem. 98, 11623 (1994) (10.1021/j100096a001)

    Deriv               =              1
    GGA                 =           TRUE
    Meta                =          FALSE

    Exchange Hybrid     =           TRUE
    MP2 Hybrid          =          FALSE

   => Exchange Functionals <=

    0.0800   Slater exchange
    0.7200         Becke 88

   => Exact (HF) Exchange <=

    0.2000               HF 

   => Correlation Functionals <=

    0.1900   Vosko, Wilk & Nusair (VWN5_RPA)
    0.8100   Lee, Yang & Parr

   => LibXC Density Thresholds  <==

    XC_HYB_GGA_XC_B3LYP:  1.00E-15 

   => Molecular Quadrature <=

    Radial Scheme          =       TREUTLER
    Pruning Scheme         =           NONE
    Nuclear Scheme         =       TREUTLER

    Blocking Scheme        =         OCTREE
    BS radius alpha        =              1
    Pruning alpha          =              1
    Radial Points          =             75
    Spherical Points       =            302
    Total Points           =          43720
    Total Blocks           =            438
    Max Points             =            256
    Max Functions          =             36
    Weights Tolerance      =       1.00E-15


  -Total Gradient:
     Atom            X                  Y                   Z
    ------   -----------------  -----------------  -----------------
       1        0.000000000000     0.000000000000    -1.421504653853
       2        0.000000000000     0.000000000000     1.421633883630


*** tstop() called on Joses-MacBook-Pro-2.local at Thu Jul 17 14:54:04 2025
Module time:
	user time   =       3.36 seconds =       0.06 minutes
	system time =       1.16 seconds =       0.02 minutes
	total time  =          1 seconds =       0.02 minutes
Total time:
	user time   =      54.23 seconds =       0.90 minutes
	system time =      11.24 seconds =       0.19 minutes
	total time  =          7 seconds =       0.12 minutes

    			-----------------------------------------

    			 OPTKING 3.0: for geometry optimizations 

    			     By R.A. King, Bethel University     

    			        with contributions from          

    			    A.V. Copan, J. Cayton, A. Heide      

    			-----------------------------------------

    
	                            ===> Fragment 1 <== 

	 Z (Atomic Numbers)          Masses                          Geom                  
	      11.000000            22.989769          0.00000000  0.00000000  1.31319949   
	      15.000000            30.973762          0.00000000  0.00000000 -0.97470088   

	 - Coordinate -           - BOHR/RAD -       - ANG/DEG -
	 R(1,2)           =         2.287900           1.210705


	        --- Internal Coordinate Step in ANG or DEG, aJ/ANG or AJ/DEG ---
	-------------------------------------------------------------------------------
	           Coordinate      Previous         Force          Change          New 
	           ----------      --------        ------          ------        ------
	               R(1,2)       1.21070       11.71192        0.02755       1.23826
	-------------------------------------------------------------------------------

	                                 ==> Convergence Check <==                                  
    
	Measures of convergence in internal coordinates in au.
    
	Criteria marked as inactive (o), active & met (*), and active & unmet ( ).

	----------------------------------------------------------------------------------------------
	   Step    Total Energy     Delta E     Max Force     RMS Force      Max Disp      RMS Disp   
	----------------------------------------------------------------------------------------------
	  Convergence Criteria     1.00e-06 *    3.00e-04 *             o    1.20e-03 *             o
	----------------------------------------------------------------------------------------------
	     3    -502.50671601   -1.93e-02      1.42e+00      1.42e+00 o    5.21e-02      5.21e-02 o  ~
	----------------------------------------------------------------------------------------------

Next Geometry in Ang 
	Fragment 1 (Ang)

	   Na   0.0000000000   0.0000000000   0.7086920392
	    P   0.0000000000   0.0000000000  -0.5295662932


    Structure for next step:
    Molecular point group: c2v
    Full point group: C_inf_v

    Geometry (in Angstrom), charge = 1, multiplicity = 2:

    NA           0.000000000000     0.000000000000     0.710730339004
    P            0.000000000000     0.000000000000    -0.527527993411


Scratch directory: /tmp/
gradient() will perform analytic gradient computation.
   => Libint2 <=

    Primary   basis highest AM E, G, H:  6, 6, 3
    Auxiliary basis highest AM E, G, H:  7, 7, 4
    Onebody   basis highest AM E, G, H:  -, -, -
    Solid Harmonics ordering:            Gaussian

*** tstart() called on Joses-MacBook-Pro-2.local
*** at Thu Jul 17 14:54:04 2025

   => Loading Basis Set <=

    Name: CC-PVDZ
    Role: ORBITAL
    Keyword: BASIS
    atoms 1 entry NA         line   288 file /Users/joseantoniorodriguesromero/anaconda3/share/psi4/basis/cc-pvdz.gbs 
    atoms 2 entry P          line   538 file /Users/joseantoniorodriguesromero/anaconda3/share/psi4/basis/cc-pvdz.gbs 


         ---------------------------------------------------------
                                   SCF
               by Justin Turney, Rob Parrish, Andy Simmonett
                          and Daniel G. A. Smith
                              UKS Reference
                        1 Threads,    500 MiB Core
         ---------------------------------------------------------

  ==> Geometry <==

    Molecular point group: c2v
    Full point group: C_inf_v

    Geometry (in Angstrom), charge = 1, multiplicity = 2:

       Center              X                  Y                   Z               Mass       
    ------------   -----------------  -----------------  -----------------  -----------------
         NA           0.000000000000     0.000000000000     0.710730339004    22.989769282000
         P            0.000000000000     0.000000000000    -0.527527993411    30.973761998420

  Running in c2v symmetry.

  Rotational constants: A = ************  B =      0.83319  C =      0.83319 [cm^-1]
  Rotational constants: A = ************  B =  24978.50679  C =  24978.50679 [MHz]
  Nuclear repulsion =   70.513751028186050

  Charge       = 1
  Multiplicity = 2
  Electrons    = 25
  Nalpha       = 13
  Nbeta        = 12

  ==> Algorithm <==

  SCF Algorithm Type is DF.
  DIIS enabled.
  MOM disabled.
  Fractional occupation disabled.
  Guess Type is READ.
  Energy threshold   = 1.00e-08
  Density threshold  = 1.00e-08
  Integral threshold = 1.00e-12

  ==> Primary Basis <==

  Basis Set: CC-PVDZ
    Blend: CC-PVDZ
    Number of shells: 16
    Number of basis functions: 36
    Number of Cartesian functions: 38
    Spherical Harmonics?: true
    Max angular momentum: 2

  ==> DFT Potential <==

   => LibXC <=

    Version 6.2.2
    S. Lehtola, C. Steigemann, M. J.T. Oliveira, and M. A.L. Marques.,  SoftwareX 7, 1–5 (2018) (10.1016/j.softx.2017.11.002)

   => Composite Functional: B3LYP <= 

    B3LYP Hyb-GGA Exchange-Correlation Functional

    P. J. Stephens, F. J. Devlin, C. F. Chabalowski, and M. J. Frisch.,  J. Phys. Chem. 98, 11623 (1994) (10.1021/j100096a001)

    Deriv               =              1
    GGA                 =           TRUE
    Meta                =          FALSE

    Exchange Hybrid     =           TRUE
    MP2 Hybrid          =          FALSE

   => Exchange Functionals <=

    0.0800   Slater exchange
    0.7200         Becke 88

   => Exact (HF) Exchange <=

    0.2000               HF 

   => Correlation Functionals <=

    0.1900   Vosko, Wilk & Nusair (VWN5_RPA)
    0.8100   Lee, Yang & Parr

   => LibXC Density Thresholds  <==

    XC_HYB_GGA_XC_B3LYP:  1.00E-15 

   => Molecular Quadrature <=

    Radial Scheme          =       TREUTLER
    Pruning Scheme         =           NONE
    Nuclear Scheme         =       TREUTLER

    Blocking Scheme        =         OCTREE
    BS radius alpha        =              1
    Pruning alpha          =              1
    Radial Points          =             75
    Spherical Points       =            302
    Total Points           =          43729
    Total Blocks           =            439
    Max Points             =            253
    Max Functions          =             36
    Weights Tolerance      =       1.00E-15

   => Loading Basis Set <=

    Name: (CC-PVDZ AUX)
    Role: JKFIT
    Keyword: DF_BASIS_SCF
    atoms 1 entry NA         line   498 file /Users/joseantoniorodriguesromero/anaconda3/share/psi4/basis/def2-universal-jkfit.gbs 
    atoms 2 entry P          line   519 file /Users/joseantoniorodriguesromero/anaconda3/share/psi4/basis/cc-pvdz-jkfit.gbs 

   => Loading Basis Set <=

    Name: CC-PVDZ
    Role: ORBITAL
    Keyword: BASIS
    atoms 1 entry NA         line   288 file /Users/joseantoniorodriguesromero/anaconda3/share/psi4/basis/cc-pvdz.gbs 
    atoms 2 entry P          line   538 file /Users/joseantoniorodriguesromero/anaconda3/share/psi4/basis/cc-pvdz.gbs 

  Reading orbitals from file /tmp/doublet_NaP.default.74953.180.npy, no projection.

  ==> Integral Setup <==

  DFHelper Memory: AOs need 0.003 GiB; user supplied 0.322 GiB. 
  Using in-core AOs.

  ==> MemDFJK: Density-Fitted J/K Matrices <==

    J tasked:                   Yes
    K tasked:                   Yes
    wK tasked:                   No
    OpenMP threads:               1
    Memory [MiB]:               330
    Algorithm:                 Core
    Schwarz Cutoff:           1E-12
    Mask sparsity (%):       0.0000
    Fitting Condition:        1E-10

   => Auxiliary Basis Set <=

  Basis Set: (CC-PVDZ AUX)
    Blend: CC-PVDZ-JKFIT + DEF2-UNIVERSAL-JKFIT
    Number of shells: 70
    Number of basis functions: 224
    Number of Cartesian functions: 267
    Spherical Harmonics?: true
    Max angular momentum: 4

  Cached 100.0% of DFT collocation blocks in 0.044 [GiB].

  Minimum eigenvalue in the overlap matrix is 2.7052537435E-03.
  Reciprocal condition number of the overlap matrix is 8.9564633550E-04.
    Using symmetric orthogonalization.

  ==> Pre-Iterations <==

  SCF Guess: Orbitals guess was supplied from a previous computation.

   -------------------------------------------------------
    Irrep   Nso     Nmo     Nalpha   Nbeta   Ndocc  Nsocc
   -------------------------------------------------------
     A1        18      18       7       7       7       0
     A2         2       2       0       0       0       0
     B1         8       8       3       3       3       0
     B2         8       8       3       2       2       1
   -------------------------------------------------------
    Total      36      36      13      12      12       1
   -------------------------------------------------------

  ==> Iterations <==

                           Total Energy        Delta E     RMS |[F,P]|

   @DF-UKS iter   0:  -502.58759944249800   -5.02588e+02   6.49897e-03 
   @DF-UKS iter   1:  -502.57682582709157    1.07736e-02   4.55898e-04 DIIS/ADIIS
   @DF-UKS iter   2:  -502.57688124724734   -5.54202e-05   1.96873e-04 DIIS/ADIIS/DAMP=1%
   @DF-UKS iter   3:  -502.57714081054138   -2.59563e-04   2.49806e-05 DIIS/DAMP=1%
   @DF-UKS iter   4:  -502.57689815049673    2.42660e-04   3.97590e-06 DIIS/DAMP=1%
   @DF-UKS iter   5:  -502.57689232778205    5.82271e-06   6.72305e-07 DIIS/DAMP=1%
   @DF-UKS iter   6:  -502.57689508776087   -2.75998e-06   4.89491e-08 DIIS/DAMP=1%
   @DF-UKS iter   7:  -502.57689414616988    9.41591e-07   5.67480e-09 DIIS/DAMP=1%
   @DF-UKS iter   8:  -502.57689421175536   -6.55855e-08   1.20540e-09 DIIS/DAMP=1%
   @DF-UKS iter   9:  -502.57689420844019    3.31517e-09   1.80210e-10 DIIS/DAMP=1%
  Energy and wave function converged.


  ==> Post-Iterations <==

   Electrons on quadrature grid:
      Nalpha   =   12.9999951109 ; deviation = -4.889e-06
      Nbeta    =   11.9999951703 ; deviation = -4.830e-06
      Ntotal   =   24.9999902812 ; deviation = -9.719e-06 

   @Spin Contamination Metric:   4.778540986E-03
   @S^2 Expected:                7.500000000E-01
   @S^2 Observed:                7.547785410E-01
   @S   Expected:                5.000000000E-01
   @S   Observed:                5.000000000E-01

    Orbital Energies [Eh]
    ---------------------

    Alpha Occupied:                                                       

       1A1   -77.428167     2A1   -39.085408     3A1    -6.932324  
       4A1    -5.113566     1B2    -5.084504     1B1    -5.066315  
       5A1    -2.881268     6A1    -1.822883     2B2    -1.752864  
       2B1    -1.743677     7A1    -0.785614     3B2    -0.538812  
       3B1    -0.492731  

    Alpha Virtual:                                                        

       8A1    -0.338485     9A1    -0.193389     4B2    -0.147961  
       4B1    -0.143001    10A1    -0.128038     1A2    -0.084911  
      11A1    -0.083894    12A1    -0.069121     5B2    -0.064984  
       5B1    -0.061496    13A1     0.009607     6B2     0.049476  
       6B1     0.057216    14A1     0.108677     7B2     0.137359  
       7B1     0.167398     2A2     0.264379    15A1     0.265034  
      16A1     0.327056     8B2     0.379200     8B1     0.403064  
      17A1     0.566990    18A1     0.586698  

    Beta Occupied:                                                        

       1A1   -77.423291     2A1   -39.083392     3A1    -6.927086  
       4A1    -5.110950     1B2    -5.067366     1B1    -5.063274  
       5A1    -2.877916     6A1    -1.819755     2B2    -1.743635  
       2B1    -1.742171     7A1    -0.742959     3B1    -0.479864  

    Beta Virtual:                                                         

       3B2    -0.403432     8A1    -0.330457     9A1    -0.187589  
       4B1    -0.142964     4B2    -0.139910    10A1    -0.125583  
       1A2    -0.073413    11A1    -0.070946    12A1    -0.068581  
       5B1    -0.061747     5B2    -0.061725    13A1     0.014222  
       6B1     0.057206     6B2     0.058133    14A1     0.114343  
       7B1     0.173011     7B2     0.180148     2A2     0.300168  
      15A1     0.304658    16A1     0.330359     8B1     0.405304  
       8B2     0.407655    17A1     0.576307    18A1     0.601537  

    Final Occupation by Irrep:
             A1    A2    B1    B2 
    DOCC [     7,    0,    3,    2 ]
    SOCC [     0,    0,    0,    1 ]
    NA   [     7,    0,    3,    3 ]
    NB   [     7,    0,    3,    2 ]

  @DF-UKS Final Energy:  -502.57689420844019

   => Energetics <=

    Nuclear Repulsion Energy =             70.5137510281860500
    One-Electron Energy =                -827.7232078939740632
    Two-Electron Energy =                 285.0008671914780507
    DFT Exchange-Correlation Energy =     -30.3683045341301572
    Empirical Dispersion Energy =           0.0000000000000000
    VV10 Nonlocal Energy =                  0.0000000000000000
    Total Energy =                       -502.5768942084401942

  UHF NO Occupations:
  HONO-2 :    3 B1 1.9999060
  HONO-1 :    7 A1 1.9977059
  HONO-0 :    3 B2 1.0000000
  LUNO+0 :    8 A1 0.0022941
  LUNO+1 :    4 B1 0.0000940
  LUNO+2 :    4 B2 0.0000027
  LUNO+3 :    9 A1 0.0000010


Computation Completed


Properties will be evaluated at   0.000000,   0.000000,   0.000000 [a0]

Properties computed using the SCF density matrix


 Multipole Moments:

 ------------------------------------------------------------------------------------
     Multipole            Electronic (a.u.)      Nuclear  (a.u.)        Total (a.u.)
 ------------------------------------------------------------------------------------

 L = 1.  Multiply by 2.5417464519 to convert [e a0] to [Debye]
 Dipole X            :          0.0000000            0.0000000            0.0000000
 Dipole Y            :          0.0000000            0.0000000            0.0000000
 Dipole Z            :          1.5409753           -0.1793089            1.3616664
 Magnitude           :                                                    1.3616664

 ------------------------------------------------------------------------------------

*** tstop() called on Joses-MacBook-Pro-2.local at Thu Jul 17 14:54:05 2025
Module time:
	user time   =      16.12 seconds =       0.27 minutes
	system time =       2.12 seconds =       0.04 minutes
	total time  =          1 seconds =       0.02 minutes
Total time:
	user time   =      70.44 seconds =       1.17 minutes
	system time =      13.59 seconds =       0.23 minutes
	total time  =          8 seconds =       0.13 minutes

*** tstart() called on Joses-MacBook-Pro-2.local
*** at Thu Jul 17 14:54:06 2025


         ------------------------------------------------------------
                                   SCF GRAD                          
                          Rob Parrish, Justin Turney,                
                       Andy Simmonett, and Alex Sokolov              
         ------------------------------------------------------------

  ==> Geometry <==

    Molecular point group: c2v
    Full point group: C_inf_v

    Geometry (in Angstrom), charge = 1, multiplicity = 2:

       Center              X                  Y                   Z               Mass       
    ------------   -----------------  -----------------  -----------------  -----------------
         NA           0.000000000000     0.000000000000     0.710730339004    22.989769282000
         P            0.000000000000     0.000000000000    -0.527527993411    30.973761998420

  Nuclear repulsion =   70.513751028186050

  ==> Basis Set <==

  Basis Set: CC-PVDZ
    Blend: CC-PVDZ
    Number of shells: 16
    Number of basis functions: 36
    Number of Cartesian functions: 38
    Spherical Harmonics?: true
    Max angular momentum: 2

  ==> DFJKGrad: Density-Fitted SCF Gradients <==

    Gradient:                    1
    J tasked:                  Yes
    K tasked:                  Yes
    wK tasked:                  No
    OpenMP threads:              1
    Integrals threads:           1
    Memory [MiB]:              375
    Schwarz Cutoff:          1E-12
    Fitting Condition:       1E-10

   => Auxiliary Basis Set <=

  Basis Set: (CC-PVDZ AUX)
    Blend: CC-PVDZ-JKFIT + DEF2-UNIVERSAL-JKFIT
    Number of shells: 70
    Number of basis functions: 224
    Number of Cartesian functions: 267
    Spherical Harmonics?: true
    Max angular momentum: 4

  ==> DFT Potential <==

   => LibXC <=

    Version 6.2.2
    S. Lehtola, C. Steigemann, M. J.T. Oliveira, and M. A.L. Marques.,  SoftwareX 7, 1–5 (2018) (10.1016/j.softx.2017.11.002)

   => Composite Functional: B3LYP <= 

    B3LYP Hyb-GGA Exchange-Correlation Functional

    P. J. Stephens, F. J. Devlin, C. F. Chabalowski, and M. J. Frisch.,  J. Phys. Chem. 98, 11623 (1994) (10.1021/j100096a001)

    Deriv               =              1
    GGA                 =           TRUE
    Meta                =          FALSE

    Exchange Hybrid     =           TRUE
    MP2 Hybrid          =          FALSE

   => Exchange Functionals <=

    0.0800   Slater exchange
    0.7200         Becke 88

   => Exact (HF) Exchange <=

    0.2000               HF 

   => Correlation Functionals <=

    0.1900   Vosko, Wilk & Nusair (VWN5_RPA)
    0.8100   Lee, Yang & Parr

   => LibXC Density Thresholds  <==

    XC_HYB_GGA_XC_B3LYP:  1.00E-15 

   => Molecular Quadrature <=

    Radial Scheme          =       TREUTLER
    Pruning Scheme         =           NONE
    Nuclear Scheme         =       TREUTLER

    Blocking Scheme        =         OCTREE
    BS radius alpha        =              1
    Pruning alpha          =              1
    Radial Points          =             75
    Spherical Points       =            302
    Total Points           =          43729
    Total Blocks           =            439
    Max Points             =            253
    Max Functions          =             36
    Weights Tolerance      =       1.00E-15


  -Total Gradient:
     Atom            X                  Y                   Z
    ------   -----------------  -----------------  -----------------
       1        0.000000000000     0.000000000000    -1.277048422044
       2        0.000000000000    -0.000000000000     1.277242637786


*** tstop() called on Joses-MacBook-Pro-2.local at Thu Jul 17 14:54:06 2025
Module time:
	user time   =       6.27 seconds =       0.10 minutes
	system time =       1.07 seconds =       0.02 minutes
	total time  =          0 seconds =       0.00 minutes
Total time:
	user time   =      76.72 seconds =       1.28 minutes
	system time =      14.68 seconds =       0.24 minutes
	total time  =          9 seconds =       0.15 minutes

    			-----------------------------------------

    			 OPTKING 3.0: for geometry optimizations 

    			     By R.A. King, Bethel University     

    			        with contributions from          

    			    A.V. Copan, J. Cayton, A. Heide      

    			-----------------------------------------

    
	                            ===> Fragment 1 <== 

	 Z (Atomic Numbers)          Masses                          Geom                  
	      11.000000            22.989769          0.00000000  0.00000000  1.34308569   
	      15.000000            30.973762          0.00000000  0.00000000 -0.99688343   

	 - Coordinate -           - BOHR/RAD -       - ANG/DEG -
	 R(1,2)           =         2.339969           1.238258


	        --- Internal Coordinate Step in ANG or DEG, aJ/ANG or AJ/DEG ---
	-------------------------------------------------------------------------------
	           Coordinate      Previous         Force          Change          New 
	           ----------      --------        ------          ------        ------
	               R(1,2)       1.23826       10.52205        0.17649       1.41474
	-------------------------------------------------------------------------------

	                                 ==> Convergence Check <==                                  
    
	Measures of convergence in internal coordinates in au.
    
	Criteria marked as inactive (o), active & met (*), and active & unmet ( ).

	----------------------------------------------------------------------------------------------
	   Step    Total Energy     Delta E     Max Force     RMS Force      Max Disp      RMS Disp   
	----------------------------------------------------------------------------------------------
	  Convergence Criteria     1.00e-06 *    3.00e-04 *             o    1.20e-03 *             o
	----------------------------------------------------------------------------------------------
	     4    -502.57689421   -7.02e-02      1.28e+00      1.28e+00 o    3.34e-01      3.34e-01 o  ~
	----------------------------------------------------------------------------------------------

Next Geometry in Ang 
	Fragment 1 (Ang)

	   Na   0.0000000000   0.0000000000   0.7989732180
	    P   0.0000000000   0.0000000000  -0.6157708724


    Structure for next step:
    Molecular point group: c2v
    Full point group: C_inf_v

    Geometry (in Angstrom), charge = 1, multiplicity = 2:

    NA           0.000000000000     0.000000000000     0.812028896244
    P            0.000000000000     0.000000000000    -0.602715194103


Scratch directory: /tmp/
gradient() will perform analytic gradient computation.
   => Libint2 <=

    Primary   basis highest AM E, G, H:  6, 6, 3
    Auxiliary basis highest AM E, G, H:  7, 7, 4
    Onebody   basis highest AM E, G, H:  -, -, -
    Solid Harmonics ordering:            Gaussian

*** tstart() called on Joses-MacBook-Pro-2.local
*** at Thu Jul 17 14:54:06 2025

   => Loading Basis Set <=

    Name: CC-PVDZ
    Role: ORBITAL
    Keyword: BASIS
    atoms 1 entry NA         line   288 file /Users/joseantoniorodriguesromero/anaconda3/share/psi4/basis/cc-pvdz.gbs 
    atoms 2 entry P          line   538 file /Users/joseantoniorodriguesromero/anaconda3/share/psi4/basis/cc-pvdz.gbs 


         ---------------------------------------------------------
                                   SCF
               by Justin Turney, Rob Parrish, Andy Simmonett
                          and Daniel G. A. Smith
                              UKS Reference
                        1 Threads,    500 MiB Core
         ---------------------------------------------------------

  ==> Geometry <==

    Molecular point group: c2v
    Full point group: C_inf_v

    Geometry (in Angstrom), charge = 1, multiplicity = 2:

       Center              X                  Y                   Z               Mass       
    ------------   -----------------  -----------------  -----------------  -----------------
         NA           0.000000000000     0.000000000000     0.812028896244    22.989769282000
         P            0.000000000000     0.000000000000    -0.602715194103    30.973761998420

  Running in c2v symmetry.

  Rotational constants: A = ************  B =      0.63828  C =      0.63828 [cm^-1]
  Rotational constants: A = ************  B =  19135.20917  C =  19135.20917 [MHz]
  Nuclear repulsion =   61.717338390974412

  Charge       = 1
  Multiplicity = 2
  Electrons    = 25
  Nalpha       = 13
  Nbeta        = 12

  ==> Algorithm <==

  SCF Algorithm Type is DF.
  DIIS enabled.
  MOM disabled.
  Fractional occupation disabled.
  Guess Type is READ.
  Energy threshold   = 1.00e-08
  Density threshold  = 1.00e-08
  Integral threshold = 1.00e-12

  ==> Primary Basis <==

  Basis Set: CC-PVDZ
    Blend: CC-PVDZ
    Number of shells: 16
    Number of basis functions: 36
[...]
	               R(1,2)       6.91440        0.00212        0.00099       6.91539
	-------------------------------------------------------------------------------

	                                 ==> Convergence Check <==                                  
    
	Measures of convergence in internal coordinates in au.
    
	Criteria marked as inactive (o), active & met (*), and active & unmet ( ).

	----------------------------------------------------------------------------------------------
	   Step    Total Energy     Delta E     Max Force     RMS Force      Max Disp      RMS Disp   
	----------------------------------------------------------------------------------------------
	  Convergence Criteria     1.00e-06 *    3.00e-04 *             o    1.20e-03 *             o
	----------------------------------------------------------------------------------------------
	    86    -503.30320411   -2.59e-04      2.57e-04 *    2.57e-04 o    1.87e-03      1.87e-03 o  ~
	----------------------------------------------------------------------------------------------

Next Geometry in Ang 
	Fragment 1 (Ang)

	   Na   0.0000000000   0.0000000000   3.9691938946
	    P   0.0000000000   0.0000000000  -2.9461969258


    Structure for next step:
    Molecular point group: c2v
    Full point group: C_inf_v

    Geometry (in Angstrom), charge = 1, multiplicity = 2:

    NA           0.000000000000     0.000000000000     3.969267101572
    P            0.000000000000     0.000000000000    -2.946123718792


Scratch directory: /tmp/
gradient() will perform analytic gradient computation.
   => Libint2 <=

    Primary   basis highest AM E, G, H:  6, 6, 3
    Auxiliary basis highest AM E, G, H:  7, 7, 4
    Onebody   basis highest AM E, G, H:  -, -, -
    Solid Harmonics ordering:            Gaussian

*** tstart() called on Joses-MacBook-Pro-2.local
*** at Thu Jul 17 14:55:41 2025

   => Loading Basis Set <=

    Name: CC-PVDZ
    Role: ORBITAL
    Keyword: BASIS
    atoms 1 entry NA         line   288 file /Users/joseantoniorodriguesromero/anaconda3/share/psi4/basis/cc-pvdz.gbs 
    atoms 2 entry P          line   538 file /Users/joseantoniorodriguesromero/anaconda3/share/psi4/basis/cc-pvdz.gbs 


         ---------------------------------------------------------
                                   SCF
               by Justin Turney, Rob Parrish, Andy Simmonett
                          and Daniel G. A. Smith
                              UKS Reference
                        1 Threads,    500 MiB Core
         ---------------------------------------------------------

  ==> Geometry <==

    Molecular point group: c2v
    Full point group: C_inf_v

    Geometry (in Angstrom), charge = 1, multiplicity = 2:

       Center              X                  Y                   Z               Mass       
    ------------   -----------------  -----------------  -----------------  -----------------
         NA           0.000000000000     0.000000000000     3.969267101572    22.989769282000
         P            0.000000000000     0.000000000000    -2.946123718792    30.973761998420

  Running in c2v symmetry.

  Rotational constants: A = ************  B =      0.02671  C =      0.02671 [cm^-1]
  Rotational constants: A = ************  B =    800.85803  C =    800.85803 [MHz]
  Nuclear repulsion =   12.626074509545356

  Charge       = 1
  Multiplicity = 2
  Electrons    = 25
  Nalpha       = 13
  Nbeta        = 12

  ==> Algorithm <==

  SCF Algorithm Type is DF.
  DIIS enabled.
  MOM disabled.
  Fractional occupation disabled.
  Guess Type is READ.
  Energy threshold   = 1.00e-08
  Density threshold  = 1.00e-08
  Integral threshold = 1.00e-12

  ==> Primary Basis <==

  Basis Set: CC-PVDZ
    Blend: CC-PVDZ
    Number of shells: 16
    Number of basis functions: 36
    Number of Cartesian functions: 38
    Spherical Harmonics?: true
    Max angular momentum: 2

  ==> DFT Potential <==

   => LibXC <=

    Version 6.2.2
    S. Lehtola, C. Steigemann, M. J.T. Oliveira, and M. A.L. Marques.,  SoftwareX 7, 1–5 (2018) (10.1016/j.softx.2017.11.002)

   => Composite Functional: B3LYP <= 

    B3LYP Hyb-GGA Exchange-Correlation Functional

    P. J. Stephens, F. J. Devlin, C. F. Chabalowski, and M. J. Frisch.,  J. Phys. Chem. 98, 11623 (1994) (10.1021/j100096a001)

    Deriv               =              1
    GGA                 =           TRUE
    Meta                =          FALSE

    Exchange Hybrid     =           TRUE
    MP2 Hybrid          =          FALSE

   => Exchange Functionals <=

    0.0800   Slater exchange
    0.7200         Becke 88

   => Exact (HF) Exchange <=

    0.2000               HF 

   => Correlation Functionals <=

    0.1900   Vosko, Wilk & Nusair (VWN5_RPA)
    0.8100   Lee, Yang & Parr

   => LibXC Density Thresholds  <==

    XC_HYB_GGA_XC_B3LYP:  1.00E-15 

   => Molecular Quadrature <=

    Radial Scheme          =       TREUTLER
    Pruning Scheme         =           NONE
    Nuclear Scheme         =       TREUTLER

    Blocking Scheme        =         OCTREE
    BS radius alpha        =              1
    Pruning alpha          =              1
    Radial Points          =             75
    Spherical Points       =            302
    Total Points           =          43972
    Total Blocks           =            467
    Max Points             =            256
    Max Functions          =             36
    Weights Tolerance      =       1.00E-15

   => Loading Basis Set <=

    Name: (CC-PVDZ AUX)
    Role: JKFIT
    Keyword: DF_BASIS_SCF
    atoms 1 entry NA         line   498 file /Users/joseantoniorodriguesromero/anaconda3/share/psi4/basis/def2-universal-jkfit.gbs 
    atoms 2 entry P          line   519 file /Users/joseantoniorodriguesromero/anaconda3/share/psi4/basis/cc-pvdz-jkfit.gbs 

   => Loading Basis Set <=

    Name: CC-PVDZ
    Role: ORBITAL
    Keyword: BASIS
    atoms 1 entry NA         line   288 file /Users/joseantoniorodriguesromero/anaconda3/share/psi4/basis/cc-pvdz.gbs 
    atoms 2 entry P          line   538 file /Users/joseantoniorodriguesromero/anaconda3/share/psi4/basis/cc-pvdz.gbs 

  Reading orbitals from file /tmp/doublet_NaP.default.74953.180.npy, no projection.

  ==> Integral Setup <==

  DFHelper Memory: AOs need 0.003 GiB; user supplied 0.329 GiB. 
  Using in-core AOs.

  ==> MemDFJK: Density-Fitted J/K Matrices <==

    J tasked:                   Yes
    K tasked:                   Yes
    wK tasked:                   No
    OpenMP threads:               1
    Memory [MiB]:               336
    Algorithm:                 Core
    Schwarz Cutoff:           1E-12
    Mask sparsity (%):       0.0000
    Fitting Condition:        1E-10

   => Auxiliary Basis Set <=

  Basis Set: (CC-PVDZ AUX)
    Blend: CC-PVDZ-JKFIT + DEF2-UNIVERSAL-JKFIT
    Number of shells: 70
    Number of basis functions: 224
    Number of Cartesian functions: 267
    Spherical Harmonics?: true
    Max angular momentum: 4

  Cached 100.0% of DFT collocation blocks in 0.037 [GiB].

  Minimum eigenvalue in the overlap matrix is 4.2865744726E-02.
  Reciprocal condition number of the overlap matrix is 2.1183909420E-02.
    Using symmetric orthogonalization.

  ==> Pre-Iterations <==

  SCF Guess: Orbitals guess was supplied from a previous computation.

   -------------------------------------------------------
    Irrep   Nso     Nmo     Nalpha   Nbeta   Ndocc  Nsocc
   -------------------------------------------------------
     A1        18      18       7       7       7       0
     A2         2       2       0       0       0       0
     B1         8       8       3       3       3       0
     B2         8       8       3       2       2       1
   -------------------------------------------------------
    Total      36      36      13      12      12       1
   -------------------------------------------------------

  ==> Iterations <==

                           Total Energy        Delta E     RMS |[F,P]|

   @DF-UKS iter   0:  -503.30320343951246   -5.03303e+02   3.05540e-07 
   @DF-UKS iter   1:  -503.30320461154639   -1.17203e-06   1.67608e-07 DIIS
   @DF-UKS iter   2:  -503.30320461154821   -1.81899e-12   1.53585e-07 DIIS/DAMP=1%
   @DF-UKS iter   3:  -503.30320460627269    5.27552e-09   2.12367e-09 DIIS/DAMP=1%
  Energy and wave function converged.


  ==> Post-Iterations <==

   Electrons on quadrature grid:
      Nalpha   =   12.9999984436 ; deviation = -1.556e-06
      Nbeta    =   12.0000007306 ; deviation = 7.306e-07
      Ntotal   =   24.9999991741 ; deviation = -8.259e-07 

   @Spin Contamination Metric:   2.580723159E-03
   @S^2 Expected:                7.500000000E-01
   @S^2 Observed:                7.525807232E-01
   @S   Expected:                5.000000000E-01
   @S   Observed:                5.000000000E-01

    Orbital Energies [Eh]
    ---------------------

    Alpha Occupied:                                                       

       1A1   -77.209944     2A1   -38.774799     3A1    -6.674026  
       4A1    -4.844391     1B2    -4.839364     1B1    -4.823126  
       5A1    -2.512086     6A1    -1.443252     2B2    -1.443229  
       2B1    -1.443226     7A1    -0.642064     3B2    -0.328438  
       3B1    -0.285670  

    Alpha Virtual:                                                        

       8A1    -0.258170     9A1    -0.254999     4B1    -0.150268  
       4B2    -0.149416    10A1    -0.149061    11A1    -0.065990  
       5B1    -0.047554    12A1    -0.047018     5B2    -0.045936  
      13A1     0.009348     1A2     0.009485     6B1     0.009536  
      14A1     0.009590     6B2     0.009658    15A1     0.273537  
       7B2     0.325064    16A1     0.337332     7B1     0.353553  
       8B2     0.359015    17A1     0.364175     2A2     0.388147  
       8B1     0.393047    18A1     0.404832  

    Beta Occupied:                                                        

       1A1   -77.205796     2A1   -38.774799     3A1    -6.669612  
       4A1    -4.842069     1B2    -4.824697     1B1    -4.820580  
       5A1    -2.512086     6A1    -1.443252     2B2    -1.443229  
       2B1    -1.443226     7A1    -0.601389     3B1    -0.274318  

    Beta Virtual:                                                         

       8A1    -0.257933     9A1    -0.243177     3B2    -0.199901  
       4B1    -0.150195    10A1    -0.149075     4B2    -0.148721  
      11A1    -0.065415     5B1    -0.047856    12A1    -0.047251  
       5B2    -0.045003    13A1     0.009356     6B1     0.009518  
       1A2     0.009665     6B2     0.009721    14A1     0.009801  
      15A1     0.288753    16A1     0.342847     7B1     0.359092  
       7B2     0.365779    17A1     0.398003     8B1     0.398238  
       8B2     0.411516     2A2     0.433182    18A1     0.439055  

    Final Occupation by Irrep:
             A1    A2    B1    B2 
    DOCC [     7,    0,    3,    2 ]
    SOCC [     0,    0,    0,    1 ]
    NA   [     7,    0,    3,    3 ]
    NB   [     7,    0,    3,    2 ]

  @DF-UKS Final Energy:  -503.30320460627269

   => Energetics <=

    Nuclear Repulsion Energy =             12.6260745095453562
    One-Electron Energy =                -720.2213700308043371
    Two-Electron Energy =                 234.4675385894545059
    DFT Exchange-Correlation Energy =     -30.1754476744681561
    Empirical Dispersion Energy =           0.0000000000000000
    VV10 Nonlocal Energy =                  0.0000000000000000
    Total Energy =                       -503.3032046062726295

  UHF NO Occupations:
  HONO-2 :    3 B1 1.9999753
  HONO-1 :    7 A1 1.9987336
  HONO-0 :    3 B2 1.0000000
  LUNO+0 :    8 A1 0.0012664
  LUNO+1 :    4 B1 0.0000247
  LUNO+2 :    9 A1 0.0000000
  LUNO+3 :    4 B2 0.0000000


Computation Completed


Properties will be evaluated at   0.000000,   0.000000,   0.000000 [a0]

Properties computed using the SCF density matrix


 Multipole Moments:

 ------------------------------------------------------------------------------------
     Multipole            Electronic (a.u.)      Nuclear  (a.u.)        Total (a.u.)
 ------------------------------------------------------------------------------------

 L = 1.  Multiply by 2.5417464519 to convert [e a0] to [Debye]
 Dipole X            :          0.0000000            0.0000000            0.0000000
 Dipole Y            :          0.0000000            0.0000000            0.0000000
 Dipole Z            :          8.4237076           -1.0013993            7.4223083
 Magnitude           :                                                    7.4223083

 ------------------------------------------------------------------------------------

*** tstop() called on Joses-MacBook-Pro-2.local at Thu Jul 17 14:55:42 2025
Module time:
	user time   =       3.03 seconds =       0.05 minutes
	system time =       2.06 seconds =       0.03 minutes
	total time  =          1 seconds =       0.02 minutes
Total time:
	user time   =     777.91 seconds =      12.97 minutes
	system time =     323.34 seconds =       5.39 minutes
	total time  =        105 seconds =       1.75 minutes

*** tstart() called on Joses-MacBook-Pro-2.local
*** at Thu Jul 17 14:55:42 2025


         ------------------------------------------------------------
                                   SCF GRAD                          
                          Rob Parrish, Justin Turney,                
                       Andy Simmonett, and Alex Sokolov              
         ------------------------------------------------------------

  ==> Geometry <==

    Molecular point group: c2v
    Full point group: C_inf_v

    Geometry (in Angstrom), charge = 1, multiplicity = 2:

       Center              X                  Y                   Z               Mass       
    ------------   -----------------  -----------------  -----------------  -----------------
         NA           0.000000000000     0.000000000000     3.969267101572    22.989769282000
         P            0.000000000000     0.000000000000    -2.946123718792    30.973761998420

  Nuclear repulsion =   12.626074509545356

  ==> Basis Set <==

  Basis Set: CC-PVDZ
    Blend: CC-PVDZ
    Number of shells: 16
    Number of basis functions: 36
    Number of Cartesian functions: 38
    Spherical Harmonics?: true
    Max angular momentum: 2

  ==> DFJKGrad: Density-Fitted SCF Gradients <==

    Gradient:                    1
    J tasked:                  Yes
    K tasked:                  Yes
    wK tasked:                  No
    OpenMP threads:              1
    Integrals threads:           1
    Memory [MiB]:              375
    Schwarz Cutoff:          1E-12
    Fitting Condition:       1E-10

   => Auxiliary Basis Set <=

  Basis Set: (CC-PVDZ AUX)
    Blend: CC-PVDZ-JKFIT + DEF2-UNIVERSAL-JKFIT
    Number of shells: 70
    Number of basis functions: 224
    Number of Cartesian functions: 267
    Spherical Harmonics?: true
    Max angular momentum: 4

  ==> DFT Potential <==

   => LibXC <=

    Version 6.2.2
    S. Lehtola, C. Steigemann, M. J.T. Oliveira, and M. A.L. Marques.,  SoftwareX 7, 1–5 (2018) (10.1016/j.softx.2017.11.002)

   => Composite Functional: B3LYP <= 

    B3LYP Hyb-GGA Exchange-Correlation Functional

    P. J. Stephens, F. J. Devlin, C. F. Chabalowski, and M. J. Frisch.,  J. Phys. Chem. 98, 11623 (1994) (10.1021/j100096a001)

    Deriv               =              1
    GGA                 =           TRUE
    Meta                =          FALSE

    Exchange Hybrid     =           TRUE
    MP2 Hybrid          =          FALSE

   => Exchange Functionals <=

    0.0800   Slater exchange
    0.7200         Becke 88

   => Exact (HF) Exchange <=

    0.2000               HF 

   => Correlation Functionals <=

    0.1900   Vosko, Wilk & Nusair (VWN5_RPA)
    0.8100   Lee, Yang & Parr

   => LibXC Density Thresholds  <==

    XC_HYB_GGA_XC_B3LYP:  1.00E-15 

   => Molecular Quadrature <=

    Radial Scheme          =       TREUTLER
    Pruning Scheme         =           NONE
    Nuclear Scheme         =       TREUTLER

    Blocking Scheme        =         OCTREE
    BS radius alpha        =              1
    Pruning alpha          =              1
    Radial Points          =             75
    Spherical Points       =            302
    Total Points           =          43972
    Total Blocks           =            467
    Max Points             =            256
    Max Functions          =             36
    Weights Tolerance      =       1.00E-15


  -Total Gradient:
     Atom            X                  Y                   Z
    ------   -----------------  -----------------  -----------------
       1       -0.000000000000     0.000000000000    -0.000264560154
       2        0.000000000000     0.000000000000     0.000248754034


*** tstop() called on Joses-MacBook-Pro-2.local at Thu Jul 17 14:55:43 2025
Module time:
	user time   =       4.57 seconds =       0.08 minutes
	system time =       1.36 seconds =       0.02 minutes
	total time  =          1 seconds =       0.02 minutes
Total time:
	user time   =     782.48 seconds =      13.04 minutes
	system time =     324.70 seconds =       5.41 minutes
	total time  =        106 seconds =       1.77 minutes

    			-----------------------------------------

    			 OPTKING 3.0: for geometry optimizations 

    			     By R.A. King, Bethel University     

    			        with contributions from          

    			    A.V. Copan, J. Cayton, A. Heide      

    			-----------------------------------------

    
	                            ===> Fragment 1 <== 

	 Z (Atomic Numbers)          Masses                          Geom                  
	      11.000000            22.989769          0.00000000  0.00000000  7.50082774   
	      15.000000            30.973762          0.00000000  0.00000000 -5.56736696   

	 - Coordinate -           - BOHR/RAD -       - ANG/DEG -
	 R(1,2)           =        13.068195           6.915391


	        --- Internal Coordinate Step in ANG or DEG, aJ/ANG or AJ/DEG ---
	-------------------------------------------------------------------------------
	           Coordinate      Previous         Force          Change          New 
	           ----------      --------        ------          ------        ------
	               R(1,2)       6.91539        0.00211        0.00099       6.91638
	-------------------------------------------------------------------------------

	                                 ==> Convergence Check <==                                  
    
	Measures of convergence in internal coordinates in au.
    
	Criteria marked as inactive (o), active & met (*), and active & unmet ( ).

	----------------------------------------------------------------------------------------------
	   Step    Total Energy     Delta E     Max Force     RMS Force      Max Disp      RMS Disp   
	----------------------------------------------------------------------------------------------
	  Convergence Criteria     1.00e-06 *    3.00e-04 *             o    1.20e-03 *             o
	----------------------------------------------------------------------------------------------
	    87    -503.30320461   -4.93e-07 *    2.57e-04 *    2.57e-04 o    1.87e-03      1.87e-03 o  ~
	----------------------------------------------------------------------------------------------

Next Geometry in Ang 
	Fragment 1 (Ang)

	   Na   0.0000000000   0.0000000000   3.9697617592
	    P   0.0000000000   0.0000000000  -2.9466183764


    Final optimized geometry and variables:
    Molecular point group: c2v
    Full point group: C_inf_v

    Geometry (in Angstrom), charge = 1, multiplicity = 2:

    NA           0.000000000000     0.000000000000     3.969267101572
    P            0.000000000000     0.000000000000    -2.946123718792


    Psi4 stopped on: Thursday, 17 July 2025 02:55PM
    Psi4 wall time for execution: 0:01:46.48

*** Psi4 exiting successfully. Buy a developer a beer!
