
    -----------------------------------------------------------------------
          Psi4: An Open-Source Ab Initio Electronic Structure Package
                               Psi4 1.9.1 release

                         Git: Rev {} zzzzzzz 


    D. G. A. Smith, L. A. Burns, A. C. Simmonett, R. M. Parrish,
    M. C. Schieber, R. Galvelis, P. Kraus, H. Kruse, R. Di Remigio,
    A. Alenaizan, A. M. James, S. Lehtola, J. P. Misiewicz, M. Scheurer,
    R. A. Shaw, J. B. Schriber, Y. Xie, Z. L. Glick, D. A. Sirianni,
    J. S. O'Brien, J. M. Waldrop, A. Kumar, E. G. Hohenstein,
    B. P. Pritchard, B. R. Brooks, H. F. Schaefer III, A. Yu. Sokolov,
    K. Patkowski, A. E. DePrince III, U. Bozkaya, R. A. King,
    F. A. Evangelista, J. M. Turney, T. D. Crawford, C. D. Sherrill,
    J. Chem. Phys. 152(18) 184108 (2020). https://doi.org/10.1063/5.0006002

                            Additional Code Authors
    E. T. Seidl, C. L. Janssen, E. F. Valeev, M. L. Leininger,
    J. F. Gonthier, R. M. Richard, H. R. McAlexander, M. Saitow, X. Wang,
    P. Verma, M. H. Lechner, A. Jiang, S. Behnle, A. G. Heide,
    M. F. Herbst, and D. L. Poole

             Previous Authors, Complete List of Code Contributors,
                       and Citations for Specific Modules
    https://github.com/psi4/psi4/blob/master/codemeta.json
    https://github.com/psi4/psi4/graphs/contributors
    http://psicode.org/psi4manual/master/introduction.html#citing-psifour

    -----------------------------------------------------------------------


    Psi4 started on: Thursday, 17 July 2025 02:31PM

    Process ID: 74737
    Host:       Joses-MacBook-Pro-2.local
    PSIDATADIR: /Users/joseantoniorodriguesromero/anaconda3/share/psi4
    Memory:     500.0 MiB
    Threads:    1
    
  ==> Input File <==

--------------------------------------------------------------------------
molecule { 
1 2
F   0.00000        0.60000        0.00000
Cl   0.00000       -0.60000        0.00000
}

set { 
basis              cc-pvdz
reference          uks
maxiter            500
geom_maxiter       500
DAMPING_PERCENTAGE 1
guess              SAP
}

optimize('b3lyp')
--------------------------------------------------------------------------

Scratch directory: /tmp/
gradient() will perform analytic gradient computation.
   => Libint2 <=

    Primary   basis highest AM E, G, H:  6, 6, 3
    Auxiliary basis highest AM E, G, H:  7, 7, 4
    Onebody   basis highest AM E, G, H:  -, -, -
    Solid Harmonics ordering:            Gaussian

*** tstart() called on Joses-MacBook-Pro-2.local
*** at Thu Jul 17 14:31:59 2025

   => Loading Basis Set <=

    Name: CC-PVDZ
    Role: ORBITAL
    Keyword: BASIS
    atoms 1 entry F          line   228 file /Users/joseantoniorodriguesromero/anaconda3/share/psi4/basis/cc-pvdz.gbs 
    atoms 2 entry CL         line   658 file /Users/joseantoniorodriguesromero/anaconda3/share/psi4/basis/cc-pvdz.gbs 


         ---------------------------------------------------------
                                   SCF
               by Justin Turney, Rob Parrish, Andy Simmonett
                          and Daniel G. A. Smith
                              UKS Reference
                        1 Threads,    500 MiB Core
         ---------------------------------------------------------

  ==> Geometry <==

    Molecular point group: c2v
    Full point group: C_inf_v

    Geometry (in Angstrom), charge = 1, multiplicity = 2:

       Center              X                  Y                   Z               Mass       
    ------------   -----------------  -----------------  -----------------  -----------------
         F            0.000000000000     0.000000000000     0.777557104981    18.998403162730
         CL           0.000000000000     0.000000000000    -0.422442895019    34.968852682000

  Running in c2v symmetry.

  Rotational constants: A = ************  B =      0.95097  C =      0.95097 [cm^-1]
  Rotational constants: A = ************  B =  28509.30037  C =  28509.30037 [MHz]
  Nuclear repulsion =   67.470094360424994

  Charge       = 1
  Multiplicity = 2
  Electrons    = 25
  Nalpha       = 13
  Nbeta        = 12

  ==> Algorithm <==

  SCF Algorithm Type is DF.
  DIIS enabled.
  MOM disabled.
  Fractional occupation disabled.
  Guess Type is SAP.
  Energy threshold   = 1.00e-08
  Density threshold  = 1.00e-08
  Integral threshold = 1.00e-12

  ==> Primary Basis <==

  Basis Set: CC-PVDZ
    Blend: CC-PVDZ
    Number of shells: 14
    Number of basis functions: 32
    Number of Cartesian functions: 34
    Spherical Harmonics?: true
    Max angular momentum: 2

  ==> DFT Potential <==

   => LibXC <=

    Version 6.2.2
    S. Lehtola, C. Steigemann, M. J.T. Oliveira, and M. A.L. Marques.,  SoftwareX 7, 1–5 (2018) (10.1016/j.softx.2017.11.002)

   => Composite Functional: B3LYP <= 

    B3LYP Hyb-GGA Exchange-Correlation Functional

    P. J. Stephens, F. J. Devlin, C. F. Chabalowski, and M. J. Frisch.,  J. Phys. Chem. 98, 11623 (1994) (10.1021/j100096a001)

    Deriv               =              1
    GGA                 =           TRUE
    Meta                =          FALSE

    Exchange Hybrid     =           TRUE
    MP2 Hybrid          =          FALSE

   => Exchange Functionals <=

    0.0800   Slater exchange
    0.7200         Becke 88

   => Exact (HF) Exchange <=

    0.2000               HF 

   => Correlation Functionals <=

    0.1900   Vosko, Wilk & Nusair (VWN5_RPA)
    0.8100   Lee, Yang & Parr

   => LibXC Density Thresholds  <==

    XC_HYB_GGA_XC_B3LYP:  1.00E-15 

   => Molecular Quadrature <=

    Radial Scheme          =       TREUTLER
    Pruning Scheme         =           NONE
    Nuclear Scheme         =       TREUTLER

    Blocking Scheme        =         OCTREE
    BS radius alpha        =              1
    Pruning alpha          =              1
    Radial Points          =             75
    Spherical Points       =            302
    Total Points           =          41717
    Total Blocks           =            373
    Max Points             =            256
    Max Functions          =             32
    Weights Tolerance      =       1.00E-15

   => Loading Basis Set <=

    Name: (CC-PVDZ AUX)
    Role: JKFIT
    Keyword: DF_BASIS_SCF
    atoms 1 entry F          line   271 file /Users/joseantoniorodriguesromero/anaconda3/share/psi4/basis/cc-pvdz-jkfit.gbs 
    atoms 2 entry CL         line   667 file /Users/joseantoniorodriguesromero/anaconda3/share/psi4/basis/cc-pvdz-jkfit.gbs 

  ==> Integral Setup <==

  DFHelper Memory: AOs need 0.002 GiB; user supplied 0.329 GiB. 
  Using in-core AOs.

  ==> MemDFJK: Density-Fitted J/K Matrices <==

    J tasked:                   Yes
    K tasked:                   Yes
    wK tasked:                   No
    OpenMP threads:               1
    Memory [MiB]:               336
    Algorithm:                 Core
    Schwarz Cutoff:           1E-12
    Mask sparsity (%):       0.0000
    Fitting Condition:        1E-10

   => Auxiliary Basis Set <=

  Basis Set: (CC-PVDZ AUX)
    Blend: CC-PVDZ-JKFIT
    Number of shells: 60
    Number of basis functions: 182
    Number of Cartesian functions: 211
    Spherical Harmonics?: true
    Max angular momentum: 3

  Cached 100.0% of DFT collocation blocks in 0.038 [GiB].

  Minimum eigenvalue in the overlap matrix is 2.7781516230E-02.
  Reciprocal condition number of the overlap matrix is 9.4631964148E-03.
    Using symmetric orthogonalization.

  ==> Pre-Iterations <==

  SCF Guess: Superposition of Atomic Potentials (doi:10.1021/acs.jctc.8b01089).

  ==> SAP guess <==

   => Molecular Quadrature <=

    Radial Scheme          =       TREUTLER
    Pruning Scheme         =           NONE
    Nuclear Scheme         =       TREUTLER

    Blocking Scheme        =         OCTREE
    BS radius alpha        =              1
    Pruning alpha          =              1
    Radial Points          =             75
    Spherical Points       =            302
    Total Points           =          41717
    Total Blocks           =            373
    Max Points             =            256
    Max Functions          =             32
    Weights Tolerance      =       1.00E-15

   -------------------------------------------------------
    Irrep   Nso     Nmo     Nalpha   Nbeta   Ndocc  Nsocc
   -------------------------------------------------------
     A1        16      16       7       7       7       0
     A2         2       2       0       0       0       0
     B1         7       7       3       3       3       0
     B2         7       7       3       2       2       1
   -------------------------------------------------------
    Total      32      32      13      12      12       1
   -------------------------------------------------------

  ==> Iterations <==

                           Total Energy        Delta E     RMS |[F,P]|

   @DF-UKS iter   1:  -559.18405632864540   -5.59184e+02   2.90168e-02 ADIIS/DIIS
   @DF-UKS iter   2:  -559.07354387381588    1.10512e-01   4.29494e-02 ADIIS/DIIS/DAMP=1%
   @DF-UKS iter   3:  -559.27334506393254   -1.99801e-01   2.54045e-03 ADIIS/DIIS/DAMP=1%
   @DF-UKS iter   4:  -559.28314230305523   -9.79724e-03   6.71499e-04 ADIIS/DIIS/DAMP=1%
   @DF-UKS iter   5:  -559.28501056948323   -1.86827e-03   8.96701e-05 DIIS/DAMP=1%
   @DF-UKS iter   6:  -559.28461135462192    3.99215e-04   1.41136e-05 DIIS/DAMP=1%
   @DF-UKS iter   7:  -559.28469854466618   -8.71900e-05   5.56998e-06 DIIS/DAMP=1%
   @DF-UKS iter   8:  -559.28468737975072    1.11649e-05   6.93766e-07 DIIS/DAMP=1%
   @DF-UKS iter   9:  -559.28468766038031   -2.80630e-07   1.24319e-07 DIIS/DAMP=1%
   @DF-UKS iter  10:  -559.28468747721502    1.83165e-07   1.27809e-08 DIIS/DAMP=1%
   @DF-UKS iter  11:  -559.28468748251908   -5.30406e-09   9.80576e-10 DIIS/DAMP=1%
  Energy and wave function converged.


  ==> Post-Iterations <==

   Electrons on quadrature grid:
      Nalpha   =   13.0000000779 ; deviation = 7.790e-08
      Nbeta    =   11.9999999463 ; deviation = -5.372e-08
      Ntotal   =   25.0000000242 ; deviation = 2.418e-08 

   @Spin Contamination Metric:   2.186449535E-03
   @S^2 Expected:                7.500000000E-01
   @S^2 Observed:                7.521864495E-01
   @S   Expected:                5.000000000E-01
   @S   Observed:                5.000000000E-01

    Orbital Energies [Eh]
    ---------------------

    Alpha Occupied:                                                       

       1A1  -102.049884     2A1   -25.189460     3A1    -9.973624  
       4A1    -7.739729     1B2    -7.734613     1B1    -7.713413  
       5A1    -1.943229     6A1    -1.200146     2B2    -1.063639  
       2B1    -1.032531     7A1    -0.990018     3B2    -0.682294  
       3B1    -0.636853  

    Alpha Virtual:                                                        

       8A1    -0.285884     4B2     0.149488     4B1     0.175004  
       9A1     0.236003    10A1     0.251576     1A2     0.266256  
      11A1     0.269856     5B2     0.363911     5B1     0.402042  
      12A1     0.593771     6B2     0.799700     6B1     0.817435  
      13A1     1.114314    14A1     1.686120    15A1     3.029380  
       2A2     3.029402     7B2     3.275739     7B1     3.299151  
      16A1     3.955961  

    Beta Occupied:                                                        

       1A1  -102.043894     2A1   -25.180127     3A1    -9.967768  
       4A1    -7.736516     1B2    -7.715032     1B1    -7.709923  
       5A1    -1.927640     6A1    -1.168002     2B1    -1.024314  
       2B2    -1.009001     7A1    -0.962268     3B1    -0.623122  

    Beta Virtual:                                                         

       3B2    -0.531678     8A1    -0.270048     4B1     0.179928  
       4B2     0.180078     9A1     0.250914    10A1     0.263200  
       1A2     0.312419    11A1     0.315920     5B1     0.408608  
       5B2     0.416273    12A1     0.600392     6B1     0.821082  
       6B2     0.823328    13A1     1.129877    14A1     1.694951  
       2A2     3.053242    15A1     3.053858     7B2     3.302087  
       7B1     3.303422    16A1     3.968389  

    Final Occupation by Irrep:
             A1    A2    B1    B2 
    DOCC [     7,    0,    3,    2 ]
    SOCC [     0,    0,    0,    1 ]
    NA   [     7,    0,    3,    3 ]
    NB   [     7,    0,    3,    2 ]

  @DF-UKS Final Energy:  -559.28468748251908

   => Energetics <=

    Nuclear Repulsion Energy =             67.4700943604249943
    One-Electron Energy =                -896.3371834132676668
    Two-Electron Energy =                 300.6980894254971304
    DFT Exchange-Correlation Energy =     -31.1156878551735652
    Empirical Dispersion Energy =           0.0000000000000000
    VV10 Nonlocal Energy =                  0.0000000000000000
    Total Energy =                       -559.2846874825190753

  UHF NO Occupations:
  HONO-2 :    2 B2 1.9997176
  HONO-1 :    7 A1 1.9992393
  HONO-0 :    3 B2 1.0000000
  LUNO+0 :    8 A1 0.0007607
  LUNO+1 :    4 B2 0.0002824
  LUNO+2 :    9 A1 0.0000286
  LUNO+3 :    4 B1 0.0000146


Computation Completed


Properties will be evaluated at   0.000000,   0.000000,   0.000000 [a0]

Properties computed using the SCF density matrix


 Multipole Moments:

 ------------------------------------------------------------------------------------
     Multipole            Electronic (a.u.)      Nuclear  (a.u.)        Total (a.u.)
 ------------------------------------------------------------------------------------

 L = 1.  Multiply by 2.5417464519 to convert [e a0] to [Debye]
 Dipole X            :          0.0000000            0.0000000            0.0000000
 Dipole Y            :          0.0000000            0.0000000            0.0000000
 Dipole Z            :          0.1313285           -0.3467936           -0.2154651
 Magnitude           :                                                    0.2154651

 ------------------------------------------------------------------------------------

*** tstop() called on Joses-MacBook-Pro-2.local at Thu Jul 17 14:32:00 2025
Module time:
	user time   =       6.39 seconds =       0.11 minutes
	system time =       4.62 seconds =       0.08 minutes
	total time  =          1 seconds =       0.02 minutes
Total time:
	user time   =       6.39 seconds =       0.11 minutes
	system time =       4.62 seconds =       0.08 minutes
	total time  =          1 seconds =       0.02 minutes

*** tstart() called on Joses-MacBook-Pro-2.local
*** at Thu Jul 17 14:32:00 2025


         ------------------------------------------------------------
                                   SCF GRAD                          
                          Rob Parrish, Justin Turney,                
                       Andy Simmonett, and Alex Sokolov              
         ------------------------------------------------------------

  ==> Geometry <==

    Molecular point group: c2v
    Full point group: C_inf_v

    Geometry (in Angstrom), charge = 1, multiplicity = 2:

       Center              X                  Y                   Z               Mass       
    ------------   -----------------  -----------------  -----------------  -----------------
         F            0.000000000000     0.000000000000     0.777557104981    18.998403162730
         CL           0.000000000000     0.000000000000    -0.422442895019    34.968852682000

  Nuclear repulsion =   67.470094360424994

  ==> Basis Set <==

  Basis Set: CC-PVDZ
    Blend: CC-PVDZ
    Number of shells: 14
    Number of basis functions: 32
    Number of Cartesian functions: 34
    Spherical Harmonics?: true
    Max angular momentum: 2

  ==> DFJKGrad: Density-Fitted SCF Gradients <==

    Gradient:                    1
    J tasked:                  Yes
    K tasked:                  Yes
    wK tasked:                  No
    OpenMP threads:              1
    Integrals threads:           1
    Memory [MiB]:              375
    Schwarz Cutoff:          1E-12
    Fitting Condition:       1E-10

   => Auxiliary Basis Set <=

  Basis Set: (CC-PVDZ AUX)
    Blend: CC-PVDZ-JKFIT
    Number of shells: 60
    Number of basis functions: 182
    Number of Cartesian functions: 211
    Spherical Harmonics?: true
    Max angular momentum: 3

  ==> DFT Potential <==

   => LibXC <=

    Version 6.2.2
    S. Lehtola, C. Steigemann, M. J.T. Oliveira, and M. A.L. Marques.,  SoftwareX 7, 1–5 (2018) (10.1016/j.softx.2017.11.002)

   => Composite Functional: B3LYP <= 

    B3LYP Hyb-GGA Exchange-Correlation Functional

    P. J. Stephens, F. J. Devlin, C. F. Chabalowski, and M. J. Frisch.,  J. Phys. Chem. 98, 11623 (1994) (10.1021/j100096a001)

    Deriv               =              1
    GGA                 =           TRUE
    Meta                =          FALSE

    Exchange Hybrid     =           TRUE
    MP2 Hybrid          =          FALSE

   => Exchange Functionals <=

    0.0800   Slater exchange
    0.7200         Becke 88

   => Exact (HF) Exchange <=

    0.2000               HF 

   => Correlation Functionals <=

    0.1900   Vosko, Wilk & Nusair (VWN5_RPA)
    0.8100   Lee, Yang & Parr

   => LibXC Density Thresholds  <==

    XC_HYB_GGA_XC_B3LYP:  1.00E-15 

   => Molecular Quadrature <=

    Radial Scheme          =       TREUTLER
    Pruning Scheme         =           NONE
    Nuclear Scheme         =       TREUTLER

    Blocking Scheme        =         OCTREE
    BS radius alpha        =              1
    Pruning alpha          =              1
    Radial Points          =             75
    Spherical Points       =            302
    Total Points           =          41717
    Total Blocks           =            373
    Max Points             =            256
    Max Functions          =             32
    Weights Tolerance      =       1.00E-15


  -Total Gradient:
     Atom            X                  Y                   Z
    ------   -----------------  -----------------  -----------------
       1        0.000000000000    -0.000000000000    -0.908533129442
       2       -0.000000000000     0.000000000000     0.908503533585


*** tstop() called on Joses-MacBook-Pro-2.local at Thu Jul 17 14:32:00 2025
Module time:
	user time   =       1.47 seconds =       0.02 minutes
	system time =       1.50 seconds =       0.03 minutes
	total time  =          0 seconds =       0.00 minutes
Total time:
	user time   =       7.86 seconds =       0.13 minutes
	system time =       6.12 seconds =       0.10 minutes
	total time  =          1 seconds =       0.02 minutes

    			-----------------------------------------

    			 OPTKING 3.0: for geometry optimizations 

    			     By R.A. King, Bethel University     

    			        with contributions from          

    			    A.V. Copan, J. Cayton, A. Heide      

    			-----------------------------------------

    
	                            ===> Fragment 1 <== 

	 Z (Atomic Numbers)          Masses                          Geom                  
	       9.000000            18.998403          0.00000000  0.00000000  1.46936998   
	      17.000000            34.968853          0.00000000  0.00000000 -0.79830138   

	 - Coordinate -           - BOHR/RAD -       - ANG/DEG -
	 R(1,2)           =         2.267671           1.200000


	        --- Internal Coordinate Step in ANG or DEG, aJ/ANG or AJ/DEG ---
	-------------------------------------------------------------------------------
	           Coordinate      Previous         Force          Change          New 
	           ----------      --------        ------          ------        ------
	               R(1,2)       1.20000        7.48503        0.10999       1.30999
	-------------------------------------------------------------------------------

	                                 ==> Convergence Check <==                                  
    
	Measures of convergence in internal coordinates in au.
    
	Criteria marked as inactive (o), active & met (*), and active & unmet ( ).

	----------------------------------------------------------------------------------------------
	   Step    Total Energy     Delta E     Max Force     RMS Force      Max Disp      RMS Disp   
	----------------------------------------------------------------------------------------------
	  Convergence Criteria     1.00e-06 *    3.00e-04 *             o    1.20e-03 *             o
	----------------------------------------------------------------------------------------------
	     1    -559.28468748   -5.59e+02      9.09e-01      9.09e-01 o    2.08e-01      2.08e-01 o  ~
	----------------------------------------------------------------------------------------------

Next Geometry in Ang 
	Fragment 1 (Ang)

	    F   0.0000000000   0.0000000000   0.8325515417
	   Cl   0.0000000000   0.0000000000  -0.4774373318


    Structure for next step:
    Molecular point group: c2v
    Full point group: C_inf_v

    Geometry (in Angstrom), charge = 1, multiplicity = 2:

    F            0.000000000000     0.000000000000     0.848825963357
    CL           0.000000000000     0.000000000000    -0.461162910133


Scratch directory: /tmp/
gradient() will perform analytic gradient computation.
   => Libint2 <=

    Primary   basis highest AM E, G, H:  6, 6, 3
    Auxiliary basis highest AM E, G, H:  7, 7, 4
    Onebody   basis highest AM E, G, H:  -, -, -
    Solid Harmonics ordering:            Gaussian

*** tstart() called on Joses-MacBook-Pro-2.local
*** at Thu Jul 17 14:32:00 2025

   => Loading Basis Set <=

    Name: CC-PVDZ
    Role: ORBITAL
    Keyword: BASIS
    atoms 1 entry F          line   228 file /Users/joseantoniorodriguesromero/anaconda3/share/psi4/basis/cc-pvdz.gbs 
    atoms 2 entry CL         line   658 file /Users/joseantoniorodriguesromero/anaconda3/share/psi4/basis/cc-pvdz.gbs 


         ---------------------------------------------------------
                                   SCF
               by Justin Turney, Rob Parrish, Andy Simmonett
                          and Daniel G. A. Smith
                              UKS Reference
                        1 Threads,    500 MiB Core
         ---------------------------------------------------------

  ==> Geometry <==

    Molecular point group: c2v
    Full point group: C_inf_v

    Geometry (in Angstrom), charge = 1, multiplicity = 2:

       Center              X                  Y                   Z               Mass       
    ------------   -----------------  -----------------  -----------------  -----------------
         F            0.000000000000     0.000000000000     0.848825963357    18.998403162730
         CL           0.000000000000     0.000000000000    -0.461162910133    34.968852682000

  Running in c2v symmetry.

  Rotational constants: A = ************  B =      0.79798  C =      0.79798 [cm^-1]
  Rotational constants: A = ************  B =  23922.90071  C =  23922.90071 [MHz]
  Nuclear repulsion =   61.805191533237213

  Charge       = 1
  Multiplicity = 2
  Electrons    = 25
  Nalpha       = 13
  Nbeta        = 12

  ==> Algorithm <==

  SCF Algorithm Type is DF.
  DIIS enabled.
  MOM disabled.
  Fractional occupation disabled.
  Guess Type is READ.
  Energy threshold   = 1.00e-08
  Density threshold  = 1.00e-08
  Integral threshold = 1.00e-12

  ==> Primary Basis <==

  Basis Set: CC-PVDZ
    Blend: CC-PVDZ
    Number of shells: 14
    Number of basis functions: 32
    Number of Cartesian functions: 34
    Spherical Harmonics?: true
    Max angular momentum: 2

  ==> DFT Potential <==

   => LibXC <=

    Version 6.2.2
    S. Lehtola, C. Steigemann, M. J.T. Oliveira, and M. A.L. Marques.,  SoftwareX 7, 1–5 (2018) (10.1016/j.softx.2017.11.002)

   => Composite Functional: B3LYP <= 

    B3LYP Hyb-GGA Exchange-Correlation Functional

    P. J. Stephens, F. J. Devlin, C. F. Chabalowski, and M. J. Frisch.,  J. Phys. Chem. 98, 11623 (1994) (10.1021/j100096a001)

    Deriv               =              1
    GGA                 =           TRUE
    Meta                =          FALSE

    Exchange Hybrid     =           TRUE
    MP2 Hybrid          =          FALSE

   => Exchange Functionals <=

    0.0800   Slater exchange
    0.7200         Becke 88

   => Exact (HF) Exchange <=

    0.2000               HF 

   => Correlation Functionals <=

    0.1900   Vosko, Wilk & Nusair (VWN5_RPA)
    0.8100   Lee, Yang & Parr

   => LibXC Density Thresholds  <==

    XC_HYB_GGA_XC_B3LYP:  1.00E-15 

   => Molecular Quadrature <=

    Radial Scheme          =       TREUTLER
    Pruning Scheme         =           NONE
    Nuclear Scheme         =       TREUTLER

    Blocking Scheme        =         OCTREE
    BS radius alpha        =              1
    Pruning alpha          =              1
    Radial Points          =             75
    Spherical Points       =            302
    Total Points           =          41735
    Total Blocks           =            374
    Max Points             =            253
    Max Functions          =             32
    Weights Tolerance      =       1.00E-15

   => Loading Basis Set <=

    Name: (CC-PVDZ AUX)
    Role: JKFIT
    Keyword: DF_BASIS_SCF
    atoms 1 entry F          line   271 file /Users/joseantoniorodriguesromero/anaconda3/share/psi4/basis/cc-pvdz-jkfit.gbs 
    atoms 2 entry CL         line   667 file /Users/joseantoniorodriguesromero/anaconda3/share/psi4/basis/cc-pvdz-jkfit.gbs 

   => Loading Basis Set <=

    Name: CC-PVDZ
    Role: ORBITAL
    Keyword: BASIS
    atoms 1 entry F          line   228 file /Users/joseantoniorodriguesromero/anaconda3/share/psi4/basis/cc-pvdz.gbs 
    atoms 2 entry CL         line   658 file /Users/joseantoniorodriguesromero/anaconda3/share/psi4/basis/cc-pvdz.gbs 

  Reading orbitals from file /tmp/doublet_FCl.default.74737.180.npy, no projection.

  ==> Integral Setup <==

  DFHelper Memory: AOs need 0.002 GiB; user supplied 0.329 GiB. 
  Using in-core AOs.

  ==> MemDFJK: Density-Fitted J/K Matrices <==

    J tasked:                   Yes
    K tasked:                   Yes
    wK tasked:                   No
    OpenMP threads:               1
    Memory [MiB]:               336
    Algorithm:                 Core
    Schwarz Cutoff:           1E-12
    Mask sparsity (%):       0.0000
    Fitting Condition:        1E-10

   => Auxiliary Basis Set <=

  Basis Set: (CC-PVDZ AUX)
    Blend: CC-PVDZ-JKFIT
    Number of shells: 60
    Number of basis functions: 182
    Number of Cartesian functions: 211
    Spherical Harmonics?: true
    Max angular momentum: 3

  Cached 100.0% of DFT collocation blocks in 0.038 [GiB].

  Minimum eigenvalue in the overlap matrix is 3.3931353449E-02.
  Reciprocal condition number of the overlap matrix is 1.1919334534E-02.
    Using symmetric orthogonalization.

  ==> Pre-Iterations <==

  SCF Guess: Orbitals guess was supplied from a previous computation.

   -------------------------------------------------------
    Irrep   Nso     Nmo     Nalpha   Nbeta   Ndocc  Nsocc
   -------------------------------------------------------
     A1        16      16       7       7       7       0
     A2         2       2       0       0       0       0
     B1         7       7       3       3       3       0
     B2         7       7       3       2       2       1
   -------------------------------------------------------
    Total      32      32      13      12      12       1
   -------------------------------------------------------

  ==> Iterations <==

                           Total Energy        Delta E     RMS |[F,P]|

   @DF-UKS iter   0:  -559.30886721990953   -5.59309e+02   3.09572e-02 
   @DF-UKS iter   1:  -559.41763792995198   -1.08771e-01   4.21452e-03 ADIIS/DIIS
   @DF-UKS iter   2:  -559.41638150831852    1.25642e-03   5.71016e-03 ADIIS/DIIS/DAMP=1%
   @DF-UKS iter   3:  -559.41921025459294   -2.82875e-03   1.08913e-03 ADIIS/DIIS/DAMP=1%
   @DF-UKS iter   4:  -559.42076875714531   -1.55850e-03   1.02088e-04 ADIIS/DIIS/DAMP=1%
   @DF-UKS iter   5:  -559.42069954523470    6.92119e-05   1.62559e-05 DIIS/DAMP=1%
   @DF-UKS iter   6:  -559.42066037749896    3.91677e-05   4.51025e-06 DIIS/DAMP=1%
   @DF-UKS iter   7:  -559.42067537576850   -1.49983e-05   8.00015e-07 DIIS/DAMP=1%
   @DF-UKS iter   8:  -559.42067389637236    1.47940e-06   2.47480e-07 DIIS/DAMP=1%
   @DF-UKS iter   9:  -559.42067381248978    8.38826e-08   1.88891e-08 DIIS/DAMP=1%
   @DF-UKS iter  10:  -559.42067386965891   -5.71691e-08   1.28044e-09 DIIS/DAMP=1%
   @DF-UKS iter  11:  -559.42067386847179    1.18712e-09   1.94115e-10 DIIS/DAMP=1%
  Energy and wave function converged.


  ==> Post-Iterations <==

   Electrons on quadrature grid:
      Nalpha   =   13.0000035240 ; deviation = 3.524e-06
      Nbeta    =   12.0000027425 ; deviation = 2.742e-06
      Ntotal   =   25.0000062665 ; deviation = 6.266e-06 

   @Spin Contamination Metric:   2.255798039E-03
   @S^2 Expected:                7.500000000E-01
   @S^2 Observed:                7.522557980E-01
   @S   Expected:                5.000000000E-01
   @S   Observed:                5.000000000E-01

    Orbital Energies [Eh]
    ---------------------

    Alpha Occupied:                                                       

       1A1  -102.054394     2A1   -25.175962     3A1    -9.970356  
       4A1    -7.736002     1B2    -7.733372     1B1    -7.712120  
       5A1    -1.835083     6A1    -1.208438     2B2    -0.997547  
       7A1    -0.970499     2B1    -0.966209     3B2    -0.703960  
       3B1    -0.659275  

    Alpha Virtual:                                                        

       8A1    -0.332851     4B2     0.156334     4B1     0.181910  
       9A1     0.207053    10A1     0.231578     1A2     0.272097  
      11A1     0.272568     5B2     0.316795     5B1     0.353928  
      12A1     0.597325     6B2     0.830992     6B1     0.849326  
      13A1     0.960215    14A1     1.709972    15A1     3.069201  
       2A2     3.069290     7B2     3.219499     7B1     3.242442  
      16A1     3.819058  

    Beta Occupied:                                                        

       1A1  -102.048349     2A1   -25.166468     3A1    -9.964449  
       4A1    -7.732733     1B2    -7.713644     1B1    -7.708600  
       5A1    -1.817703     6A1    -1.172483     2B1    -0.957594  
       7A1    -0.947976     2B2    -0.939127     3B1    -0.645690  

    Beta Virtual:                                                         

       3B2    -0.554831     8A1    -0.316375     4B1     0.186926  
       4B2     0.187462     9A1     0.214305    10A1     0.245396  
       1A2     0.318488    11A1     0.321873     5B1     0.360341  
       5B2     0.367743    12A1     0.608535     6B1     0.853269  
       6B2     0.856259    13A1     0.972569    14A1     1.719062  
       2A2     3.094164    15A1     3.094780     7B2     3.245956  
       7B1     3.246671    16A1     3.831917  

    Final Occupation by Irrep:
             A1    A2    B1    B2 
    DOCC [     7,    0,    3,    2 ]
    SOCC [     0,    0,    0,    1 ]
    NA   [     7,    0,    3,    3 ]
    NB   [     7,    0,    3,    2 ]

  @DF-UKS Final Energy:  -559.42067386847179

   => Energetics <=

    Nuclear Repulsion Energy =             61.8051915332372133
    One-Electron Energy =                -885.8251715603361163
    Two-Electron Energy =                 295.6157860050694239
    DFT Exchange-Correlation Energy =     -31.0164798464422979
    Empirical Dispersion Energy =           0.0000000000000000
    VV10 Nonlocal Energy =                  0.0000000000000000
    Total Energy =                       -559.4206738684717948

  UHF NO Occupations:
  HONO-2 :    2 B2 1.9996538
  HONO-1 :    7 A1 1.9992730
  HONO-0 :    3 B2 1.0000000
  LUNO+0 :    8 A1 0.0007270
  LUNO+1 :    4 B2 0.0003462
  LUNO+2 :    9 A1 0.0000319
  LUNO+3 :    4 B1 0.0000143


Computation Completed


Properties will be evaluated at   0.000000,   0.000000,   0.000000 [a0]

Properties computed using the SCF density matrix


 Multipole Moments:

 ------------------------------------------------------------------------------------
     Multipole            Electronic (a.u.)      Nuclear  (a.u.)        Total (a.u.)
 ------------------------------------------------------------------------------------

 L = 1.  Multiply by 2.5417464519 to convert [e a0] to [Debye]
 Dipole X            :          0.0000000            0.0000000            0.0000000
 Dipole Y            :          0.0000000            0.0000000            0.0000000
 Dipole Z            :         -0.0489853           -0.3785798           -0.4275651
 Magnitude           :                                                    0.4275651

 ------------------------------------------------------------------------------------

*** tstop() called on Joses-MacBook-Pro-2.local at Thu Jul 17 14:32:01 2025
Module time:
	user time   =       4.75 seconds =       0.08 minutes
	system time =       3.85 seconds =       0.06 minutes
	total time  =          1 seconds =       0.02 minutes
Total time:
	user time   =      12.65 seconds =       0.21 minutes
	system time =      10.20 seconds =       0.17 minutes
	total time  =          2 seconds =       0.03 minutes

*** tstart() called on Joses-MacBook-Pro-2.local
*** at Thu Jul 17 14:32:01 2025


         ------------------------------------------------------------
                                   SCF GRAD                          
                          Rob Parrish, Justin Turney,                
                       Andy Simmonett, and Alex Sokolov              
         ------------------------------------------------------------

  ==> Geometry <==

    Molecular point group: c2v
    Full point group: C_inf_v

    Geometry (in Angstrom), charge = 1, multiplicity = 2:

       Center              X                  Y                   Z               Mass       
    ------------   -----------------  -----------------  -----------------  -----------------
         F            0.000000000000     0.000000000000     0.848825963357    18.998403162730
         CL           0.000000000000     0.000000000000    -0.461162910133    34.968852682000

  Nuclear repulsion =   61.805191533237213

  ==> Basis Set <==

  Basis Set: CC-PVDZ
    Blend: CC-PVDZ
    Number of shells: 14
    Number of basis functions: 32
    Number of Cartesian functions: 34
    Spherical Harmonics?: true
    Max angular momentum: 2

  ==> DFJKGrad: Density-Fitted SCF Gradients <==

    Gradient:                    1
    J tasked:                  Yes
    K tasked:                  Yes
    wK tasked:                  No
    OpenMP threads:              1
    Integrals threads:           1
    Memory [MiB]:              375
    Schwarz Cutoff:          1E-12
    Fitting Condition:       1E-10

   => Auxiliary Basis Set <=

  Basis Set: (CC-PVDZ AUX)
    Blend: CC-PVDZ-JKFIT
    Number of shells: 60
    Number of basis functions: 182
    Number of Cartesian functions: 211
    Spherical Harmonics?: true
    Max angular momentum: 3

  ==> DFT Potential <==

   => LibXC <=

    Version 6.2.2
    S. Lehtola, C. Steigemann, M. J.T. Oliveira, and M. A.L. Marques.,  SoftwareX 7, 1–5 (2018) (10.1016/j.softx.2017.11.002)

   => Composite Functional: B3LYP <= 

    B3LYP Hyb-GGA Exchange-Correlation Functional

    P. J. Stephens, F. J. Devlin, C. F. Chabalowski, and M. J. Frisch.,  J. Phys. Chem. 98, 11623 (1994) (10.1021/j100096a001)

    Deriv               =              1
    GGA                 =           TRUE
    Meta                =          FALSE

    Exchange Hybrid     =           TRUE
    MP2 Hybrid          =          FALSE

   => Exchange Functionals <=

    0.0800   Slater exchange
    0.7200         Becke 88

   => Exact (HF) Exchange <=

    0.2000               HF 

   => Correlation Functionals <=

    0.1900   Vosko, Wilk & Nusair (VWN5_RPA)
    0.8100   Lee, Yang & Parr

   => LibXC Density Thresholds  <==

    XC_HYB_GGA_XC_B3LYP:  1.00E-15 

   => Molecular Quadrature <=

    Radial Scheme          =       TREUTLER
    Pruning Scheme         =           NONE
    Nuclear Scheme         =       TREUTLER

    Blocking Scheme        =         OCTREE
    BS radius alpha        =              1
    Pruning alpha          =              1
    Radial Points          =             75
    Spherical Points       =            302
    Total Points           =          41735
    Total Blocks           =            374
    Max Points             =            253
    Max Functions          =             32
    Weights Tolerance      =       1.00E-15


  -Total Gradient:
     Atom            X                  Y                   Z
    ------   -----------------  -----------------  -----------------
       1        0.000000000000     0.000000000000    -0.444763164030
       2        0.000000000000     0.000000000000     0.444730966775


*** tstop() called on Joses-MacBook-Pro-2.local at Thu Jul 17 14:32:01 2025
Module time:
	user time   =       0.93 seconds =       0.02 minutes
	system time =       1.40 seconds =       0.02 minutes
	total time  =          0 seconds =       0.00 minutes
Total time:
	user time   =      13.59 seconds =       0.23 minutes
	system time =      11.60 seconds =       0.19 minutes
	total time  =          2 seconds =       0.03 minutes

    			-----------------------------------------

    			 OPTKING 3.0: for geometry optimizations 

    			     By R.A. King, Bethel University     

    			        with contributions from          

    			    A.V. Copan, J. Cayton, A. Heide      

    			-----------------------------------------

    
	                            ===> Fragment 1 <== 

	 Z (Atomic Numbers)          Masses                          Geom                  
	       9.000000            18.998403          0.00000000  0.00000000  1.60404860   
	      17.000000            34.968853          0.00000000  0.00000000 -0.87147160   

	 - Coordinate -           - BOHR/RAD -       - ANG/DEG -
	 R(1,2)           =         2.475520           1.309989


	        --- Internal Coordinate Step in ANG or DEG, aJ/ANG or AJ/DEG ---
	-------------------------------------------------------------------------------
	           Coordinate      Previous         Force          Change          New 
	           ----------      --------        ------          ------        ------
	               R(1,2)       1.30999        3.66415        0.10159       1.41158
	-------------------------------------------------------------------------------

	                                 ==> Convergence Check <==                                  
    
	Measures of convergence in internal coordinates in au.
    
	Criteria marked as inactive (o), active & met (*), and active & unmet ( ).

	----------------------------------------------------------------------------------------------
	   Step    Total Energy     Delta E     Max Force     RMS Force      Max Disp      RMS Disp   
	----------------------------------------------------------------------------------------------
	  Convergence Criteria     1.00e-06 *    3.00e-04 *             o    1.20e-03 *             o
	----------------------------------------------------------------------------------------------
	     2    -559.42067387   -1.36e-01      4.45e-01      4.45e-01 o    1.92e-01      1.92e-01 o  ~
	----------------------------------------------------------------------------------------------

Next Geometry in Ang 
	Fragment 1 (Ang)

	    F   0.0000000000   0.0000000000   0.8996208110
	   Cl   0.0000000000   0.0000000000  -0.5119577578


    Structure for next step:
    Molecular point group: c2v
    Full point group: C_inf_v

    Geometry (in Angstrom), charge = 1, multiplicity = 2:

    F            0.000000000000     0.000000000000     0.914652454503
    CL           0.000000000000     0.000000000000    -0.496926114290


Scratch directory: /tmp/
gradient() will perform analytic gradient computation.
   => Libint2 <=

    Primary   basis highest AM E, G, H:  6, 6, 3
    Auxiliary basis highest AM E, G, H:  7, 7, 4
    Onebody   basis highest AM E, G, H:  -, -, -
    Solid Harmonics ordering:            Gaussian

*** tstart() called on Joses-MacBook-Pro-2.local
*** at Thu Jul 17 14:32:01 2025

   => Loading Basis Set <=

    Name: CC-PVDZ
    Role: ORBITAL
    Keyword: BASIS
    atoms 1 entry F          line   228 file /Users/joseantoniorodriguesromero/anaconda3/share/psi4/basis/cc-pvdz.gbs 
    atoms 2 entry CL         line   658 file /Users/joseantoniorodriguesromero/anaconda3/share/psi4/basis/cc-pvdz.gbs 


         ---------------------------------------------------------
                                   SCF
               by Justin Turney, Rob Parrish, Andy Simmonett
                          and Daniel G. A. Smith
                              UKS Reference
                        1 Threads,    500 MiB Core
         ---------------------------------------------------------

  ==> Geometry <==

    Molecular point group: c2v
    Full point group: C_inf_v

    Geometry (in Angstrom), charge = 1, multiplicity = 2:

       Center              X                  Y                   Z               Mass       
    ------------   -----------------  -----------------  -----------------  -----------------
         F            0.000000000000     0.000000000000     0.914652454503    18.998403162730
         CL           0.000000000000     0.000000000000    -0.496926114290    34.968852682000

  Running in c2v symmetry.

  Rotational constants: A = ************  B =      0.68726  C =      0.68726 [cm^-1]
  Rotational constants: A = ************  B =  20603.40215  C =  20603.40215 [MHz]
  Nuclear repulsion =   57.357142579547705

  Charge       = 1
  Multiplicity = 2
  Electrons    = 25
  Nalpha       = 13
  Nbeta        = 12

  ==> Algorithm <==

  SCF Algorithm Type is DF.
  DIIS enabled.
  MOM disabled.
  Fractional occupation disabled.
  Guess Type is READ.
  Energy threshold   = 1.00e-08
  Density threshold  = 1.00e-08
  Integral threshold = 1.00e-12

  ==> Primary Basis <==

  Basis Set: CC-PVDZ
    Blend: CC-PVDZ
    Number of shells: 14
    Number of basis functions: 32
    Number of Cartesian functions: 34
    Spherical Harmonics?: true
    Max angular momentum: 2

  ==> DFT Potential <==

   => LibXC <=

    Version 6.2.2
    S. Lehtola, C. Steigemann, M. J.T. Oliveira, and M. A.L. Marques.,  SoftwareX 7, 1–5 (2018) (10.1016/j.softx.2017.11.002)

   => Composite Functional: B3LYP <= 

    B3LYP Hyb-GGA Exchange-Correlation Functional

    P. J. Stephens, F. J. Devlin, C. F. Chabalowski, and M. J. Frisch.,  J. Phys. Chem. 98, 11623 (1994) (10.1021/j100096a001)

    Deriv               =              1
    GGA                 =           TRUE
    Meta                =          FALSE

    Exchange Hybrid     =           TRUE
    MP2 Hybrid          =          FALSE

   => Exchange Functionals <=

    0.0800   Slater exchange
    0.7200         Becke 88

   => Exact (HF) Exchange <=

    0.2000               HF 

   => Correlation Functionals <=

    0.1900   Vosko, Wilk & Nusair (VWN5_RPA)
    0.8100   Lee, Yang & Parr

   => LibXC Density Thresholds  <==

    XC_HYB_GGA_XC_B3LYP:  1.00E-15 

   => Molecular Quadrature <=

    Radial Scheme          =       TREUTLER
    Pruning Scheme         =           NONE
    Nuclear Scheme         =       TREUTLER

    Blocking Scheme        =         OCTREE
    BS radius alpha        =              1
    Pruning alpha          =              1
    Radial Points          =             75
    Spherical Points       =            302
    Total Points           =          41750
    Total Blocks           =            374
    Max Points             =            256
    Max Functions          =             32
    Weights Tolerance      =       1.00E-15

   => Loading Basis Set <=

    Name: (CC-PVDZ AUX)
    Role: JKFIT
    Keyword: DF_BASIS_SCF
    atoms 1 entry F          line   271 file /Users/joseantoniorodriguesromero/anaconda3/share/psi4/basis/cc-pvdz-jkfit.gbs 
    atoms 2 entry CL         line   667 file /Users/joseantoniorodriguesromero/anaconda3/share/psi4/basis/cc-pvdz-jkfit.gbs 

   => Loading Basis Set <=

    Name: CC-PVDZ
    Role: ORBITAL
    Keyword: BASIS
    atoms 1 entry F          line   228 file /Users/joseantoniorodriguesromero/anaconda3/share/psi4/basis/cc-pvdz.gbs 
    atoms 2 entry CL         line   658 file /Users/joseantoniorodriguesromero/anaconda3/share/psi4/basis/cc-pvdz.gbs 

  Reading orbitals from file /tmp/doublet_FCl.default.74737.180.npy, no projection.

  ==> Integral Setup <==

  DFHelper Memory: AOs need 0.002 GiB; user supplied 0.329 GiB. 
  Using in-core AOs.

  ==> MemDFJK: Density-Fitted J/K Matrices <==

    J tasked:                   Yes
    K tasked:                   Yes
    wK tasked:                   No
    OpenMP threads:               1
    Memory [MiB]:               336
    Algorithm:                 Core
    Schwarz Cutoff:           1E-12
    Mask sparsity (%):       0.0000
    Fitting Condition:        1E-10

   => Auxiliary Basis Set <=

  Basis Set: (CC-PVDZ AUX)
    Blend: CC-PVDZ-JKFIT
    Number of shells: 60
    Number of basis functions: 182
    Number of Cartesian functions: 211
    Spherical Harmonics?: true
    Max angular momentum: 3

  Cached 100.0% of DFT collocation blocks in 0.038 [GiB].

  Minimum eigenvalue in the overlap matrix is 4.0035496665E-02.
  Reciprocal condition number of the overlap matrix is 1.4526275702E-02.
    Using symmetric orthogonalization.

  ==> Pre-Iterations <==

  SCF Guess: Orbitals guess was supplied from a previous computation.

   -------------------------------------------------------
    Irrep   Nso     Nmo     Nalpha   Nbeta   Ndocc  Nsocc
   -------------------------------------------------------
     A1        16      16       7       7       7       0
     A2         2       2       0       0       0       0
     B1         7       7       3       3       3       0
     B2         7       7       3       2       2       1
   -------------------------------------------------------
    Total      32      32      13      12      12       1
   -------------------------------------------------------

  ==> Iterations <==

                           Total Energy        Delta E     RMS |[F,P]|

   @DF-UKS iter   0:  -559.37985031803350   -5.59380e+02   2.27350e-02 
   @DF-UKS iter   1:  -559.47797764615916   -9.81273e-02   4.00375e-03 ADIIS/DIIS
   @DF-UKS iter   2:  -559.47546847982755    2.50917e-03   6.15577e-03 ADIIS/DIIS/DAMP=1%
   @DF-UKS iter   3:  -559.47900366533634   -3.53519e-03   1.33381e-03 ADIIS/DIIS/DAMP=1%
   @DF-UKS iter   4:  -559.48053310238470   -1.52944e-03   1.04770e-04 ADIIS/DIIS/DAMP=1%
   @DF-UKS iter   5:  -559.48058959283674   -5.64905e-05   1.56472e-05 DIIS/DAMP=1%
   @DF-UKS iter   6:  -559.48054972904947    3.98638e-05   4.45124e-06 DIIS/DAMP=1%
   @DF-UKS iter   7:  -559.48056181276684   -1.20837e-05   8.95512e-07 DIIS/DAMP=1%
   @DF-UKS iter   8:  -559.48056045905969    1.35371e-06   3.67652e-07 DIIS/DAMP=1%
   @DF-UKS iter   9:  -559.48056045595251    3.10717e-09   2.35179e-08 DIIS/DAMP=1%
   @DF-UKS iter  10:  -559.48056050670584   -5.07533e-08   3.91845e-09 DIIS/DAMP=1%
   @DF-UKS iter  11:  -559.48056050645403    2.51816e-10   5.86848e-10 DIIS/DAMP=1%
  Energy and wave function converged.


  ==> Post-Iterations <==

   Electrons on quadrature grid:
      Nalpha   =   13.0000055368 ; deviation = 5.537e-06
      Nbeta    =   12.0000044884 ; deviation = 4.488e-06
      Ntotal   =   25.0000100252 ; deviation = 1.003e-05 

   @Spin Contamination Metric:   2.291721814E-03
   @S^2 Expected:                7.500000000E-01
   @S^2 Observed:                7.522917218E-01
   @S   Expected:                5.000000000E-01
   @S   Observed:                5.000000000E-01

    Orbital Energies [Eh]
    ---------------------

    Alpha Occupied:                                                       

       1A1  -102.058494     2A1   -25.166448     3A1    -9.970109  
       4A1    -7.735538     1B2    -7.734168     1B1    -7.712938  
       5A1    -1.751704     6A1    -1.218897     7A1    -0.950994  
       2B2    -0.949212     2B1    -0.917824     3B2    -0.720240  
       3B1    -0.676201  

    Alpha Virtual:                                                        

       8A1    -0.383329     4B2     0.162776     9A1     0.172991  
       4B1     0.188420    10A1     0.228113     1A2     0.275388  
      11A1     0.275528     5B2     0.285220     5B1     0.321493  
      12A1     0.579991     6B2     0.849099     6B1     0.867830  
      13A1     0.905057    14A1     1.720638    15A1     3.099821  
       2A2     3.099987     7B2     3.182895     7B1     3.205273  
      16A1     3.665814  

    Beta Occupied:                                                        

       1A1  -102.052431     2A1   -25.156937     3A1    -9.964186  
       4A1    -7.732225     1B2    -7.714410     1B1    -7.709409  
       5A1    -1.732880     6A1    -1.180753     7A1    -0.931975  
       2B1    -0.908969     2B2    -0.887918     3B1    -0.662765  

    Beta Virtual:                                                         

       3B2    -0.572666     8A1    -0.366872     9A1     0.179228  
       4B1     0.193527     4B2     0.194450    10A1     0.241746  
       1A2     0.321878    11A1     0.325202     5B1     0.327807  
       5B2     0.334915    12A1     0.595586     6B1     0.871993  
       6B2     0.875626    13A1     0.913576    14A1     1.730013  
       2A2     3.125397    15A1     3.126009     7B2     3.209312  
       7B1     3.209431    16A1     3.678695  

    Final Occupation by Irrep:
             A1    A2    B1    B2 
    DOCC [     7,    0,    3,    2 ]
    SOCC [     0,    0,    0,    1 ]
    NA   [     7,    0,    3,    3 ]
    NB   [     7,    0,    3,    2 ]

  @DF-UKS Final Energy:  -559.48056050645403

   => Energetics <=

    Nuclear Repulsion Energy =             57.3571425795477055
    One-Electron Energy =                -877.4369746389245392
    Two-Electron Energy =                 291.5444818631776798
    DFT Exchange-Correlation Energy =     -30.9452103102548541
    Empirical Dispersion Energy =           0.0000000000000000
    VV10 Nonlocal Energy =                  0.0000000000000000
    Total Energy =                       -559.4805605064540259

  UHF NO Occupations:
  HONO-2 :    2 B2 1.9996061
  HONO-1 :    7 A1 1.9993066
  HONO-0 :    3 B2 1.0000000
  LUNO+0 :    8 A1 0.0006934
  LUNO+1 :    4 B2 0.0003939
  LUNO+2 :    9 A1 0.0000342
  LUNO+3 :    4 B1 0.0000145


Computation Completed


Properties will be evaluated at   0.000000,   0.000000,   0.000000 [a0]

Properties computed using the SCF density matrix


 Multipole Moments:

 ------------------------------------------------------------------------------------
     Multipole            Electronic (a.u.)      Nuclear  (a.u.)        Total (a.u.)
 ------------------------------------------------------------------------------------

 L = 1.  Multiply by 2.5417464519 to convert [e a0] to [Debye]
 Dipole X            :          0.0000000            0.0000000            0.0000000
 Dipole Y            :          0.0000000            0.0000000            0.0000000
 Dipole Z            :         -0.1732911           -0.4079387           -0.5812298
 Magnitude           :                                                    0.5812298

 ------------------------------------------------------------------------------------

*** tstop() called on Joses-MacBook-Pro-2.local at Thu Jul 17 14:32:02 2025
Module time:
	user time   =       4.06 seconds =       0.07 minutes
	system time =       3.83 seconds =       0.06 minutes
	total time  =          1 seconds =       0.02 minutes
Total time:
	user time   =      17.69 seconds =       0.29 minutes
	system time =      15.64 seconds =       0.26 minutes
	total time  =          3 seconds =       0.05 minutes

*** tstart() called on Joses-MacBook-Pro-2.local
*** at Thu Jul 17 14:32:02 2025


         ------------------------------------------------------------
                                   SCF GRAD                          
                          Rob Parrish, Justin Turney,                
                       Andy Simmonett, and Alex Sokolov              
         ------------------------------------------------------------

  ==> Geometry <==

    Molecular point group: c2v
    Full point group: C_inf_v

    Geometry (in Angstrom), charge = 1, multiplicity = 2:

       Center              X                  Y                   Z               Mass       
    ------------   -----------------  -----------------  -----------------  -----------------
         F            0.000000000000     0.000000000000     0.914652454503    18.998403162730
         CL           0.000000000000     0.000000000000    -0.496926114290    34.968852682000

  Nuclear repulsion =   57.357142579547705

  ==> Basis Set <==

  Basis Set: CC-PVDZ
    Blend: CC-PVDZ
    Number of shells: 14
    Number of basis functions: 32
    Number of Cartesian functions: 34
    Spherical Harmonics?: true
    Max angular momentum: 2

  ==> DFJKGrad: Density-Fitted SCF Gradients <==

    Gradient:                    1
    J tasked:                  Yes
    K tasked:                  Yes
    wK tasked:                  No
    OpenMP threads:              1
    Integrals threads:           1
    Memory [MiB]:              375
    Schwarz Cutoff:          1E-12
    Fitting Condition:       1E-10

   => Auxiliary Basis Set <=

  Basis Set: (CC-PVDZ AUX)
    Blend: CC-PVDZ-JKFIT
    Number of shells: 60
    Number of basis functions: 182
    Number of Cartesian functions: 211
    Spherical Harmonics?: true
    Max angular momentum: 3

  ==> DFT Potential <==

   => LibXC <=

    Version 6.2.2
    S. Lehtola, C. Steigemann, M. J.T. Oliveira, and M. A.L. Marques.,  SoftwareX 7, 1–5 (2018) (10.1016/j.softx.2017.11.002)

   => Composite Functional: B3LYP <= 

    B3LYP Hyb-GGA Exchange-Correlation Functional

    P. J. Stephens, F. J. Devlin, C. F. Chabalowski, and M. J. Frisch.,  J. Phys. Chem. 98, 11623 (1994) (10.1021/j100096a001)

    Deriv               =              1
    GGA                 =           TRUE
    Meta                =          FALSE

    Exchange Hybrid     =           TRUE
    MP2 Hybrid          =          FALSE

   => Exchange Functionals <=

    0.0800   Slater exchange
    0.7200         Becke 88

   => Exact (HF) Exchange <=

    0.2000               HF 

   => Correlation Functionals <=

    0.1900   Vosko, Wilk & Nusair (VWN5_RPA)
    0.8100   Lee, Yang & Parr

   => LibXC Density Thresholds  <==

    XC_HYB_GGA_XC_B3LYP:  1.00E-15 

   => Molecular Quadrature <=

    Radial Scheme          =       TREUTLER
    Pruning Scheme         =           NONE
    Nuclear Scheme         =       TREUTLER

    Blocking Scheme        =         OCTREE
    BS radius alpha        =              1
    Pruning alpha          =              1
    Radial Points          =             75
    Spherical Points       =            302
    Total Points           =          41750
    Total Blocks           =            374
    Max Points             =            256
    Max Functions          =             32
    Weights Tolerance      =       1.00E-15


  -Total Gradient:
     Atom            X                  Y                   Z
    ------   -----------------  -----------------  -----------------
       1       -0.000000000000     0.000000000000    -0.201153070240
       2       -0.000000000000     0.000000000000     0.201113465523


*** tstop() called on Joses-MacBook-Pro-2.local at Thu Jul 17 14:32:02 2025
Module time:
	user time   =       1.01 seconds =       0.02 minutes
	system time =       1.34 seconds =       0.02 minutes
	total time  =          0 seconds =       0.00 minutes
Total time:
	user time   =      18.70 seconds =       0.31 minutes
	system time =      16.98 seconds =       0.28 minutes
	total time  =          3 seconds =       0.05 minutes

    			-----------------------------------------

    			 OPTKING 3.0: for geometry optimizations 

    			     By R.A. King, Bethel University     

    			        with contributions from          

    			    A.V. Copan, J. Cayton, A. Heide      

    			-----------------------------------------

    
	                            ===> Fragment 1 <== 

	 Z (Atomic Numbers)          Masses                          Geom                  
	       9.000000            18.998403          0.00000000  0.00000000  1.72844264   
	      17.000000            34.968853          0.00000000  0.00000000 -0.93905426   

	 - Coordinate -           - BOHR/RAD -       - ANG/DEG -
	 R(1,2)           =         2.667497           1.411579


	        --- Internal Coordinate Step in ANG or DEG, aJ/ANG or AJ/DEG ---
	-------------------------------------------------------------------------------
	           Coordinate      Previous         Force          Change          New 
	           ----------      --------        ------          ------        ------
	               R(1,2)       1.41158        1.65708        0.05940       1.47098
	-------------------------------------------------------------------------------

	                                 ==> Convergence Check <==                                  
    
	Measures of convergence in internal coordinates in au.
    
	Criteria marked as inactive (o), active & met (*), and active & unmet ( ).

	----------------------------------------------------------------------------------------------
	   Step    Total Energy     Delta E     Max Force     RMS Force      Max Disp      RMS Disp   
	----------------------------------------------------------------------------------------------
	  Convergence Criteria     1.00e-06 *    3.00e-04 *             o    1.20e-03 *             o
	----------------------------------------------------------------------------------------------
	     3    -559.48056051   -5.99e-02      2.01e-01      2.01e-01 o    1.12e-01      1.12e-01 o  ~
	----------------------------------------------------------------------------------------------

Next Geometry in Ang 
	Fragment 1 (Ang)

	    F   0.0000000000   0.0000000000   0.9443528797
	   Cl   0.0000000000   0.0000000000  -0.5266265395


    Structure for next step:
    Molecular point group: c2v
    Full point group: C_inf_v

    Geometry (in Angstrom), charge = 1, multiplicity = 2:

    F            0.000000000000     0.000000000000     0.953142082232
    CL           0.000000000000     0.000000000000    -0.517837336966


Scratch directory: /tmp/
gradient() will perform analytic gradient computation.
   => Libint2 <=

    Primary   basis highest AM E, G, H:  6, 6, 3
    Auxiliary basis highest AM E, G, H:  7, 7, 4
    Onebody   basis highest AM E, G, H:  -, -, -
    Solid Harmonics ordering:            Gaussian

*** tstart() called on Joses-MacBook-Pro-2.local
*** at Thu Jul 17 14:32:02 2025

   => Loading Basis Set <=

    Name: CC-PVDZ
    Role: ORBITAL
    Keyword: BASIS
    atoms 1 entry F          line   228 file /Users/joseantoniorodriguesromero/anaconda3/share/psi4/basis/cc-pvdz.gbs 
    atoms 2 entry CL         line   658 file /Users/joseantoniorodriguesromero/anaconda3/share/psi4/basis/cc-pvdz.gbs 


         ---------------------------------------------------------
                                   SCF
               by Justin Turney, Rob Parrish, Andy Simmonett
                          and Daniel G. A. Smith
                              UKS Reference
                        1 Threads,    500 MiB Core
         ---------------------------------------------------------

  ==> Geometry <==

    Molecular point group: c2v
    Full point group: C_inf_v

    Geometry (in Angstrom), charge = 1, multiplicity = 2:

       Center              X                  Y                   Z               Mass       
    ------------   -----------------  -----------------  -----------------  -----------------
         F            0.000000000000     0.000000000000     0.953142082232    18.998403162730
         CL           0.000000000000     0.000000000000    -0.517837336966    34.968852682000

  Running in c2v symmetry.

  Rotational constants: A = ************  B =      0.63287  C =      0.63287 [cm^-1]
  Rotational constants: A = ************  B =  18972.99354  C =  18972.99354 [MHz]
  Nuclear repulsion =   55.040955825656503

  Charge       = 1
  Multiplicity = 2
  Electrons    = 25
  Nalpha       = 13
  Nbeta        = 12

  ==> Algorithm <==

  SCF Algorithm Type is DF.
  DIIS enabled.
  MOM disabled.
  Fractional occupation disabled.
  Guess Type is READ.
  Energy threshold   = 1.00e-08
  Density threshold  = 1.00e-08
  Integral threshold = 1.00e-12

  ==> Primary Basis <==

  Basis Set: CC-PVDZ
    Blend: CC-PVDZ
    Number of shells: 14
    Number of basis functions: 32
    Number of Cartesian functions: 34
    Spherical Harmonics?: true
    Max angular momentum: 2

  ==> DFT Potential <==

   => LibXC <=

    Version 6.2.2
    S. Lehtola, C. Steigemann, M. J.T. Oliveira, and M. A.L. Marques.,  SoftwareX 7, 1–5 (2018) (10.1016/j.softx.2017.11.002)

   => Composite Functional: B3LYP <= 

    B3LYP Hyb-GGA Exchange-Correlation Functional

    P. J. Stephens, F. J. Devlin, C. F. Chabalowski, and M. J. Frisch.,  J. Phys. Chem. 98, 11623 (1994) (10.1021/j100096a001)

    Deriv               =              1
    GGA                 =           TRUE
    Meta                =          FALSE

    Exchange Hybrid     =           TRUE
    MP2 Hybrid          =          FALSE

   => Exchange Functionals <=

    0.0800   Slater exchange
    0.7200         Becke 88

   => Exact (HF) Exchange <=

    0.2000               HF 

   => Correlation Functionals <=

    0.1900   Vosko, Wilk & Nusair (VWN5_RPA)
    0.8100   Lee, Yang & Parr

   => LibXC Density Thresholds  <==

    XC_HYB_GGA_XC_B3LYP:  1.00E-15 

   => Molecular Quadrature <=

    Radial Scheme          =       TREUTLER
    Pruning Scheme         =           NONE
    Nuclear Scheme         =       TREUTLER

    Blocking Scheme        =         OCTREE
    BS radius alpha        =              1
    Pruning alpha          =              1
    Radial Points          =             75
    Spherical Points       =            302
    Total Points           =          41766
    Total Blocks           =            372
    Max Points             =            255
    Max Functions          =             32
    Weights Tolerance      =       1.00E-15

   => Loading Basis Set <=

    Name: (CC-PVDZ AUX)
    Role: JKFIT
    Keyword: DF_BASIS_SCF
    atoms 1 entry F          line   271 file /Users/joseantoniorodriguesromero/anaconda3/share/psi4/basis/cc-pvdz-jkfit.gbs 
    atoms 2 entry CL         line   667 file /Users/joseantoniorodriguesromero/anaconda3/share/psi4/basis/cc-pvdz-jkfit.gbs 

   => Loading Basis Set <=

    Name: CC-PVDZ
    Role: ORBITAL
    Keyword: BASIS
    atoms 1 entry F          line   228 file /Users/joseantoniorodriguesromero/anaconda3/share/psi4/basis/cc-pvdz.gbs 
    atoms 2 entry CL         line   658 file /Users/joseantoniorodriguesromero/anaconda3/share/psi4/basis/cc-pvdz.gbs 

  Reading orbitals from file /tmp/doublet_FCl.default.74737.180.npy, no projection.

  ==> Integral Setup <==

  DFHelper Memory: AOs need 0.002 GiB; user supplied 0.329 GiB. 
  Using in-core AOs.

  ==> MemDFJK: Density-Fitted J/K Matrices <==

    J tasked:                   Yes
    K tasked:                   Yes
    wK tasked:                   No
    OpenMP threads:               1
    Memory [MiB]:               336
    Algorithm:                 Core
    Schwarz Cutoff:           1E-12
    Mask sparsity (%):       0.0000
    Fitting Condition:        1E-10

   => Auxiliary Basis Set <=

  Basis Set: (CC-PVDZ AUX)
    Blend: CC-PVDZ-JKFIT
    Number of shells: 60
    Number of basis functions: 182
    Number of Cartesian functions: 211
    Spherical Harmonics?: true
    Max angular momentum: 3

  Cached 100.0% of DFT collocation blocks in 0.038 [GiB].

  Minimum eigenvalue in the overlap matrix is 4.3795188616E-02.
  Reciprocal condition number of the overlap matrix is 1.6216444978E-02.
    Using symmetric orthogonalization.

  ==> Pre-Iterations <==

  SCF Guess: Orbitals guess was supplied from a previous computation.

   -------------------------------------------------------
    Irrep   Nso     Nmo     Nalpha   Nbeta   Ndocc  Nsocc
   -------------------------------------------------------
     A1        16      16       7       7       7       0
     A2         2       2       0       0       0       0
     B1         7       7       3       3       3       0
     B2         7       7       3       2       2       1
   -------------------------------------------------------
    Total      32      32      13      12      12       1
   -------------------------------------------------------

  ==> Iterations <==

                           Total Energy        Delta E     RMS |[F,P]|

   @DF-UKS iter   0:  -559.44296868528090   -5.59443e+02   1.13652e-02 
   @DF-UKS iter   1:  -559.49703944335351   -5.40708e-02   2.07384e-03 ADIIS/DIIS
   @DF-UKS iter   2:  -559.49645444597309    5.84997e-04   3.00783e-03 ADIIS/DIIS/DAMP=1%
   @DF-UKS iter   3:  -559.49691529647475   -4.60851e-04   9.28213e-04 ADIIS/DIIS/DAMP=1%
   @DF-UKS iter   4:  -559.49769666728423   -7.81371e-04   6.24713e-05 DIIS/DAMP=1%
   @DF-UKS iter   5:  -559.49773088800896   -3.42207e-05   6.89251e-06 DIIS/DAMP=1%
   @DF-UKS iter   6:  -559.49770964854110    2.12395e-05   1.85229e-06 DIIS/DAMP=1%
   @DF-UKS iter   7:  -559.49771524342611   -5.59489e-06   4.37998e-07 DIIS/DAMP=1%
   @DF-UKS iter   8:  -559.49771452131756    7.22109e-07   2.37913e-07 DIIS/DAMP=1%
   @DF-UKS iter   9:  -559.49771452711059   -5.79303e-09   1.10423e-08 DIIS/DAMP=1%
   @DF-UKS iter  10:  -559.49771455418750   -2.70769e-08   3.47990e-09 DIIS/DAMP=1%
   @DF-UKS iter  11:  -559.49771455387497    3.12525e-10   6.54850e-10 DIIS/DAMP=1%
  Energy and wave function converged.


  ==> Post-Iterations <==

   Electrons on quadrature grid:
      Nalpha   =   13.0000045616 ; deviation = 4.562e-06
      Nbeta    =   12.0000037257 ; deviation = 3.726e-06
      Ntotal   =   25.0000082873 ; deviation = 8.287e-06 

   @Spin Contamination Metric:   2.299825568E-03
   @S^2 Expected:                7.500000000E-01
   @S^2 Observed:                7.522998256E-01
   @S   Expected:                5.000000000E-01
   @S   Observed:                5.000000000E-01

    Orbital Energies [Eh]
    ---------------------

    Alpha Occupied:                                                       

       1A1  -102.060822     2A1   -25.161845     3A1    -9.970577  
       4A1    -7.735914     1B2    -7.735058     1B1    -7.713848  
       5A1    -1.710486     6A1    -1.224979     7A1    -0.939210  
       2B2    -0.925615     2B1    -0.894259     3B2    -0.728145  
       3B1    -0.684465  

    Alpha Virtual:                                                        

       8A1    -0.413265     9A1     0.159323     4B2     0.166544  
       4B1     0.192208    10A1     0.226880     5B2     0.271232  
       1A2     0.276732    11A1     0.276821     5B1     0.307101  
      12A1     0.562186     6B2     0.855342     6B1     0.874193  
      13A1     0.895587    14A1     1.720497    15A1     3.115207  
       2A2     3.115420     7B2     3.168411     7B1     3.190412  
      16A1     3.580633  

    Beta Occupied:                                                        

       1A1  -102.054752     2A1   -25.152388     3A1    -9.964648  
       4A1    -7.732571     1B2    -7.715298     1B1    -7.710316  
       5A1    -1.690976     6A1    -1.185934     7A1    -0.921825  
       2B1    -0.885318     2B2    -0.862940     3B1    -0.671118  

    Beta Virtual:                                                         

       3B2    -0.581534     8A1    -0.397033     9A1     0.165592  
       4B1     0.197370     4B2     0.198524    10A1     0.240464  
       5B1     0.313394     5B2     0.320342     1A2     0.323272  
      11A1     0.326574    12A1     0.579368     6B1     0.878444  
       6B2     0.882396    13A1     0.902517    14A1     1.730038  
       2A2     3.140944    15A1     3.141562     7B1     3.194499  
       7B2     3.194713    16A1     3.593352  

    Final Occupation by Irrep:
             A1    A2    B1    B2 
    DOCC [     7,    0,    3,    2 ]
    SOCC [     0,    0,    0,    1 ]
    NA   [     7,    0,    3,    3 ]
    NB   [     7,    0,    3,    2 ]

  @DF-UKS Final Energy:  -559.49771455387497

   => Energetics <=

    Nuclear Repulsion Energy =             55.0409558256565035
    One-Electron Energy =                -873.0262614493561841
    Two-Electron Energy =                 289.3982300055891415
    DFT Exchange-Correlation Energy =     -30.9106389357643394
    Empirical Dispersion Energy =           0.0000000000000000
    VV10 Nonlocal Energy =                  0.0000000000000000
    Total Energy =                       -559.4977145538748573

  UHF NO Occupations:
  HONO-2 :    2 B2 1.9995852
  HONO-1 :    7 A1 1.9993257
  HONO-0 :    3 B2 1.0000000
  LUNO+0 :    8 A1 0.0006743
  LUNO+1 :    4 B2 0.0004148
  LUNO+2 :    9 A1 0.0000352
  LUNO+3 :    4 B1 0.0000146


Computation Completed


Properties will be evaluated at   0.000000,   0.000000,   0.000000 [a0]

Properties computed using the SCF density matrix


 Multipole Moments:

 ------------------------------------------------------------------------------------
     Multipole            Electronic (a.u.)      Nuclear  (a.u.)        Total (a.u.)
 ------------------------------------------------------------------------------------

 L = 1.  Multiply by 2.5417464519 to convert [e a0] to [Debye]
 Dipole X            :          0.0000000            0.0000000            0.0000000
 Dipole Y            :          0.0000000            0.0000000            0.0000000
 Dipole Z            :         -0.2285018           -0.4251052           -0.6536070
 Magnitude           :                                                    0.6536070

 ------------------------------------------------------------------------------------

*** tstop() called on Joses-MacBook-Pro-2.local at Thu Jul 17 14:32:03 2025
Module time:
	user time   =       3.14 seconds =       0.05 minutes
	system time =       5.09 seconds =       0.08 minutes
	total time  =          1 seconds =       0.02 minutes
Total time:
	user time   =      21.88 seconds =       0.36 minutes
	system time =      22.34 seconds =       0.37 minutes
	total time  =          4 seconds =       0.07 minutes

*** tstart() called on Joses-MacBook-Pro-2.local
*** at Thu Jul 17 14:32:03 2025


         ------------------------------------------------------------
                                   SCF GRAD                          
                          Rob Parrish, Justin Turney,                
                       Andy Simmonett, and Alex Sokolov              
         ------------------------------------------------------------

  ==> Geometry <==

    Molecular point group: c2v
    Full point group: C_inf_v

    Geometry (in Angstrom), charge = 1, multiplicity = 2:

       Center              X                  Y                   Z               Mass       
    ------------   -----------------  -----------------  -----------------  -----------------
         F            0.000000000000     0.000000000000     0.953142082232    18.998403162730
         CL           0.000000000000     0.000000000000    -0.517837336966    34.968852682000

  Nuclear repulsion =   55.040955825656503

  ==> Basis Set <==

  Basis Set: CC-PVDZ
    Blend: CC-PVDZ
    Number of shells: 14
    Number of basis functions: 32
    Number of Cartesian functions: 34
    Spherical Harmonics?: true
    Max angular momentum: 2

  ==> DFJKGrad: Density-Fitted SCF Gradients <==

    Gradient:                    1
    J tasked:                  Yes
    K tasked:                  Yes
    wK tasked:                  No
    OpenMP threads:              1
    Integrals threads:           1
    Memory [MiB]:              375
    Schwarz Cutoff:          1E-12
    Fitting Condition:       1E-10

   => Auxiliary Basis Set <=

  Basis Set: (CC-PVDZ AUX)
    Blend: CC-PVDZ-JKFIT
    Number of shells: 60
    Number of basis functions: 182
    Number of Cartesian functions: 211
    Spherical Harmonics?: true
    Max angular momentum: 3

  ==> DFT Potential <==

   => LibXC <=

    Version 6.2.2
    S. Lehtola, C. Steigemann, M. J.T. Oliveira, and M. A.L. Marques.,  SoftwareX 7, 1–5 (2018) (10.1016/j.softx.2017.11.002)

   => Composite Functional: B3LYP <= 

    B3LYP Hyb-GGA Exchange-Correlation Functional

    P. J. Stephens, F. J. Devlin, C. F. Chabalowski, and M. J. Frisch.,  J. Phys. Chem. 98, 11623 (1994) (10.1021/j100096a001)

    Deriv               =              1
    GGA                 =           TRUE
    Meta                =          FALSE

    Exchange Hybrid     =           TRUE
    MP2 Hybrid          =          FALSE

   => Exchange Functionals <=

    0.0800   Slater exchange
    0.7200         Becke 88

   => Exact (HF) Exchange <=

    0.2000               HF 

   => Correlation Functionals <=

    0.1900   Vosko, Wilk & Nusair (VWN5_RPA)
    0.8100   Lee, Yang & Parr

   => LibXC Density Thresholds  <==

    XC_HYB_GGA_XC_B3LYP:  1.00E-15 

   => Molecular Quadrature <=

    Radial Scheme          =       TREUTLER
    Pruning Scheme         =           NONE
    Nuclear Scheme         =       TREUTLER

    Blocking Scheme        =         OCTREE
    BS radius alpha        =              1
    Pruning alpha          =              1
    Radial Points          =             75
    Spherical Points       =            302
    Total Points           =          41766
    Total Blocks           =            372
    Max Points             =            255
    Max Functions          =             32
    Weights Tolerance      =       1.00E-15


  -Total Gradient:
     Atom            X                  Y                   Z
    ------   -----------------  -----------------  -----------------
       1        0.000000000000    -0.000000000000    -0.109537116394
       2        0.000000000000    -0.000000000000     0.109484446074


*** tstop() called on Joses-MacBook-Pro-2.local at Thu Jul 17 14:32:03 2025
Module time:
	user time   =       0.93 seconds =       0.02 minutes
	system time =       1.81 seconds =       0.03 minutes
	total time  =          0 seconds =       0.00 minutes
Total time:
	user time   =      22.81 seconds =       0.38 minutes
	system time =      24.15 seconds =       0.40 minutes
	total time  =          4 seconds =       0.07 minutes

    			-----------------------------------------

    			 OPTKING 3.0: for geometry optimizations 

    			     By R.A. King, Bethel University     

    			        with contributions from          

    			    A.V. Copan, J. Cayton, A. Heide      

    			-----------------------------------------

    
	                            ===> Fragment 1 <== 

	 Z (Atomic Numbers)          Masses                          Geom                  
	       9.000000            18.998403          0.00000000  0.00000000  1.80117749   
	      17.000000            34.968853          0.00000000  0.00000000 -0.97857074   

	 - Coordinate -           - BOHR/RAD -       - ANG/DEG -
	 R(1,2)           =         2.779748           1.470979


	        --- Internal Coordinate Step in ANG or DEG, aJ/ANG or AJ/DEG ---
	-------------------------------------------------------------------------------
	           Coordinate      Previous         Force          Change          New 
	           ----------      --------        ------          ------        ------
	               R(1,2)       1.47098        0.90223        0.05208       1.52306
	-------------------------------------------------------------------------------

	                                 ==> Convergence Check <==                                  
    
	Measures of convergence in internal coordinates in au.
    
	Criteria marked as inactive (o), active & met (*), and active & unmet ( ).

	----------------------------------------------------------------------------------------------
	   Step    Total Energy     Delta E     Max Force     RMS Force      Max Disp      RMS Disp   
	----------------------------------------------------------------------------------------------
	  Convergence Criteria     1.00e-06 *    3.00e-04 *             o    1.20e-03 *             o
	----------------------------------------------------------------------------------------------
	     4    -559.49771455   -1.72e-02      1.10e-01      1.10e-01 o    9.84e-02      9.84e-02 o  ~
	----------------------------------------------------------------------------------------------

Next Geometry in Ang 
	Fragment 1 (Ang)

	    F   0.0000000000   0.0000000000   0.9791825657
	   Cl   0.0000000000   0.0000000000  -0.5438778205


    Structure for next step:
    Molecular point group: c2v
    Full point group: C_inf_v

    Geometry (in Angstrom), charge = 1, multiplicity = 2:

    F            0.000000000000     0.000000000000     0.986888687160
    CL           0.000000000000     0.000000000000    -0.536171699023


Scratch directory: /tmp/
gradient() will perform analytic gradient computation.
   => Libint2 <=

    Primary   basis highest AM E, G, H:  6, 6, 3
    Auxiliary basis highest AM E, G, H:  7, 7, 4
    Onebody   basis highest AM E, G, H:  -, -, -
    Solid Harmonics ordering:            Gaussian

*** tstart() called on Joses-MacBook-Pro-2.local
*** at Thu Jul 17 14:32:03 2025

   => Loading Basis Set <=

    Name: CC-PVDZ
    Role: ORBITAL
    Keyword: BASIS
    atoms 1 entry F          line   228 file /Users/joseantoniorodriguesromero/anaconda3/share/psi4/basis/cc-pvdz.gbs 
    atoms 2 entry CL         line   658 file /Users/joseantoniorodriguesromero/anaconda3/share/psi4/basis/cc-pvdz.gbs 


         ---------------------------------------------------------
                                   SCF
               by Justin Turney, Rob Parrish, Andy Simmonett
                          and Daniel G. A. Smith
                              UKS Reference
                        1 Threads,    500 MiB Core
         ---------------------------------------------------------

  ==> Geometry <==

    Molecular point group: c2v
    Full point group: C_inf_v

    Geometry (in Angstrom), charge = 1, multiplicity = 2:

       Center              X                  Y                   Z               Mass       
    ------------   -----------------  -----------------  -----------------  -----------------
         F            0.000000000000     0.000000000000     0.986888687160    18.998403162730
         CL           0.000000000000     0.000000000000    -0.536171699023    34.968852682000

  Running in c2v symmetry.

  Rotational constants: A = ************  B =      0.59033  C =      0.59033 [cm^-1]
  Rotational constants: A = ************  B =  17697.61759  C =  17697.61759 [MHz]
  Nuclear repulsion =   53.158833337806733

  Charge       = 1
  Multiplicity = 2
  Electrons    = 25
  Nalpha       = 13
  Nbeta        = 12

  ==> Algorithm <==

  SCF Algorithm Type is DF.
  DIIS enabled.
  MOM disabled.
  Fractional occupation disabled.
  Guess Type is READ.
  Energy threshold   = 1.00e-08
  Density threshold  = 1.00e-08
  Integral threshold = 1.00e-12

  ==> Primary Basis <==

  Basis Set: CC-PVDZ
    Blend: CC-PVDZ
    Number of shells: 14
    Number of basis functions: 32
    Number of Cartesian functions: 34
    Spherical Harmonics?: true
    Max angular momentum: 2

  ==> DFT Potential <==

   => LibXC <=

    Version 6.2.2
    S. Lehtola, C. Steigemann, M. J.T. Oliveira, and M. A.L. Marques.,  SoftwareX 7, 1–5 (2018) (10.1016/j.softx.2017.11.002)

   => Composite Functional: B3LYP <= 

    B3LYP Hyb-GGA Exchange-Correlation Functional

[...]
    
	Criteria marked as inactive (o), active & met (*), and active & unmet ( ).

	----------------------------------------------------------------------------------------------
	   Step    Total Energy     Delta E     Max Force     RMS Force      Max Disp      RMS Disp   
	----------------------------------------------------------------------------------------------
	  Convergence Criteria     1.00e-06 *    3.00e-04 *             o    1.20e-03 *             o
	----------------------------------------------------------------------------------------------
	     9    -559.50813375   -3.32e-05      1.46e-03      1.46e-03 o    3.30e-03      3.30e-03 o  ~
	----------------------------------------------------------------------------------------------

Next Geometry in Ang 
	Fragment 1 (Ang)

	    F   0.0000000000   0.0000000000   1.0255693560
	   Cl   0.0000000000   0.0000000000  -0.5575853676


    Structure for next step:
    Molecular point group: c2v
    Full point group: C_inf_v

    Geometry (in Angstrom), charge = 1, multiplicity = 2:

    F            0.000000000000     0.000000000000     1.025827669709
    CL           0.000000000000     0.000000000000    -0.557327053931


Scratch directory: /tmp/
gradient() will perform analytic gradient computation.
   => Libint2 <=

    Primary   basis highest AM E, G, H:  6, 6, 3
    Auxiliary basis highest AM E, G, H:  7, 7, 4
    Onebody   basis highest AM E, G, H:  -, -, -
    Solid Harmonics ordering:            Gaussian

*** tstart() called on Joses-MacBook-Pro-2.local
*** at Thu Jul 17 14:32:08 2025

   => Loading Basis Set <=

    Name: CC-PVDZ
    Role: ORBITAL
    Keyword: BASIS
    atoms 1 entry F          line   228 file /Users/joseantoniorodriguesromero/anaconda3/share/psi4/basis/cc-pvdz.gbs 
    atoms 2 entry CL         line   658 file /Users/joseantoniorodriguesromero/anaconda3/share/psi4/basis/cc-pvdz.gbs 


         ---------------------------------------------------------
                                   SCF
               by Justin Turney, Rob Parrish, Andy Simmonett
                          and Daniel G. A. Smith
                              UKS Reference
                        1 Threads,    500 MiB Core
         ---------------------------------------------------------

  ==> Geometry <==

    Molecular point group: c2v
    Full point group: C_inf_v

    Geometry (in Angstrom), charge = 1, multiplicity = 2:

       Center              X                  Y                   Z               Mass       
    ------------   -----------------  -----------------  -----------------  -----------------
         F            0.000000000000     0.000000000000     1.025827669709    18.998403162730
         CL           0.000000000000     0.000000000000    -0.557327053931    34.968852682000

  Running in c2v symmetry.

  Rotational constants: A = ************  B =      0.54636  C =      0.54636 [cm^-1]
  Rotational constants: A = ************  B =  16379.56371  C =  16379.56371 [MHz]
  Nuclear repulsion =   51.140998427702755

  Charge       = 1
  Multiplicity = 2
  Electrons    = 25
  Nalpha       = 13
  Nbeta        = 12

  ==> Algorithm <==

  SCF Algorithm Type is DF.
  DIIS enabled.
  MOM disabled.
  Fractional occupation disabled.
  Guess Type is READ.
  Energy threshold   = 1.00e-08
  Density threshold  = 1.00e-08
  Integral threshold = 1.00e-12

  ==> Primary Basis <==

  Basis Set: CC-PVDZ
    Blend: CC-PVDZ
    Number of shells: 14
    Number of basis functions: 32
    Number of Cartesian functions: 34
    Spherical Harmonics?: true
    Max angular momentum: 2

  ==> DFT Potential <==

   => LibXC <=

    Version 6.2.2
    S. Lehtola, C. Steigemann, M. J.T. Oliveira, and M. A.L. Marques.,  SoftwareX 7, 1–5 (2018) (10.1016/j.softx.2017.11.002)

   => Composite Functional: B3LYP <= 

    B3LYP Hyb-GGA Exchange-Correlation Functional

    P. J. Stephens, F. J. Devlin, C. F. Chabalowski, and M. J. Frisch.,  J. Phys. Chem. 98, 11623 (1994) (10.1021/j100096a001)

    Deriv               =              1
    GGA                 =           TRUE
    Meta                =          FALSE

    Exchange Hybrid     =           TRUE
    MP2 Hybrid          =          FALSE

   => Exchange Functionals <=

    0.0800   Slater exchange
    0.7200         Becke 88

   => Exact (HF) Exchange <=

    0.2000               HF 

   => Correlation Functionals <=

    0.1900   Vosko, Wilk & Nusair (VWN5_RPA)
    0.8100   Lee, Yang & Parr

   => LibXC Density Thresholds  <==

    XC_HYB_GGA_XC_B3LYP:  1.00E-15 

   => Molecular Quadrature <=

    Radial Scheme          =       TREUTLER
    Pruning Scheme         =           NONE
    Nuclear Scheme         =       TREUTLER

    Blocking Scheme        =         OCTREE
    BS radius alpha        =              1
    Pruning alpha          =              1
    Radial Points          =             75
    Spherical Points       =            302
    Total Points           =          41800
    Total Blocks           =            369
    Max Points             =            255
    Max Functions          =             32
    Weights Tolerance      =       1.00E-15

   => Loading Basis Set <=

    Name: (CC-PVDZ AUX)
    Role: JKFIT
    Keyword: DF_BASIS_SCF
    atoms 1 entry F          line   271 file /Users/joseantoniorodriguesromero/anaconda3/share/psi4/basis/cc-pvdz-jkfit.gbs 
    atoms 2 entry CL         line   667 file /Users/joseantoniorodriguesromero/anaconda3/share/psi4/basis/cc-pvdz-jkfit.gbs 

   => Loading Basis Set <=

    Name: CC-PVDZ
    Role: ORBITAL
    Keyword: BASIS
    atoms 1 entry F          line   228 file /Users/joseantoniorodriguesromero/anaconda3/share/psi4/basis/cc-pvdz.gbs 
    atoms 2 entry CL         line   658 file /Users/joseantoniorodriguesromero/anaconda3/share/psi4/basis/cc-pvdz.gbs 

  Reading orbitals from file /tmp/doublet_FCl.default.74737.180.npy, no projection.

  ==> Integral Setup <==

  DFHelper Memory: AOs need 0.002 GiB; user supplied 0.329 GiB. 
  Using in-core AOs.

  ==> MemDFJK: Density-Fitted J/K Matrices <==

    J tasked:                   Yes
    K tasked:                   Yes
    wK tasked:                   No
    OpenMP threads:               1
    Memory [MiB]:               336
    Algorithm:                 Core
    Schwarz Cutoff:           1E-12
    Mask sparsity (%):       0.0000
    Fitting Condition:        1E-10

   => Auxiliary Basis Set <=

  Basis Set: (CC-PVDZ AUX)
    Blend: CC-PVDZ-JKFIT
    Number of shells: 60
    Number of basis functions: 182
    Number of Cartesian functions: 211
    Spherical Harmonics?: true
    Max angular momentum: 3

  Cached 100.0% of DFT collocation blocks in 0.037 [GiB].

  Minimum eigenvalue in the overlap matrix is 5.1195901902E-02.
  Reciprocal condition number of the overlap matrix is 1.9738211873E-02.
    Using symmetric orthogonalization.

  ==> Pre-Iterations <==

  SCF Guess: Orbitals guess was supplied from a previous computation.

   -------------------------------------------------------
    Irrep   Nso     Nmo     Nalpha   Nbeta   Ndocc  Nsocc
   -------------------------------------------------------
     A1        16      16       7       7       7       0
     A2         2       2       0       0       0       0
     B1         7       7       3       3       3       0
     B2         7       7       3       2       2       1
   -------------------------------------------------------
    Total      32      32      13      12      12       1
   -------------------------------------------------------

  ==> Iterations <==

                           Total Energy        Delta E     RMS |[F,P]|

   @DF-UKS iter   0:  -559.50682273344341   -5.59507e+02   2.49053e-04 
   @DF-UKS iter   1:  -559.50813597223180   -1.31324e-03   4.78122e-05 DIIS
   @DF-UKS iter   2:  -559.50813597728791   -5.05611e-09   4.62505e-05 DIIS/DAMP=1%
   @DF-UKS iter   3:  -559.50812019135299    1.57859e-05   3.42119e-05 DIIS/DAMP=1%
   @DF-UKS iter   4:  -559.50813766546207   -1.74741e-05   1.54921e-06 DIIS/DAMP=1%
   @DF-UKS iter   5:  -559.50813671866081    9.46801e-07   2.01010e-07 DIIS/DAMP=1%
   @DF-UKS iter   6:  -559.50813623681779    4.81843e-07   9.85082e-08 DIIS/DAMP=1%
   @DF-UKS iter   7:  -559.50813632905795   -9.22402e-08   1.52515e-08 DIIS/DAMP=1%
   @DF-UKS iter   8:  -559.50813629842912    3.06288e-08   7.24596e-09 DIIS/DAMP=1%
   @DF-UKS iter   9:  -559.50813630887092   -1.04418e-08   8.31832e-10 DIIS/DAMP=1%
   @DF-UKS iter  10:  -559.50813630813991    7.31006e-10   9.47355e-10 DIIS/DAMP=1%
  Energy and wave function converged.


  ==> Post-Iterations <==

   Electrons on quadrature grid:
      Nalpha   =   12.9999989822 ; deviation = -1.018e-06
      Nbeta    =   11.9999991904 ; deviation = -8.096e-07
      Ntotal   =   24.9999981727 ; deviation = -1.827e-06 

   @Spin Contamination Metric:   2.295275687E-03
   @S^2 Expected:                7.500000000E-01
   @S^2 Observed:                7.522952757E-01
   @S   Expected:                5.000000000E-01
   @S   Observed:                5.000000000E-01

    Orbital Energies [Eh]
    ---------------------

    Alpha Occupied:                                                       

       1A1  -102.064984     2A1   -25.154333     3A1    -9.972013  
       4A1    -7.737206     1B2    -7.737106     1B1    -7.715901  
       5A1    -1.646684     6A1    -1.234948     7A1    -0.916428  
       2B2    -0.888644     2B1    -0.857464     3B2    -0.740126  
       3B1    -0.697101  

    Alpha Virtual:                                                        

       8A1    -0.465952     9A1     0.145276     4B2     0.173114  
       4B1     0.198750    10A1     0.225956     5B2     0.252571  
       1A2     0.278524    11A1     0.278637     5B1     0.287984  
      12A1     0.521641     6B2     0.860076     6B1     0.878856  
      13A1     0.897516    14A1     1.706621    15A1     3.139933  
       2A2     3.140249     7B2     3.153196     7B1     3.174362  
      16A1     3.442606  

    Beta Occupied:                                                        

       1A1  -102.058891     2A1   -25.145131     3A1    -9.966064  
       4A1    -7.733782     1B2    -7.717322     1B1    -7.712355  
       5A1    -1.626352     6A1    -1.194578     7A1    -0.901603  
       2B1    -0.848479     2B2    -0.824039     3B1    -0.683910  

    Beta Virtual:                                                         

       3B2    -0.595378     8A1    -0.450377     9A1     0.152292  
       4B1     0.204008     4B2     0.205589    10A1     0.239649  
       5B1     0.294356     5B2     0.301083     1A2     0.325238  
      11A1     0.328526    12A1     0.539871     6B1     0.883171  
       6B2     0.887564    13A1     0.902883    14A1     1.716416  
       2A2     3.165551    15A1     3.166195     7B1     3.178202  
       7B2     3.178964    16A1     3.454604  

    Final Occupation by Irrep:
             A1    A2    B1    B2 
    DOCC [     7,    0,    3,    2 ]
    SOCC [     0,    0,    0,    1 ]
    NA   [     7,    0,    3,    3 ]
    NB   [     7,    0,    3,    2 ]

  @DF-UKS Final Energy:  -559.50813630813991

   => Energetics <=

    Nuclear Repulsion Energy =             51.1409984277027547
    One-Electron Energy =                -865.5407025435572450
    Two-Electron Energy =                 285.7484653950895677
    DFT Exchange-Correlation Energy =     -30.8568975873748670
    Empirical Dispersion Energy =           0.0000000000000000
    VV10 Nonlocal Energy =                  0.0000000000000000
    Total Energy =                       -559.5081363081397967

  UHF NO Occupations:
  HONO-2 :    2 B2 1.9995627
  HONO-1 :    7 A1 1.9993581
  HONO-0 :    3 B2 1.0000000
  LUNO+0 :    8 A1 0.0006419
  LUNO+1 :    4 B2 0.0004373
  LUNO+2 :    9 A1 0.0000387
  LUNO+3 :    4 B1 0.0000151


Computation Completed


Properties will be evaluated at   0.000000,   0.000000,   0.000000 [a0]

Properties computed using the SCF density matrix


 Multipole Moments:

 ------------------------------------------------------------------------------------
     Multipole            Electronic (a.u.)      Nuclear  (a.u.)        Total (a.u.)
 ------------------------------------------------------------------------------------

 L = 1.  Multiply by 2.5417464519 to convert [e a0] to [Debye]
 Dipole X            :          0.0000000            0.0000000            0.0000000
 Dipole Y            :          0.0000000            0.0000000            0.0000000
 Dipole Z            :         -0.3029093           -0.4575233           -0.7604326
 Magnitude           :                                                    0.7604326

 ------------------------------------------------------------------------------------

*** tstop() called on Joses-MacBook-Pro-2.local at Thu Jul 17 14:32:09 2025
Module time:
	user time   =       3.40 seconds =       0.06 minutes
	system time =       3.67 seconds =       0.06 minutes
	total time  =          1 seconds =       0.02 minutes
Total time:
	user time   =      48.91 seconds =       0.82 minutes
	system time =      56.31 seconds =       0.94 minutes
	total time  =         10 seconds =       0.17 minutes

*** tstart() called on Joses-MacBook-Pro-2.local
*** at Thu Jul 17 14:32:09 2025


         ------------------------------------------------------------
                                   SCF GRAD                          
                          Rob Parrish, Justin Turney,                
                       Andy Simmonett, and Alex Sokolov              
         ------------------------------------------------------------

  ==> Geometry <==

    Molecular point group: c2v
    Full point group: C_inf_v

    Geometry (in Angstrom), charge = 1, multiplicity = 2:

       Center              X                  Y                   Z               Mass       
    ------------   -----------------  -----------------  -----------------  -----------------
         F            0.000000000000     0.000000000000     1.025827669709    18.998403162730
         CL           0.000000000000     0.000000000000    -0.557327053931    34.968852682000

  Nuclear repulsion =   51.140998427702755

  ==> Basis Set <==

  Basis Set: CC-PVDZ
    Blend: CC-PVDZ
    Number of shells: 14
    Number of basis functions: 32
    Number of Cartesian functions: 34
    Spherical Harmonics?: true
    Max angular momentum: 2

  ==> DFJKGrad: Density-Fitted SCF Gradients <==

    Gradient:                    1
    J tasked:                  Yes
    K tasked:                  Yes
    wK tasked:                  No
    OpenMP threads:              1
    Integrals threads:           1
    Memory [MiB]:              375
    Schwarz Cutoff:          1E-12
    Fitting Condition:       1E-10

   => Auxiliary Basis Set <=

  Basis Set: (CC-PVDZ AUX)
    Blend: CC-PVDZ-JKFIT
    Number of shells: 60
    Number of basis functions: 182
    Number of Cartesian functions: 211
    Spherical Harmonics?: true
    Max angular momentum: 3

  ==> DFT Potential <==

   => LibXC <=

    Version 6.2.2
    S. Lehtola, C. Steigemann, M. J.T. Oliveira, and M. A.L. Marques.,  SoftwareX 7, 1–5 (2018) (10.1016/j.softx.2017.11.002)

   => Composite Functional: B3LYP <= 

    B3LYP Hyb-GGA Exchange-Correlation Functional

    P. J. Stephens, F. J. Devlin, C. F. Chabalowski, and M. J. Frisch.,  J. Phys. Chem. 98, 11623 (1994) (10.1021/j100096a001)

    Deriv               =              1
    GGA                 =           TRUE
    Meta                =          FALSE

    Exchange Hybrid     =           TRUE
    MP2 Hybrid          =          FALSE

   => Exchange Functionals <=

    0.0800   Slater exchange
    0.7200         Becke 88

   => Exact (HF) Exchange <=

    0.2000               HF 

   => Correlation Functionals <=

    0.1900   Vosko, Wilk & Nusair (VWN5_RPA)
    0.8100   Lee, Yang & Parr

   => LibXC Density Thresholds  <==

    XC_HYB_GGA_XC_B3LYP:  1.00E-15 

   => Molecular Quadrature <=

    Radial Scheme          =       TREUTLER
    Pruning Scheme         =           NONE
    Nuclear Scheme         =       TREUTLER

    Blocking Scheme        =         OCTREE
    BS radius alpha        =              1
    Pruning alpha          =              1
    Radial Points          =             75
    Spherical Points       =            302
    Total Points           =          41800
    Total Blocks           =            369
    Max Points             =            255
    Max Functions          =             32
    Weights Tolerance      =       1.00E-15


  -Total Gradient:
     Atom            X                  Y                   Z
    ------   -----------------  -----------------  -----------------
       1        0.000000000000    -0.000000000000    -0.000265568389
       2        0.000000000000     0.000000000000     0.000201303600


*** tstop() called on Joses-MacBook-Pro-2.local at Thu Jul 17 14:32:09 2025
Module time:
	user time   =       0.58 seconds =       0.01 minutes
	system time =       1.57 seconds =       0.03 minutes
	total time  =          0 seconds =       0.00 minutes
Total time:
	user time   =      49.50 seconds =       0.82 minutes
	system time =      57.88 seconds =       0.96 minutes
	total time  =         10 seconds =       0.17 minutes

    			-----------------------------------------

    			 OPTKING 3.0: for geometry optimizations 

    			     By R.A. King, Bethel University     

    			        with contributions from          

    			    A.V. Copan, J. Cayton, A. Heide      

    			-----------------------------------------

    
	                            ===> Fragment 1 <== 

	 Z (Atomic Numbers)          Masses                          Geom                  
	       9.000000            18.998403          0.00000000  0.00000000  1.93853335   
	      17.000000            34.968853          0.00000000  0.00000000 -1.05319549   

	 - Coordinate -           - BOHR/RAD -       - ANG/DEG -
	 R(1,2)           =         2.991729           1.583155


	        --- Internal Coordinate Step in ANG or DEG, aJ/ANG or AJ/DEG ---
	-------------------------------------------------------------------------------
	           Coordinate      Previous         Force          Change          New 
	           ----------      --------        ------          ------        ------
	               R(1,2)       1.58315        0.00192        0.00030       1.58346
	-------------------------------------------------------------------------------

	                                 ==> Convergence Check <==                                  
    
	Measures of convergence in internal coordinates in au.
    
	Criteria marked as inactive (o), active & met (*), and active & unmet ( ).

	----------------------------------------------------------------------------------------------
	   Step    Total Energy     Delta E     Max Force     RMS Force      Max Disp      RMS Disp   
	----------------------------------------------------------------------------------------------
	  Convergence Criteria     1.00e-06 *    3.00e-04 *             o    1.20e-03 *             o
	----------------------------------------------------------------------------------------------
	    10    -559.50813631   -2.56e-06      2.33e-04 *    2.33e-04 o    5.73e-04 *    5.73e-04 o  ~
	----------------------------------------------------------------------------------------------

Next Geometry in Ang 
	Fragment 1 (Ang)

	    F   0.0000000000   0.0000000000   1.0259793142
	   Cl   0.0000000000   0.0000000000  -0.5574786985


    Final optimized geometry and variables:
    Molecular point group: c2v
    Full point group: C_inf_v

    Geometry (in Angstrom), charge = 1, multiplicity = 2:

    F            0.000000000000     0.000000000000     1.025827669709
    CL           0.000000000000     0.000000000000    -0.557327053931


    Psi4 stopped on: Thursday, 17 July 2025 02:32PM
    Psi4 wall time for execution: 0:00:10.96

*** Psi4 exiting successfully. Buy a developer a beer!
