
    -----------------------------------------------------------------------
          Psi4: An Open-Source Ab Initio Electronic Structure Package
                               Psi4 1.9.1 release

                         Git: Rev {} zzzzzzz 


    D. G. A. Smith, L. A. Burns, A. C. Simmonett, R. M. Parrish,
    M. C. Schieber, R. Galvelis, P. Kraus, H. Kruse, R. Di Remigio,
    A. Alenaizan, A. M. James, S. Lehtola, J. P. Misiewicz, M. Scheurer,
    R. A. Shaw, J. B. Schriber, Y. Xie, Z. L. Glick, D. A. Sirianni,
    J. S. O'Brien, J. M. Waldrop, A. Kumar, E. G. Hohenstein,
    B. P. Pritchard, B. R. Brooks, H. F. Schaefer III, A. Yu. Sokolov,
    K. Patkowski, A. E. DePrince III, U. Bozkaya, R. A. King,
    F. A. Evangelista, J. M. Turney, T. D. Crawford, C. D. Sherrill,
    J. Chem. Phys. 152(18) 184108 (2020). https://doi.org/10.1063/5.0006002

                            Additional Code Authors
    E. T. Seidl, C. L. Janssen, E. F. Valeev, M. L. Leininger,
    J. F. Gonthier, R. M. Richard, H. R. McAlexander, M. Saitow, X. Wang,
    P. Verma, M. H. Lechner, A. Jiang, S. Behnle, A. G. Heide,
    M. F. Herbst, and D. L. Poole

             Previous Authors, Complete List of Code Contributors,
                       and Citations for Specific Modules
    https://github.com/psi4/psi4/blob/master/codemeta.json
    https://github.com/psi4/psi4/graphs/contributors
    http://psicode.org/psi4manual/master/introduction.html#citing-psifour

    -----------------------------------------------------------------------


    Psi4 started on: Thursday, 17 July 2025 03:05PM

    Process ID: 75067
    Host:       Joses-MacBook-Pro-2.local
    PSIDATADIR: /Users/joseantoniorodriguesromero/anaconda3/share/psi4
    Memory:     500.0 MiB
    Threads:    1
    
  ==> Input File <==

--------------------------------------------------------------------------
molecule { 
1 2
Mg   0.00000        0.60000        0.00000
Si   0.00000       -0.60000        0.00000
}

set { 
basis              cc-pvdz
reference          uks
maxiter            500
geom_maxiter       500
DAMPING_PERCENTAGE 1
guess              SAP
}

optimize('b3lyp')
--------------------------------------------------------------------------

Scratch directory: /tmp/
gradient() will perform analytic gradient computation.
   => Libint2 <=

    Primary   basis highest AM E, G, H:  6, 6, 3
    Auxiliary basis highest AM E, G, H:  7, 7, 4
    Onebody   basis highest AM E, G, H:  -, -, -
    Solid Harmonics ordering:            Gaussian

*** tstart() called on Joses-MacBook-Pro-2.local
*** at Thu Jul 17 15:05:28 2025

   => Loading Basis Set <=

    Name: CC-PVDZ
    Role: ORBITAL
    Keyword: BASIS
    atoms 1 entry MG         line   353 file /Users/joseantoniorodriguesromero/anaconda3/share/psi4/basis/cc-pvdz.gbs 
    atoms 2 entry SI         line   478 file /Users/joseantoniorodriguesromero/anaconda3/share/psi4/basis/cc-pvdz.gbs 


         ---------------------------------------------------------
                                   SCF
               by Justin Turney, Rob Parrish, Andy Simmonett
                          and Daniel G. A. Smith
                              UKS Reference
                        1 Threads,    500 MiB Core
         ---------------------------------------------------------

  ==> Geometry <==

    Molecular point group: c2v
    Full point group: C_inf_v

    Geometry (in Angstrom), charge = 1, multiplicity = 2:

       Center              X                  Y                   Z               Mass       
    ------------   -----------------  -----------------  -----------------  -----------------
         MG           0.000000000000     0.000000000000     0.646093921845    23.985041697000
         SI           0.000000000000     0.000000000000    -0.553906078155    27.976926534650

  Running in c2v symmetry.

  Rotational constants: A = ************  B =      0.90652  C =      0.90652 [cm^-1]
  Rotational constants: A = ************  B =  27176.89397  C =  27176.89397 [MHz]
  Nuclear repulsion =   74.084809493800009

  Charge       = 1
  Multiplicity = 2
  Electrons    = 25
  Nalpha       = 13
  Nbeta        = 12

  ==> Algorithm <==

  SCF Algorithm Type is DF.
  DIIS enabled.
  MOM disabled.
  Fractional occupation disabled.
  Guess Type is SAP.
  Energy threshold   = 1.00e-08
  Density threshold  = 1.00e-08
  Integral threshold = 1.00e-12

  ==> Primary Basis <==

  Basis Set: CC-PVDZ
    Blend: CC-PVDZ
    Number of shells: 16
    Number of basis functions: 36
    Number of Cartesian functions: 38
    Spherical Harmonics?: true
    Max angular momentum: 2

  ==> DFT Potential <==

   => LibXC <=

    Version 6.2.2
    S. Lehtola, C. Steigemann, M. J.T. Oliveira, and M. A.L. Marques.,  SoftwareX 7, 1–5 (2018) (10.1016/j.softx.2017.11.002)

   => Composite Functional: B3LYP <= 

    B3LYP Hyb-GGA Exchange-Correlation Functional

    P. J. Stephens, F. J. Devlin, C. F. Chabalowski, and M. J. Frisch.,  J. Phys. Chem. 98, 11623 (1994) (10.1021/j100096a001)

    Deriv               =              1
    GGA                 =           TRUE
    Meta                =          FALSE

    Exchange Hybrid     =           TRUE
    MP2 Hybrid          =          FALSE

   => Exchange Functionals <=

    0.0800   Slater exchange
    0.7200         Becke 88

   => Exact (HF) Exchange <=

    0.2000               HF 

   => Correlation Functionals <=

    0.1900   Vosko, Wilk & Nusair (VWN5_RPA)
    0.8100   Lee, Yang & Parr

   => LibXC Density Thresholds  <==

    XC_HYB_GGA_XC_B3LYP:  1.00E-15 

   => Molecular Quadrature <=

    Radial Scheme          =       TREUTLER
    Pruning Scheme         =           NONE
    Nuclear Scheme         =       TREUTLER

    Blocking Scheme        =         OCTREE
    BS radius alpha        =              1
    Pruning alpha          =              1
    Radial Points          =             75
    Spherical Points       =            302
    Total Points           =          42812
    Total Blocks           =            419
    Max Points             =            255
    Max Functions          =             36
    Weights Tolerance      =       1.00E-15

   => Loading Basis Set <=

    Name: (CC-PVDZ AUX)
    Role: JKFIT
    Keyword: DF_BASIS_SCF
    atoms 1 entry MG         line   576 file /Users/joseantoniorodriguesromero/anaconda3/share/psi4/basis/def2-universal-jkfit.gbs 
    atoms 2 entry SI         line   445 file /Users/joseantoniorodriguesromero/anaconda3/share/psi4/basis/cc-pvdz-jkfit.gbs 

  ==> Integral Setup <==

  DFHelper Memory: AOs need 0.003 GiB; user supplied 0.322 GiB. 
  Using in-core AOs.

  ==> MemDFJK: Density-Fitted J/K Matrices <==

    J tasked:                   Yes
    K tasked:                   Yes
    wK tasked:                   No
    OpenMP threads:               1
    Memory [MiB]:               329
    Algorithm:                 Core
    Schwarz Cutoff:           1E-12
    Mask sparsity (%):       0.0000
    Fitting Condition:        1E-10

   => Auxiliary Basis Set <=

  Basis Set: (CC-PVDZ AUX)
    Blend: CC-PVDZ-JKFIT + DEF2-UNIVERSAL-JKFIT
    Number of shells: 70
    Number of basis functions: 224
    Number of Cartesian functions: 267
    Spherical Harmonics?: true
    Max angular momentum: 4

  Cached 100.0% of DFT collocation blocks in 0.044 [GiB].

  Minimum eigenvalue in the overlap matrix is 5.8470602831E-04.
  Reciprocal condition number of the overlap matrix is 1.7027300527E-04.
    Using symmetric orthogonalization.

  ==> Pre-Iterations <==

  SCF Guess: Superposition of Atomic Potentials (doi:10.1021/acs.jctc.8b01089).

  ==> SAP guess <==

   => Molecular Quadrature <=

    Radial Scheme          =       TREUTLER
    Pruning Scheme         =           NONE
    Nuclear Scheme         =       TREUTLER

    Blocking Scheme        =         OCTREE
    BS radius alpha        =              1
    Pruning alpha          =              1
    Radial Points          =             75
    Spherical Points       =            302
    Total Points           =          42812
    Total Blocks           =            419
    Max Points             =            255
    Max Functions          =             36
    Weights Tolerance      =       1.00E-15

   -------------------------------------------------------
    Irrep   Nso     Nmo     Nalpha   Nbeta   Ndocc  Nsocc
   -------------------------------------------------------
     A1        18      18       7       7       7       0
     A2         2       2       0       0       0       0
     B1         8       8       3       2       2       1
     B2         8       8       3       3       3       0
   -------------------------------------------------------
    Total      36      36      13      12      12       1
   -------------------------------------------------------

  ==> Iterations <==

                           Total Energy        Delta E     RMS |[F,P]|

   @DF-UKS iter   1:  -488.18898002934901   -4.88189e+02   1.15289e-02 DIIS/ADIIS
   @DF-UKS iter   2:  -488.23033649146572   -4.13565e-02   5.50433e-03 DIIS/ADIIS/DAMP=1%
   @DF-UKS iter   3:  -488.23324389172194   -2.90740e-03   6.10810e-04 DIIS/ADIIS/DAMP=1%
   @DF-UKS iter   4:  -488.24425306233627   -1.10092e-02   8.37155e-05 DIIS/DAMP=1%
   @DF-UKS iter   5:  -488.24335808448274    8.94978e-04   6.16545e-05 DIIS/DAMP=1%
   @DF-UKS iter   6:  -488.24338452032634   -2.64358e-05   1.29890e-05 DIIS/DAMP=1%
   @DF-UKS iter   7:  -488.24339291579537   -8.39547e-06   3.08905e-06 DIIS/DAMP=1%
   @DF-UKS iter   8:  -488.24338917632247    3.73947e-06   3.78518e-07 DIIS/DAMP=1%
   @DF-UKS iter   9:  -488.24338971129265   -5.34970e-07   6.86198e-08 DIIS/DAMP=1%
   @DF-UKS iter  10:  -488.24338967512125    3.61714e-08   1.13273e-08 DIIS/DAMP=1%
   @DF-UKS iter  11:  -488.24338968893284   -1.38116e-08   1.24079e-09 DIIS/DAMP=1%
   @DF-UKS iter  12:  -488.24338968331170    5.62113e-09   1.36456e-10 DIIS/DAMP=1%
  Energy and wave function converged.


  ==> Post-Iterations <==

   Electrons on quadrature grid:
      Nalpha   =   12.9999984673 ; deviation = -1.533e-06
      Nbeta    =   11.9999986493 ; deviation = -1.351e-06
      Ntotal   =   24.9999971167 ; deviation = -2.883e-06 

   @Spin Contamination Metric:   5.428902583E-03
   @S^2 Expected:                7.500000000E-01
   @S^2 Observed:                7.554289026E-01
   @S   Expected:                5.000000000E-01
   @S   Observed:                5.000000000E-01

    Orbital Energies [Eh]
    ---------------------

    Alpha Occupied:                                                       

       1A1   -66.487912     2A1   -47.340492     3A1    -5.689147  
       4A1    -4.097041     1B1    -4.025942     1B2    -4.011908  
       5A1    -3.663683     6A1    -2.445446     2B1    -2.395204  
       2B2    -2.385895     7A1    -0.705466     3B1    -0.495824  
       3B2    -0.455756  

    Alpha Virtual:                                                        

       8A1    -0.382928     9A1    -0.233826     4B1    -0.180163  
       4B2    -0.168628    10A1    -0.120608     5B1    -0.074129  
      11A1    -0.064736     5B2    -0.063133     1A2    -0.043152  
      12A1    -0.041982     6B1     0.083586     6B2     0.095909  
      13A1     0.124382    14A1     0.143039     7B1     0.198038  
       7B2     0.219286    15A1     0.258835     2A2     0.269886  
      16A1     0.274629     8B1     0.475587     8B2     0.493840  
      17A1     0.745751    18A1     2.587469  

    Beta Occupied:                                                        

       1A1   -66.484378     2A1   -47.338405     3A1    -5.685152  
       4A1    -4.095007     1B1    -4.012972     1B2    -4.009682  
       5A1    -3.660959     6A1    -2.443587     2B1    -2.386934  
       2B2    -2.384563     7A1    -0.666896     3B2    -0.444804  

    Beta Virtual:                                                         

       8A1    -0.377661     3B1    -0.377588     9A1    -0.227023  
       4B2    -0.168488     4B1    -0.162933    10A1    -0.117577  
      11A1    -0.063505     5B2    -0.062103     5B1    -0.060569  
       1A2    -0.016373    12A1    -0.012921     6B2     0.097112  
       6B1     0.099398    13A1     0.129350    14A1     0.151362  
       7B2     0.220016     7B1     0.222771    15A1     0.273126  
       2A2     0.290085    16A1     0.293076     8B2     0.495548  
       8B1     0.496211    17A1     0.754300    18A1     2.594941  

    Final Occupation by Irrep:
             A1    A2    B1    B2 
    DOCC [     7,    0,    2,    3 ]
    SOCC [     0,    0,    1,    0 ]
    NA   [     7,    0,    3,    3 ]
    NB   [     7,    0,    2,    3 ]

  @DF-UKS Final Energy:  -488.24338968331170

   => Energetics <=

    Nuclear Repulsion Energy =             74.0848094938000088
    One-Electron Energy =                -815.2969391255617211
    Two-Electron Energy =                 283.1882995428978802
    DFT Exchange-Correlation Energy =     -30.2195595944478441
    Empirical Dispersion Energy =           0.0000000000000000
    VV10 Nonlocal Energy =                  0.0000000000000000
    Total Energy =                       -488.2433896833117046

  UHF NO Occupations:
  HONO-2 :    3 B2 1.9998611
  HONO-1 :    7 A1 1.9974221
  HONO-0 :    3 B1 1.0000000
  LUNO+0 :    8 A1 0.0025779
  LUNO+1 :    4 B2 0.0001389
  LUNO+2 :    4 B1 0.0000007
  LUNO+3 :    9 A1 0.0000002


Computation Completed


Properties will be evaluated at   0.000000,   0.000000,   0.000000 [a0]

Properties computed using the SCF density matrix


 Multipole Moments:

 ------------------------------------------------------------------------------------
     Multipole            Electronic (a.u.)      Nuclear  (a.u.)        Total (a.u.)
 ------------------------------------------------------------------------------------

 L = 1.  Multiply by 2.5417464519 to convert [e a0] to [Debye]
 Dipole X            :          0.0000000            0.0000000            0.0000000
 Dipole Y            :          0.0000000            0.0000000            0.0000000
 Dipole Z            :          1.2126126           -0.0029443            1.2096683
 Magnitude           :                                                    1.2096683

 ------------------------------------------------------------------------------------

*** tstop() called on Joses-MacBook-Pro-2.local at Thu Jul 17 15:05:31 2025
Module time:
	user time   =      18.10 seconds =       0.30 minutes
	system time =       2.09 seconds =       0.03 minutes
	total time  =          3 seconds =       0.05 minutes
Total time:
	user time   =      18.10 seconds =       0.30 minutes
	system time =       2.09 seconds =       0.03 minutes
	total time  =          3 seconds =       0.05 minutes

*** tstart() called on Joses-MacBook-Pro-2.local
*** at Thu Jul 17 15:05:31 2025


         ------------------------------------------------------------
                                   SCF GRAD                          
                          Rob Parrish, Justin Turney,                
                       Andy Simmonett, and Alex Sokolov              
         ------------------------------------------------------------

  ==> Geometry <==

    Molecular point group: c2v
    Full point group: C_inf_v

    Geometry (in Angstrom), charge = 1, multiplicity = 2:

       Center              X                  Y                   Z               Mass       
    ------------   -----------------  -----------------  -----------------  -----------------
         MG           0.000000000000     0.000000000000     0.646093921845    23.985041697000
         SI           0.000000000000     0.000000000000    -0.553906078155    27.976926534650

  Nuclear repulsion =   74.084809493800009

  ==> Basis Set <==

  Basis Set: CC-PVDZ
    Blend: CC-PVDZ
    Number of shells: 16
    Number of basis functions: 36
    Number of Cartesian functions: 38
    Spherical Harmonics?: true
    Max angular momentum: 2

  ==> DFJKGrad: Density-Fitted SCF Gradients <==

    Gradient:                    1
    J tasked:                  Yes
    K tasked:                  Yes
    wK tasked:                  No
    OpenMP threads:              1
    Integrals threads:           1
    Memory [MiB]:              375
    Schwarz Cutoff:          1E-12
    Fitting Condition:       1E-10

   => Auxiliary Basis Set <=

  Basis Set: (CC-PVDZ AUX)
    Blend: CC-PVDZ-JKFIT + DEF2-UNIVERSAL-JKFIT
    Number of shells: 70
    Number of basis functions: 224
    Number of Cartesian functions: 267
    Spherical Harmonics?: true
    Max angular momentum: 4

  ==> DFT Potential <==

   => LibXC <=

    Version 6.2.2
    S. Lehtola, C. Steigemann, M. J.T. Oliveira, and M. A.L. Marques.,  SoftwareX 7, 1–5 (2018) (10.1016/j.softx.2017.11.002)

   => Composite Functional: B3LYP <= 

    B3LYP Hyb-GGA Exchange-Correlation Functional

    P. J. Stephens, F. J. Devlin, C. F. Chabalowski, and M. J. Frisch.,  J. Phys. Chem. 98, 11623 (1994) (10.1021/j100096a001)

    Deriv               =              1
    GGA                 =           TRUE
    Meta                =          FALSE

    Exchange Hybrid     =           TRUE
    MP2 Hybrid          =          FALSE

   => Exchange Functionals <=

    0.0800   Slater exchange
    0.7200         Becke 88

   => Exact (HF) Exchange <=

    0.2000               HF 

   => Correlation Functionals <=

    0.1900   Vosko, Wilk & Nusair (VWN5_RPA)
    0.8100   Lee, Yang & Parr

   => LibXC Density Thresholds  <==

    XC_HYB_GGA_XC_B3LYP:  1.00E-15 

   => Molecular Quadrature <=

    Radial Scheme          =       TREUTLER
    Pruning Scheme         =           NONE
    Nuclear Scheme         =       TREUTLER

    Blocking Scheme        =         OCTREE
    BS radius alpha        =              1
    Pruning alpha          =              1
    Radial Points          =             75
    Spherical Points       =            302
    Total Points           =          42812
    Total Blocks           =            419
    Max Points             =            255
    Max Functions          =             36
    Weights Tolerance      =       1.00E-15


  -Total Gradient:
     Atom            X                  Y                   Z
    ------   -----------------  -----------------  -----------------
       1        0.000000000000    -0.000000000000    -1.549866437781
       2        0.000000000000    -0.000000000000     1.549984522828


*** tstop() called on Joses-MacBook-Pro-2.local at Thu Jul 17 15:05:31 2025
Module time:
	user time   =       2.82 seconds =       0.05 minutes
	system time =       1.05 seconds =       0.02 minutes
	total time  =          0 seconds =       0.00 minutes
Total time:
	user time   =      20.93 seconds =       0.35 minutes
	system time =       3.14 seconds =       0.05 minutes
	total time  =          3 seconds =       0.05 minutes

    			-----------------------------------------

    			 OPTKING 3.0: for geometry optimizations 

    			     By R.A. King, Bethel University     

    			        with contributions from          

    			    A.V. Copan, J. Cayton, A. Heide      

    			-----------------------------------------

    
	                            ===> Fragment 1 <== 

	 Z (Atomic Numbers)          Masses                          Geom                  
	      12.000000            23.985042          0.00000000  0.00000000  1.22094056   
	      14.000000            27.976927          0.00000000  0.00000000 -1.04673079   

	 - Coordinate -           - BOHR/RAD -       - ANG/DEG -
	 R(1,2)           =         2.267671           1.200000


	        --- Internal Coordinate Step in ANG or DEG, aJ/ANG or AJ/DEG ---
	-------------------------------------------------------------------------------
	           Coordinate      Previous         Force          Change          New 
	           ----------      --------        ------          ------        ------
	               R(1,2)       1.20000       12.76941        0.00377       1.20377
	-------------------------------------------------------------------------------

	                                 ==> Convergence Check <==                                  
    
	Measures of convergence in internal coordinates in au.
    
	Criteria marked as inactive (o), active & met (*), and active & unmet ( ).

	----------------------------------------------------------------------------------------------
	   Step    Total Energy     Delta E     Max Force     RMS Force      Max Disp      RMS Disp   
	----------------------------------------------------------------------------------------------
	  Convergence Criteria     1.00e-06 *    3.00e-04 *             o    1.20e-03 *             o
	----------------------------------------------------------------------------------------------
	     1    -488.24338968   -4.88e+02      1.55e+00      1.55e+00 o    7.12e-03      7.12e-03 o  ~
	----------------------------------------------------------------------------------------------

Next Geometry in Ang 
	Fragment 1 (Ang)

	   Mg   0.0000000000   0.0000000000   0.6479765222
	   Si   0.0000000000   0.0000000000  -0.5557886785


    Structure for next step:
    Molecular point group: c2v
    Full point group: C_inf_v

    Geometry (in Angstrom), charge = 1, multiplicity = 2:

    MG           0.000000000000     0.000000000000     0.648121149612
    SI           0.000000000000     0.000000000000    -0.555644051140


Scratch directory: /tmp/
gradient() will perform analytic gradient computation.
   => Libint2 <=

    Primary   basis highest AM E, G, H:  6, 6, 3
    Auxiliary basis highest AM E, G, H:  7, 7, 4
    Onebody   basis highest AM E, G, H:  -, -, -
    Solid Harmonics ordering:            Gaussian

*** tstart() called on Joses-MacBook-Pro-2.local
*** at Thu Jul 17 15:05:31 2025

   => Loading Basis Set <=

    Name: CC-PVDZ
    Role: ORBITAL
    Keyword: BASIS
    atoms 1 entry MG         line   353 file /Users/joseantoniorodriguesromero/anaconda3/share/psi4/basis/cc-pvdz.gbs 
    atoms 2 entry SI         line   478 file /Users/joseantoniorodriguesromero/anaconda3/share/psi4/basis/cc-pvdz.gbs 


         ---------------------------------------------------------
                                   SCF
               by Justin Turney, Rob Parrish, Andy Simmonett
                          and Daniel G. A. Smith
                              UKS Reference
                        1 Threads,    500 MiB Core
         ---------------------------------------------------------

  ==> Geometry <==

    Molecular point group: c2v
    Full point group: C_inf_v

    Geometry (in Angstrom), charge = 1, multiplicity = 2:

       Center              X                  Y                   Z               Mass       
    ------------   -----------------  -----------------  -----------------  -----------------
         MG           0.000000000000     0.000000000000     0.648121149612    23.985041697000
         SI           0.000000000000     0.000000000000    -0.555644051140    27.976926534650

  Running in c2v symmetry.

  Rotational constants: A = ************  B =      0.90086  C =      0.90086 [cm^-1]
  Rotational constants: A = ************  B =  27007.14919  C =  27007.14919 [MHz]
  Nuclear repulsion =   73.853083090444855

  Charge       = 1
  Multiplicity = 2
  Electrons    = 25
  Nalpha       = 13
  Nbeta        = 12

  ==> Algorithm <==

  SCF Algorithm Type is DF.
  DIIS enabled.
  MOM disabled.
  Fractional occupation disabled.
  Guess Type is READ.
  Energy threshold   = 1.00e-08
  Density threshold  = 1.00e-08
  Integral threshold = 1.00e-12

  ==> Primary Basis <==

  Basis Set: CC-PVDZ
    Blend: CC-PVDZ
    Number of shells: 16
    Number of basis functions: 36
    Number of Cartesian functions: 38
    Spherical Harmonics?: true
    Max angular momentum: 2

  ==> DFT Potential <==

   => LibXC <=

    Version 6.2.2
    S. Lehtola, C. Steigemann, M. J.T. Oliveira, and M. A.L. Marques.,  SoftwareX 7, 1–5 (2018) (10.1016/j.softx.2017.11.002)

   => Composite Functional: B3LYP <= 

    B3LYP Hyb-GGA Exchange-Correlation Functional

    P. J. Stephens, F. J. Devlin, C. F. Chabalowski, and M. J. Frisch.,  J. Phys. Chem. 98, 11623 (1994) (10.1021/j100096a001)

    Deriv               =              1
    GGA                 =           TRUE
    Meta                =          FALSE

    Exchange Hybrid     =           TRUE
    MP2 Hybrid          =          FALSE

   => Exchange Functionals <=

    0.0800   Slater exchange
    0.7200         Becke 88

   => Exact (HF) Exchange <=

    0.2000               HF 

   => Correlation Functionals <=

    0.1900   Vosko, Wilk & Nusair (VWN5_RPA)
    0.8100   Lee, Yang & Parr

   => LibXC Density Thresholds  <==

    XC_HYB_GGA_XC_B3LYP:  1.00E-15 

   => Molecular Quadrature <=

    Radial Scheme          =       TREUTLER
    Pruning Scheme         =           NONE
    Nuclear Scheme         =       TREUTLER

    Blocking Scheme        =         OCTREE
    BS radius alpha        =              1
    Pruning alpha          =              1
    Radial Points          =             75
    Spherical Points       =            302
    Total Points           =          42812
    Total Blocks           =            419
    Max Points             =            256
    Max Functions          =             36
    Weights Tolerance      =       1.00E-15

   => Loading Basis Set <=

    Name: (CC-PVDZ AUX)
    Role: JKFIT
    Keyword: DF_BASIS_SCF
    atoms 1 entry MG         line   576 file /Users/joseantoniorodriguesromero/anaconda3/share/psi4/basis/def2-universal-jkfit.gbs 
    atoms 2 entry SI         line   445 file /Users/joseantoniorodriguesromero/anaconda3/share/psi4/basis/cc-pvdz-jkfit.gbs 

   => Loading Basis Set <=

    Name: CC-PVDZ
    Role: ORBITAL
    Keyword: BASIS
    atoms 1 entry MG         line   353 file /Users/joseantoniorodriguesromero/anaconda3/share/psi4/basis/cc-pvdz.gbs 
    atoms 2 entry SI         line   478 file /Users/joseantoniorodriguesromero/anaconda3/share/psi4/basis/cc-pvdz.gbs 

  Reading orbitals from file /tmp/doublet_MgSi.default.75067.180.npy, no projection.

  ==> Integral Setup <==

  DFHelper Memory: AOs need 0.003 GiB; user supplied 0.322 GiB. 
  Using in-core AOs.

  ==> MemDFJK: Density-Fitted J/K Matrices <==

    J tasked:                   Yes
    K tasked:                   Yes
    wK tasked:                   No
    OpenMP threads:               1
    Memory [MiB]:               329
    Algorithm:                 Core
    Schwarz Cutoff:           1E-12
    Mask sparsity (%):       0.0000
    Fitting Condition:        1E-10

   => Auxiliary Basis Set <=

  Basis Set: (CC-PVDZ AUX)
    Blend: CC-PVDZ-JKFIT + DEF2-UNIVERSAL-JKFIT
    Number of shells: 70
    Number of basis functions: 224
    Number of Cartesian functions: 267
    Spherical Harmonics?: true
    Max angular momentum: 4

  Cached 100.0% of DFT collocation blocks in 0.044 [GiB].

  Minimum eigenvalue in the overlap matrix is 5.8956212366E-04.
  Reciprocal condition number of the overlap matrix is 1.7168967477E-04.
    Using symmetric orthogonalization.

  ==> Pre-Iterations <==

  SCF Guess: Orbitals guess was supplied from a previous computation.

   -------------------------------------------------------
    Irrep   Nso     Nmo     Nalpha   Nbeta   Ndocc  Nsocc
   -------------------------------------------------------
     A1        18      18       7       7       7       0
     A2         2       2       0       0       0       0
     B1         8       8       3       2       2       1
     B2         8       8       3       3       3       0
   -------------------------------------------------------
    Total      36      36      13      12      12       1
   -------------------------------------------------------

  ==> Iterations <==

                           Total Energy        Delta E     RMS |[F,P]|

   @DF-UKS iter   0:  -488.25440697038681   -4.88254e+02   7.40217e-04 
   @DF-UKS iter   1:  -488.25434466050103    6.23099e-05   4.91376e-05 DIIS
   @DF-UKS iter   2:  -488.25434499582832   -3.35327e-07   1.80698e-05 DIIS/DAMP=1%
   @DF-UKS iter   3:  -488.25437051769865   -2.55219e-05   3.79348e-06 DIIS/DAMP=1%
   @DF-UKS iter   4:  -488.25434364181484    2.68759e-05   7.66439e-07 DIIS/DAMP=1%
   @DF-UKS iter   5:  -488.25434441096525   -7.69150e-07   6.52846e-08 DIIS/DAMP=1%
   @DF-UKS iter   6:  -488.25434515449780   -7.43533e-07   1.81924e-08 DIIS/DAMP=1%
   @DF-UKS iter   7:  -488.25434509924872    5.52491e-08   5.64952e-09 DIIS/DAMP=1%
   @DF-UKS iter   8:  -488.25434510062632   -1.37760e-09   9.86108e-10 DIIS/DAMP=1%
  Energy and wave function converged.


  ==> Post-Iterations <==

   Electrons on quadrature grid:
      Nalpha   =   12.9999983694 ; deviation = -1.631e-06
      Nbeta    =   11.9999985553 ; deviation = -1.445e-06
      Ntotal   =   24.9999969247 ; deviation = -3.075e-06 

   @Spin Contamination Metric:   5.419796078E-03
   @S^2 Expected:                7.500000000E-01
   @S^2 Observed:                7.554197961E-01
   @S   Expected:                5.000000000E-01
   @S   Observed:                5.000000000E-01

    Orbital Energies [Eh]
    ---------------------

    Alpha Occupied:                                                       

       1A1   -66.486500     2A1   -47.338649     3A1    -5.686927  
       4A1    -4.093977     1B1    -4.024141     1B2    -4.010127  
       5A1    -3.661724     6A1    -2.443267     2B1    -2.392833  
       2B2    -2.383570     7A1    -0.705272     3B1    -0.495348  
       3B2    -0.455315  

    Alpha Virtual:                                                        

       8A1    -0.382911     9A1    -0.234139     4B1    -0.180187  
       4B2    -0.168669    10A1    -0.120626     5B1    -0.074063  
      11A1    -0.064695     5B2    -0.063058     1A2    -0.042611  
      12A1    -0.041454     6B1     0.083481     6B2     0.095799  
      13A1     0.124011    14A1     0.142271     7B1     0.197763  
       7B2     0.218999    15A1     0.258274     2A2     0.269605  
      16A1     0.274294     8B1     0.475931     8B2     0.494170  
      17A1     0.742949    18A1     2.568137  

    Beta Occupied:                                                        

       1A1   -66.482970     2A1   -47.336577     3A1    -5.682939  
       4A1    -4.091944     1B1    -4.011190     1B2    -4.007904  
       5A1    -3.659016     6A1    -2.441416     2B1    -2.384618  
       2B2    -2.382248     7A1    -0.666733     3B2    -0.444371  

    Beta Virtual:                                                         

       8A1    -0.377647     3B1    -0.377182     9A1    -0.227352  
       4B2    -0.168532     4B1    -0.162966    10A1    -0.117583  
      11A1    -0.063468     5B2    -0.062024     5B1    -0.060484  
       1A2    -0.015875    12A1    -0.012423     6B2     0.096998  
       6B1     0.099287    13A1     0.129013    14A1     0.150568  
       7B2     0.219738     7B1     0.222495    15A1     0.272476  
       2A2     0.289818    16A1     0.292812     8B2     0.495868  
       8B1     0.496556    17A1     0.751515    18A1     2.575628  

    Final Occupation by Irrep:
             A1    A2    B1    B2 
    DOCC [     7,    0,    2,    3 ]
    SOCC [     0,    0,    1,    0 ]
    NA   [     7,    0,    3,    3 ]
    NB   [     7,    0,    2,    3 ]

  @DF-UKS Final Energy:  -488.25434510062632

   => Energetics <=

    Nuclear Repulsion Energy =             73.8530830904448550
    One-Electron Energy =                -814.9004531706068519
    Two-Electron Energy =                 283.0102678411703891
    DFT Exchange-Correlation Energy =     -30.2172428616347801
    Empirical Dispersion Energy =           0.0000000000000000
    VV10 Nonlocal Energy =                  0.0000000000000000
    Total Energy =                       -488.2543451006263240

  UHF NO Occupations:
  HONO-2 :    3 B2 1.9998609
  HONO-1 :    7 A1 1.9974269
  HONO-0 :    3 B1 1.0000000
  LUNO+0 :    8 A1 0.0025731
  LUNO+1 :    4 B2 0.0001391
  LUNO+2 :    4 B1 0.0000007
  LUNO+3 :    9 A1 0.0000002


Computation Completed


Properties will be evaluated at   0.000000,   0.000000,   0.000000 [a0]

Properties computed using the SCF density matrix


 Multipole Moments:

 ------------------------------------------------------------------------------------
     Multipole            Electronic (a.u.)      Nuclear  (a.u.)        Total (a.u.)
 ------------------------------------------------------------------------------------

 L = 1.  Multiply by 2.5417464519 to convert [e a0] to [Debye]
 Dipole X            :          0.0000000            0.0000000            0.0000000
 Dipole Y            :          0.0000000            0.0000000            0.0000000
 Dipole Z            :          1.2138165           -0.0029535            1.2108630
 Magnitude           :                                                    1.2108630

 ------------------------------------------------------------------------------------

*** tstop() called on Joses-MacBook-Pro-2.local at Thu Jul 17 15:05:32 2025
Module time:
	user time   =       6.58 seconds =       0.11 minutes
	system time =       2.40 seconds =       0.04 minutes
	total time  =          1 seconds =       0.02 minutes
Total time:
	user time   =      27.65 seconds =       0.46 minutes
	system time =       5.66 seconds =       0.09 minutes
	total time  =          4 seconds =       0.07 minutes

*** tstart() called on Joses-MacBook-Pro-2.local
*** at Thu Jul 17 15:05:32 2025


         ------------------------------------------------------------
                                   SCF GRAD                          
                          Rob Parrish, Justin Turney,                
                       Andy Simmonett, and Alex Sokolov              
         ------------------------------------------------------------

  ==> Geometry <==

    Molecular point group: c2v
    Full point group: C_inf_v

    Geometry (in Angstrom), charge = 1, multiplicity = 2:

       Center              X                  Y                   Z               Mass       
    ------------   -----------------  -----------------  -----------------  -----------------
         MG           0.000000000000     0.000000000000     0.648121149612    23.985041697000
         SI           0.000000000000     0.000000000000    -0.555644051140    27.976926534650

  Nuclear repulsion =   73.853083090444855

  ==> Basis Set <==

  Basis Set: CC-PVDZ
    Blend: CC-PVDZ
    Number of shells: 16
    Number of basis functions: 36
    Number of Cartesian functions: 38
    Spherical Harmonics?: true
    Max angular momentum: 2

  ==> DFJKGrad: Density-Fitted SCF Gradients <==

    Gradient:                    1
    J tasked:                  Yes
    K tasked:                  Yes
    wK tasked:                  No
    OpenMP threads:              1
    Integrals threads:           1
    Memory [MiB]:              375
    Schwarz Cutoff:          1E-12
    Fitting Condition:       1E-10

   => Auxiliary Basis Set <=

  Basis Set: (CC-PVDZ AUX)
    Blend: CC-PVDZ-JKFIT + DEF2-UNIVERSAL-JKFIT
    Number of shells: 70
    Number of basis functions: 224
    Number of Cartesian functions: 267
    Spherical Harmonics?: true
    Max angular momentum: 4

  ==> DFT Potential <==

   => LibXC <=

    Version 6.2.2
    S. Lehtola, C. Steigemann, M. J.T. Oliveira, and M. A.L. Marques.,  SoftwareX 7, 1–5 (2018) (10.1016/j.softx.2017.11.002)

   => Composite Functional: B3LYP <= 

    B3LYP Hyb-GGA Exchange-Correlation Functional

    P. J. Stephens, F. J. Devlin, C. F. Chabalowski, and M. J. Frisch.,  J. Phys. Chem. 98, 11623 (1994) (10.1021/j100096a001)

    Deriv               =              1
    GGA                 =           TRUE
    Meta                =          FALSE

    Exchange Hybrid     =           TRUE
    MP2 Hybrid          =          FALSE

   => Exchange Functionals <=

    0.0800   Slater exchange
    0.7200         Becke 88

   => Exact (HF) Exchange <=

    0.2000               HF 

   => Correlation Functionals <=

    0.1900   Vosko, Wilk & Nusair (VWN5_RPA)
    0.8100   Lee, Yang & Parr

   => LibXC Density Thresholds  <==

    XC_HYB_GGA_XC_B3LYP:  1.00E-15 

   => Molecular Quadrature <=

    Radial Scheme          =       TREUTLER
    Pruning Scheme         =           NONE
    Nuclear Scheme         =       TREUTLER

    Blocking Scheme        =         OCTREE
    BS radius alpha        =              1
    Pruning alpha          =              1
    Radial Points          =             75
    Spherical Points       =            302
    Total Points           =          42812
    Total Blocks           =            419
    Max Points             =            256
    Max Functions          =             36
    Weights Tolerance      =       1.00E-15


  -Total Gradient:
     Atom            X                  Y                   Z
    ------   -----------------  -----------------  -----------------
       1        0.000000000000    -0.000000000000    -1.529411036413
       2        0.000000000000     0.000000000000     1.529531813986


*** tstop() called on Joses-MacBook-Pro-2.local at Thu Jul 17 15:05:32 2025
Module time:
	user time   =       2.89 seconds =       0.05 minutes
	system time =       1.43 seconds =       0.02 minutes
	total time  =          0 seconds =       0.00 minutes
Total time:
	user time   =      30.55 seconds =       0.51 minutes
	system time =       7.09 seconds =       0.12 minutes
	total time  =          4 seconds =       0.07 minutes

    			-----------------------------------------

    			 OPTKING 3.0: for geometry optimizations 

    			     By R.A. King, Bethel University     

    			        with contributions from          

    			    A.V. Copan, J. Cayton, A. Heide      

    			-----------------------------------------

    
	                            ===> Fragment 1 <== 

	 Z (Atomic Numbers)          Masses                          Geom                  
	      12.000000            23.985042          0.00000000  0.00000000  1.22477147   
	      14.000000            27.976927          0.00000000  0.00000000 -1.05001508   

	 - Coordinate -           - BOHR/RAD -       - ANG/DEG -
	 R(1,2)           =         2.274787           1.203765


	        --- Internal Coordinate Step in ANG or DEG, aJ/ANG or AJ/DEG ---
	-------------------------------------------------------------------------------
	           Coordinate      Previous         Force          Change          New 
	           ----------      --------        ------          ------        ------
	               R(1,2)       1.20377       12.60089        0.00743       1.21120
	-------------------------------------------------------------------------------

	                                 ==> Convergence Check <==                                  
    
	Measures of convergence in internal coordinates in au.
    
	Criteria marked as inactive (o), active & met (*), and active & unmet ( ).

	----------------------------------------------------------------------------------------------
	   Step    Total Energy     Delta E     Max Force     RMS Force      Max Disp      RMS Disp   
	----------------------------------------------------------------------------------------------
	  Convergence Criteria     1.00e-06 *    3.00e-04 *             o    1.20e-03 *             o
	----------------------------------------------------------------------------------------------
	     2    -488.25434510   -1.10e-02      1.53e+00      1.53e+00 o    1.40e-02      1.40e-02 o  ~
	----------------------------------------------------------------------------------------------

Next Geometry in Ang 
	Fragment 1 (Ang)

	   Mg   0.0000000000   0.0000000000   0.6518361174
	   Si   0.0000000000   0.0000000000  -0.5593590189


    Structure for next step:
    Molecular point group: c2v
    Full point group: C_inf_v

    Geometry (in Angstrom), charge = 1, multiplicity = 2:

    MG           0.000000000000     0.000000000000     0.652121513100
    SI           0.000000000000     0.000000000000    -0.559073623182


Scratch directory: /tmp/
gradient() will perform analytic gradient computation.
   => Libint2 <=

    Primary   basis highest AM E, G, H:  6, 6, 3
    Auxiliary basis highest AM E, G, H:  7, 7, 4
    Onebody   basis highest AM E, G, H:  -, -, -
    Solid Harmonics ordering:            Gaussian

*** tstart() called on Joses-MacBook-Pro-2.local
*** at Thu Jul 17 15:05:32 2025

   => Loading Basis Set <=

    Name: CC-PVDZ
    Role: ORBITAL
    Keyword: BASIS
    atoms 1 entry MG         line   353 file /Users/joseantoniorodriguesromero/anaconda3/share/psi4/basis/cc-pvdz.gbs 
    atoms 2 entry SI         line   478 file /Users/joseantoniorodriguesromero/anaconda3/share/psi4/basis/cc-pvdz.gbs 


         ---------------------------------------------------------
                                   SCF
               by Justin Turney, Rob Parrish, Andy Simmonett
                          and Daniel G. A. Smith
                              UKS Reference
                        1 Threads,    500 MiB Core
         ---------------------------------------------------------

  ==> Geometry <==

    Molecular point group: c2v
    Full point group: C_inf_v

    Geometry (in Angstrom), charge = 1, multiplicity = 2:

       Center              X                  Y                   Z               Mass       
    ------------   -----------------  -----------------  -----------------  -----------------
         MG           0.000000000000     0.000000000000     0.652121513100    23.985041697000
         SI           0.000000000000     0.000000000000    -0.559073623182    27.976926534650

  Running in c2v symmetry.

  Rotational constants: A = ************  B =      0.88984  C =      0.88984 [cm^-1]
  Rotational constants: A = ************  B =  26676.82107  C =  26676.82107 [MHz]
  Nuclear repulsion =   73.400039951856229

  Charge       = 1
  Multiplicity = 2
  Electrons    = 25
  Nalpha       = 13
  Nbeta        = 12

  ==> Algorithm <==

  SCF Algorithm Type is DF.
  DIIS enabled.
  MOM disabled.
  Fractional occupation disabled.
  Guess Type is READ.
  Energy threshold   = 1.00e-08
  Density threshold  = 1.00e-08
  Integral threshold = 1.00e-12

  ==> Primary Basis <==

  Basis Set: CC-PVDZ
    Blend: CC-PVDZ
    Number of shells: 16
    Number of basis functions: 36
    Number of Cartesian functions: 38
    Spherical Harmonics?: true
    Max angular momentum: 2

  ==> DFT Potential <==

   => LibXC <=

    Version 6.2.2
    S. Lehtola, C. Steigemann, M. J.T. Oliveira, and M. A.L. Marques.,  SoftwareX 7, 1–5 (2018) (10.1016/j.softx.2017.11.002)

   => Composite Functional: B3LYP <= 

    B3LYP Hyb-GGA Exchange-Correlation Functional

    P. J. Stephens, F. J. Devlin, C. F. Chabalowski, and M. J. Frisch.,  J. Phys. Chem. 98, 11623 (1994) (10.1021/j100096a001)

    Deriv               =              1
    GGA                 =           TRUE
    Meta                =          FALSE

    Exchange Hybrid     =           TRUE
    MP2 Hybrid          =          FALSE

   => Exchange Functionals <=

    0.0800   Slater exchange
    0.7200         Becke 88

   => Exact (HF) Exchange <=

    0.2000               HF 

   => Correlation Functionals <=

    0.1900   Vosko, Wilk & Nusair (VWN5_RPA)
    0.8100   Lee, Yang & Parr

   => LibXC Density Thresholds  <==

    XC_HYB_GGA_XC_B3LYP:  1.00E-15 

   => Molecular Quadrature <=

    Radial Scheme          =       TREUTLER
    Pruning Scheme         =           NONE
    Nuclear Scheme         =       TREUTLER

    Blocking Scheme        =         OCTREE
    BS radius alpha        =              1
    Pruning alpha          =              1
    Radial Points          =             75
    Spherical Points       =            302
    Total Points           =          42813
    Total Blocks           =            418
    Max Points             =            254
    Max Functions          =             36
    Weights Tolerance      =       1.00E-15

   => Loading Basis Set <=

    Name: (CC-PVDZ AUX)
    Role: JKFIT
    Keyword: DF_BASIS_SCF
    atoms 1 entry MG         line   576 file /Users/joseantoniorodriguesromero/anaconda3/share/psi4/basis/def2-universal-jkfit.gbs 
    atoms 2 entry SI         line   445 file /Users/joseantoniorodriguesromero/anaconda3/share/psi4/basis/cc-pvdz-jkfit.gbs 

   => Loading Basis Set <=

    Name: CC-PVDZ
    Role: ORBITAL
    Keyword: BASIS
    atoms 1 entry MG         line   353 file /Users/joseantoniorodriguesromero/anaconda3/share/psi4/basis/cc-pvdz.gbs 
    atoms 2 entry SI         line   478 file /Users/joseantoniorodriguesromero/anaconda3/share/psi4/basis/cc-pvdz.gbs 

  Reading orbitals from file /tmp/doublet_MgSi.default.75067.180.npy, no projection.

  ==> Integral Setup <==

  DFHelper Memory: AOs need 0.003 GiB; user supplied 0.322 GiB. 
  Using in-core AOs.

  ==> MemDFJK: Density-Fitted J/K Matrices <==

    J tasked:                   Yes
    K tasked:                   Yes
    wK tasked:                   No
    OpenMP threads:               1
    Memory [MiB]:               329
    Algorithm:                 Core
    Schwarz Cutoff:           1E-12
    Mask sparsity (%):       0.0000
    Fitting Condition:        1E-10

   => Auxiliary Basis Set <=

  Basis Set: (CC-PVDZ AUX)
    Blend: CC-PVDZ-JKFIT + DEF2-UNIVERSAL-JKFIT
    Number of shells: 70
    Number of basis functions: 224
    Number of Cartesian functions: 267
    Spherical Harmonics?: true
    Max angular momentum: 4

  Cached 100.0% of DFT collocation blocks in 0.044 [GiB].

  Minimum eigenvalue in the overlap matrix is 5.9922932594E-04.
  Reciprocal condition number of the overlap matrix is 1.7451017747E-04.
    Using symmetric orthogonalization.

  ==> Pre-Iterations <==

  SCF Guess: Orbitals guess was supplied from a previous computation.

   -------------------------------------------------------
    Irrep   Nso     Nmo     Nalpha   Nbeta   Ndocc  Nsocc
   -------------------------------------------------------
     A1        18      18       7       7       7       0
     A2         2       2       0       0       0       0
     B1         8       8       3       2       2       1
     B2         8       8       3       3       3       0
   -------------------------------------------------------
    Total      36      36      13      12      12       1
   -------------------------------------------------------

  ==> Iterations <==

                           Total Energy        Delta E     RMS |[F,P]|

   @DF-UKS iter   0:  -488.27556656991749   -4.88276e+02   1.44419e-03 
   @DF-UKS iter   1:  -488.27554151663611    2.50533e-05   9.34570e-05 DIIS
   @DF-UKS iter   2:  -488.27554272481677   -1.20818e-06   3.40886e-05 DIIS/DAMP=1%
   @DF-UKS iter   3:  -488.27559120604337   -4.84812e-05   7.28960e-06 DIIS/DAMP=1%
   @DF-UKS iter   4:  -488.27554018058544    5.10255e-05   1.47132e-06 DIIS/DAMP=1%
   @DF-UKS iter   5:  -488.27554178443427   -1.60385e-06   1.24941e-07 DIIS/DAMP=1%
   @DF-UKS iter   6:  -488.27554320737892   -1.42294e-06   3.20963e-08 DIIS/DAMP=1%
   @DF-UKS iter   7:  -488.27554309725622    1.10123e-07   1.00760e-08 DIIS/DAMP=1%
   @DF-UKS iter   8:  -488.27554309933129   -2.07507e-09   2.01303e-09 DIIS/DAMP=1%
  Energy and wave function converged.


  ==> Post-Iterations <==

   Electrons on quadrature grid:
      Nalpha   =   12.9999982006 ; deviation = -1.799e-06
      Nbeta    =   11.9999983930 ; deviation = -1.607e-06
      Ntotal   =   24.9999965937 ; deviation = -3.406e-06 

   @Spin Contamination Metric:   5.400881218E-03
   @S^2 Expected:                7.500000000E-01
   @S^2 Observed:                7.554008812E-01
   @S   Expected:                5.000000000E-01
   @S   Observed:                5.000000000E-01

    Orbital Energies [Eh]
    ---------------------

    Alpha Occupied:                                                       

       1A1   -66.483738     2A1   -47.335019     3A1    -5.682622  
       4A1    -4.088062     1B1    -4.020633     1B2    -4.006658  
       5A1    -3.657827     6A1    -2.438956     2B1    -2.388195  
       2B2    -2.379022     7A1    -0.704907     3B1    -0.494404  
       3B2    -0.454441  

    Alpha Virtual:                                                        

       8A1    -0.382883     9A1    -0.234766     4B1    -0.180236  
       4B2    -0.168752    10A1    -0.120664     5B1    -0.073931  
      11A1    -0.064614     5B2    -0.062908     1A2    -0.041541  
      12A1    -0.040409     6B1     0.083276     6B2     0.095584  
      13A1     0.123259    14A1     0.140754     7B1     0.197226  
       7B2     0.218439    15A1     0.257161     2A2     0.269051  
      16A1     0.273636     8B1     0.476605     8B2     0.494817  
      17A1     0.737484    18A1     2.530232  

    Beta Occupied:                                                        

       1A1   -66.480219     2A1   -47.332977     3A1    -5.678645  
       4A1    -4.086032     1B1    -4.007720     1B2    -4.004442  
       5A1    -3.655150     6A1    -2.437119     2B1    -2.380087  
       2B2    -2.377722     7A1    -0.666427     3B2    -0.443512  

    Beta Virtual:                                                         

       8A1    -0.377623     3B1    -0.376379     9A1    -0.228013  
       4B2    -0.168619     4B1    -0.163032    10A1    -0.117598  
      11A1    -0.063396     5B2    -0.061868     5B1    -0.060312  
       1A2    -0.014891    12A1    -0.011442     6B2     0.096775  
       6B1     0.099073    13A1     0.128327    14A1     0.149003  
       7B2     0.219195     7B1     0.221957    15A1     0.271187  
       2A2     0.289293    16A1     0.292293     8B2     0.496497  
       8B1     0.497231    17A1     0.746087    18A1     2.537759  

    Final Occupation by Irrep:
             A1    A2    B1    B2 
    DOCC [     7,    0,    2,    3 ]
    SOCC [     0,    0,    1,    0 ]
    NA   [     7,    0,    3,    3 ]
    NB   [     7,    0,    2,    3 ]

  @DF-UKS Final Energy:  -488.27554309933129

   => Energetics <=

    Nuclear Repulsion Energy =             73.4000399518562290
    One-Electron Energy =                -814.1248588664043382
    Two-Electron Energy =                 282.6620352822372411
    DFT Exchange-Correlation Energy =     -30.2127594670204260
    Empirical Dispersion Energy =           0.0000000000000000
    VV10 Nonlocal Energy =                  0.0000000000000000
    Total Energy =                       -488.2755430993312871

  UHF NO Occupations:
  HONO-2 :    3 B2 1.9998604
  HONO-1 :    7 A1 1.9974369
  HONO-0 :    3 B1 1.0000000
  LUNO+0 :    8 A1 0.0025631
  LUNO+1 :    4 B2 0.0001396
  LUNO+2 :    4 B1 0.0000007
  LUNO+3 :    9 A1 0.0000002


Computation Completed


Properties will be evaluated at   0.000000,   0.000000,   0.000000 [a0]

Properties computed using the SCF density matrix


 Multipole Moments:

 ------------------------------------------------------------------------------------
     Multipole            Electronic (a.u.)      Nuclear  (a.u.)        Total (a.u.)
 ------------------------------------------------------------------------------------

 L = 1.  Multiply by 2.5417464519 to convert [e a0] to [Debye]
 Dipole X            :          0.0000000            0.0000000            0.0000000
 Dipole Y            :          0.0000000            0.0000000            0.0000000
 Dipole Z            :          1.2161773           -0.0029717            1.2132056
 Magnitude           :                                                    1.2132056

 ------------------------------------------------------------------------------------

*** tstop() called on Joses-MacBook-Pro-2.local at Thu Jul 17 15:05:33 2025
Module time:
	user time   =       6.66 seconds =       0.11 minutes
	system time =       1.81 seconds =       0.03 minutes
	total time  =          1 seconds =       0.02 minutes
Total time:
	user time   =      37.49 seconds =       0.62 minutes
	system time =       8.90 seconds =       0.15 minutes
	total time  =          5 seconds =       0.08 minutes

*** tstart() called on Joses-MacBook-Pro-2.local
*** at Thu Jul 17 15:05:33 2025


         ------------------------------------------------------------
                                   SCF GRAD                          
                          Rob Parrish, Justin Turney,                
                       Andy Simmonett, and Alex Sokolov              
         ------------------------------------------------------------

  ==> Geometry <==

    Molecular point group: c2v
    Full point group: C_inf_v

    Geometry (in Angstrom), charge = 1, multiplicity = 2:

       Center              X                  Y                   Z               Mass       
    ------------   -----------------  -----------------  -----------------  -----------------
         MG           0.000000000000     0.000000000000     0.652121513100    23.985041697000
         SI           0.000000000000     0.000000000000    -0.559073623182    27.976926534650

  Nuclear repulsion =   73.400039951856229

  ==> Basis Set <==

  Basis Set: CC-PVDZ
    Blend: CC-PVDZ
    Number of shells: 16
    Number of basis functions: 36
    Number of Cartesian functions: 38
    Spherical Harmonics?: true
    Max angular momentum: 2

  ==> DFJKGrad: Density-Fitted SCF Gradients <==

    Gradient:                    1
    J tasked:                  Yes
    K tasked:                  Yes
    wK tasked:                  No
    OpenMP threads:              1
    Integrals threads:           1
    Memory [MiB]:              375
    Schwarz Cutoff:          1E-12
    Fitting Condition:       1E-10

   => Auxiliary Basis Set <=

  Basis Set: (CC-PVDZ AUX)
    Blend: CC-PVDZ-JKFIT + DEF2-UNIVERSAL-JKFIT
    Number of shells: 70
    Number of basis functions: 224
    Number of Cartesian functions: 267
    Spherical Harmonics?: true
    Max angular momentum: 4

  ==> DFT Potential <==

   => LibXC <=

    Version 6.2.2
    S. Lehtola, C. Steigemann, M. J.T. Oliveira, and M. A.L. Marques.,  SoftwareX 7, 1–5 (2018) (10.1016/j.softx.2017.11.002)

   => Composite Functional: B3LYP <= 

    B3LYP Hyb-GGA Exchange-Correlation Functional

    P. J. Stephens, F. J. Devlin, C. F. Chabalowski, and M. J. Frisch.,  J. Phys. Chem. 98, 11623 (1994) (10.1021/j100096a001)

    Deriv               =              1
    GGA                 =           TRUE
    Meta                =          FALSE

    Exchange Hybrid     =           TRUE
    MP2 Hybrid          =          FALSE

   => Exchange Functionals <=

    0.0800   Slater exchange
    0.7200         Becke 88

   => Exact (HF) Exchange <=

    0.2000               HF 

   => Correlation Functionals <=

    0.1900   Vosko, Wilk & Nusair (VWN5_RPA)
    0.8100   Lee, Yang & Parr

   => LibXC Density Thresholds  <==

    XC_HYB_GGA_XC_B3LYP:  1.00E-15 

   => Molecular Quadrature <=

    Radial Scheme          =       TREUTLER
    Pruning Scheme         =           NONE
    Nuclear Scheme         =       TREUTLER

    Blocking Scheme        =         OCTREE
    BS radius alpha        =              1
    Pruning alpha          =              1
    Radial Points          =             75
    Spherical Points       =            302
    Total Points           =          42813
    Total Blocks           =            418
    Max Points             =            254
    Max Functions          =             36
    Weights Tolerance      =       1.00E-15


  -Total Gradient:
     Atom            X                  Y                   Z
    ------   -----------------  -----------------  -----------------
       1       -0.000000000000     0.000000000000    -1.490110940085
       2       -0.000000000000     0.000000000000     1.490223684679


*** tstop() called on Joses-MacBook-Pro-2.local at Thu Jul 17 15:05:33 2025
Module time:
	user time   =       2.73 seconds =       0.05 minutes
	system time =       1.31 seconds =       0.02 minutes
	total time  =          0 seconds =       0.00 minutes
Total time:
	user time   =      40.22 seconds =       0.67 minutes
	system time =      10.21 seconds =       0.17 minutes
	total time  =          5 seconds =       0.08 minutes

    			-----------------------------------------

    			 OPTKING 3.0: for geometry optimizations 

    			     By R.A. King, Bethel University     

    			        with contributions from          

    			    A.V. Copan, J. Cayton, A. Heide      

    			-----------------------------------------

    
	                            ===> Fragment 1 <== 

	 Z (Atomic Numbers)          Masses                          Geom                  
	      12.000000            23.985042          0.00000000  0.00000000  1.23233106   
	      14.000000            27.976927          0.00000000  0.00000000 -1.05649603   

	 - Coordinate -           - BOHR/RAD -       - ANG/DEG -
	 R(1,2)           =         2.288827           1.211195


	        --- Internal Coordinate Step in ANG or DEG, aJ/ANG or AJ/DEG ---
	-------------------------------------------------------------------------------
	           Coordinate      Previous         Force          Change          New 
	           ----------      --------        ------          ------        ------
	               R(1,2)       1.21120       12.27708        0.02888       1.24007
	-------------------------------------------------------------------------------

	                                 ==> Convergence Check <==                                  
    
	Measures of convergence in internal coordinates in au.
    
	Criteria marked as inactive (o), active & met (*), and active & unmet ( ).

	----------------------------------------------------------------------------------------------
	   Step    Total Energy     Delta E     Max Force     RMS Force      Max Disp      RMS Disp   
	----------------------------------------------------------------------------------------------
	  Convergence Criteria     1.00e-06 *    3.00e-04 *             o    1.20e-03 *             o
	----------------------------------------------------------------------------------------------
	     3    -488.27554310   -2.12e-02      1.49e+00      1.49e+00 o    5.46e-02      5.46e-02 o  ~
	----------------------------------------------------------------------------------------------

Next Geometry in Ang 
	Fragment 1 (Ang)

	   Mg   0.0000000000   0.0000000000   0.6665592551
	   Si   0.0000000000   0.0000000000  -0.5735113651


    Structure for next step:
    Molecular point group: c2v
    Full point group: C_inf_v

    Geometry (in Angstrom), charge = 1, multiplicity = 2:

    MG           0.000000000000     0.000000000000     0.667668408649
    SI           0.000000000000     0.000000000000    -0.572402211565


Scratch directory: /tmp/
gradient() will perform analytic gradient computation.
   => Libint2 <=

    Primary   basis highest AM E, G, H:  6, 6, 3
    Auxiliary basis highest AM E, G, H:  7, 7, 4
    Onebody   basis highest AM E, G, H:  -, -, -
    Solid Harmonics ordering:            Gaussian

*** tstart() called on Joses-MacBook-Pro-2.local
*** at Thu Jul 17 15:05:33 2025

   => Loading Basis Set <=

    Name: CC-PVDZ
    Role: ORBITAL
    Keyword: BASIS
    atoms 1 entry MG         line   353 file /Users/joseantoniorodriguesromero/anaconda3/share/psi4/basis/cc-pvdz.gbs 
    atoms 2 entry SI         line   478 file /Users/joseantoniorodriguesromero/anaconda3/share/psi4/basis/cc-pvdz.gbs 


         ---------------------------------------------------------
                                   SCF
               by Justin Turney, Rob Parrish, Andy Simmonett
                          and Daniel G. A. Smith
                              UKS Reference
                        1 Threads,    500 MiB Core
         ---------------------------------------------------------

  ==> Geometry <==

    Molecular point group: c2v
    Full point group: C_inf_v

    Geometry (in Angstrom), charge = 1, multiplicity = 2:

       Center              X                  Y                   Z               Mass       
    ------------   -----------------  -----------------  -----------------  -----------------
         MG           0.000000000000     0.000000000000     0.667668408649    23.985041697000
         SI           0.000000000000     0.000000000000    -0.572402211565    27.976926534650

  Running in c2v symmetry.

  Rotational constants: A = ************  B =      0.84888  C =      0.84888 [cm^-1]
  Rotational constants: A = ************  B =  25448.92698  C =  25448.92698 [MHz]
  Nuclear repulsion =   71.690894005048207

  Charge       = 1
  Multiplicity = 2
  Electrons    = 25
  Nalpha       = 13
  Nbeta        = 12

  ==> Algorithm <==

  SCF Algorithm Type is DF.
  DIIS enabled.
  MOM disabled.
  Fractional occupation disabled.
  Guess Type is READ.
  Energy threshold   = 1.00e-08
  Density threshold  = 1.00e-08
  Integral threshold = 1.00e-12

  ==> Primary Basis <==

  Basis Set: CC-PVDZ
    Blend: CC-PVDZ
    Number of shells: 16
    Number of basis functions: 36
    Number of Cartesian functions: 38
    Spherical Harmonics?: true
    Max angular momentum: 2

  ==> DFT Potential <==

   => LibXC <=

    Version 6.2.2
    S. Lehtola, C. Steigemann, M. J.T. Oliveira, and M. A.L. Marques.,  SoftwareX 7, 1–5 (2018) (10.1016/j.softx.2017.11.002)

   => Composite Functional: B3LYP <= 

    B3LYP Hyb-GGA Exchange-Correlation Functional

    P. J. Stephens, F. J. Devlin, C. F. Chabalowski, and M. J. Frisch.,  J. Phys. Chem. 98, 11623 (1994) (10.1021/j100096a001)

    Deriv               =              1
    GGA                 =           TRUE
    Meta                =          FALSE

    Exchange Hybrid     =           TRUE
    MP2 Hybrid          =          FALSE

   => Exchange Functionals <=

    0.0800   Slater exchange
    0.7200         Becke 88

   => Exact (HF) Exchange <=

    0.2000               HF 

   => Correlation Functionals <=

    0.1900   Vosko, Wilk & Nusair (VWN5_RPA)
    0.8100   Lee, Yang & Parr

   => LibXC Density Thresholds  <==

    XC_HYB_GGA_XC_B3LYP:  1.00E-15 

   => Molecular Quadrature <=

    Radial Scheme          =       TREUTLER
    Pruning Scheme         =           NONE
    Nuclear Scheme         =       TREUTLER

    Blocking Scheme        =         OCTREE
    BS radius alpha        =              1
    Pruning alpha          =              1
    Radial Points          =             75
    Spherical Points       =            302
    Total Points           =          42817
    Total Blocks           =            417
    Max Points             =            254
    Max Functions          =             36
    Weights Tolerance      =       1.00E-15

   => Loading Basis Set <=

    Name: (CC-PVDZ AUX)
    Role: JKFIT
    Keyword: DF_BASIS_SCF
    atoms 1 entry MG         line   576 file /Users/joseantoniorodriguesromero/anaconda3/share/psi4/basis/def2-universal-jkfit.gbs 
    atoms 2 entry SI         line   445 file /Users/joseantoniorodriguesromero/anaconda3/share/psi4/basis/cc-pvdz-jkfit.gbs 

   => Loading Basis Set <=

    Name: CC-PVDZ
    Role: ORBITAL
    Keyword: BASIS
    atoms 1 entry MG         line   353 file /Users/joseantoniorodriguesromero/anaconda3/share/psi4/basis/cc-pvdz.gbs 
    atoms 2 entry SI         line   478 file /Users/joseantoniorodriguesromero/anaconda3/share/psi4/basis/cc-pvdz.gbs 

  Reading orbitals from file /tmp/doublet_MgSi.default.75067.180.npy, no projection.

  ==> Integral Setup <==

  DFHelper Memory: AOs need 0.003 GiB; user supplied 0.322 GiB. 
  Using in-core AOs.

  ==> MemDFJK: Density-Fitted J/K Matrices <==

    J tasked:                   Yes
    K tasked:                   Yes
    wK tasked:                   No
    OpenMP threads:               1
    Memory [MiB]:               329
    Algorithm:                 Core
    Schwarz Cutoff:           1E-12
    Mask sparsity (%):       0.0000
    Fitting Condition:        1E-10

   => Auxiliary Basis Set <=

  Basis Set: (CC-PVDZ AUX)
    Blend: CC-PVDZ-JKFIT + DEF2-UNIVERSAL-JKFIT
    Number of shells: 70
    Number of basis functions: 224
    Number of Cartesian functions: 267
    Spherical Harmonics?: true
    Max angular momentum: 4

  Cached 100.0% of DFT collocation blocks in 0.044 [GiB].

  Minimum eigenvalue in the overlap matrix is 6.3788788563E-04.
  Reciprocal condition number of the overlap matrix is 1.8579310691E-04.
    Using symmetric orthogonalization.

  ==> Pre-Iterations <==

  SCF Guess: Orbitals guess was supplied from a previous computation.

   -------------------------------------------------------
    Irrep   Nso     Nmo     Nalpha   Nbeta   Ndocc  Nsocc
   -------------------------------------------------------
     A1        18      18       7       7       7       0
     A2         2       2       0       0       0       0
     B1         8       8       3       2       2       1
     B2         8       8       3       3       3       0
   -------------------------------------------------------
    Total      36      36      13      12      12       1
   -------------------------------------------------------

  ==> Iterations <==

                           Total Energy        Delta E     RMS |[F,P]|

   @DF-UKS iter   0:  -488.35249943342228   -4.88352e+02   5.41605e-03 
   @DF-UKS iter   1:  -488.35292309008918   -4.23657e-04   3.24060e-04 DIIS/ADIIS
   @DF-UKS iter   2:  -488.35293751997796   -1.44299e-05   1.15223e-04 DIIS/ADIIS/DAMP=1%
   @DF-UKS iter   3:  -488.35310637965483   -1.68860e-04   2.63190e-05 DIIS/DAMP=1%
   @DF-UKS iter   4:  -488.35292997407697    1.76406e-04   5.29382e-06 DIIS/DAMP=1%
   @DF-UKS iter   5:  -488.35293723364305   -7.25957e-06   4.72481e-07 DIIS/DAMP=1%
   @DF-UKS iter   6:  -488.35294230035328   -5.06671e-06   8.59401e-08 DIIS/DAMP=1%
   @DF-UKS iter   7:  -488.35294184162552    4.58728e-07   2.23273e-08 DIIS/DAMP=1%
   @DF-UKS iter   8:  -488.35294184421758   -2.59206e-09   6.89816e-09 DIIS/DAMP=1%
  Energy and wave function converged.


  ==> Post-Iterations <==

   Electrons on quadrature grid:
      Nalpha   =   12.9999977482 ; deviation = -2.252e-06
      Nbeta    =   11.9999979517 ; deviation = -2.048e-06
      Ntotal   =   24.9999956999 ; deviation = -4.300e-06 

   @Spin Contamination Metric:   5.315819002E-03
   @S^2 Expected:                7.500000000E-01
   @S^2 Observed:                7.553158190E-01
   @S   Expected:                5.000000000E-01
   @S   Observed:                5.000000000E-01

    Orbital Energies [Eh]
    ---------------------

    Alpha Occupied:                                                       

       1A1   -66.473334     2A1   -47.321021     3A1    -5.666776  
       4A1    -4.066656     1B1    -4.007574     1B2    -3.993756  
       5A1    -3.642365     6A1    -2.422097     2B1    -2.370679  
       2B2    -2.361855     7A1    -0.703668     3B1    -0.490681  
       3B2    -0.451006  

    Alpha Virtual:                                                        

       8A1    -0.382836     9A1    -0.237326     4B1    -0.180439  
       4B2    -0.169084    10A1    -0.120852     5B1    -0.073388  
      11A1    -0.064314     5B2    -0.062300     1A2    -0.037379  
      12A1    -0.036342     6B1     0.082524     6B2     0.094794  
      13A1     0.120090    14A1     0.134865     7B1     0.195211  
       7B2     0.216335    15A1     0.252796     2A2     0.266900  
      16A1     0.271125     8B1     0.479118     8B2     0.497240  
      17A1     0.717069    18A1     2.386245  

    Beta Occupied:                                                        

       1A1   -66.469857     2A1   -47.319094     3A1    -5.662847  
       4A1    -4.064637     1B1    -3.994813     1B2    -3.991567  
       5A1    -3.639813     6A1    -2.420318     2B1    -2.362986  
       2B2    -2.360635     7A1    -0.665414     3B2    -0.440143  

    Beta Virtual:                                                         

       8A1    -0.377575     3B1    -0.373231     9A1    -0.230709  
       4B2    -0.168966     4B1    -0.163289    10A1    -0.117690  
      11A1    -0.063129     5B2    -0.061236     5B1    -0.059615  
       1A2    -0.011072    12A1    -0.007630     6B2     0.095951  
       6B1     0.098284    13A1     0.125398    14A1     0.142972  
       7B2     0.217169     7B1     0.219964    15A1     0.266152  
       2A2     0.287265    16A1     0.290287     8B2     0.498850  
       8B1     0.499769    17A1     0.725821    18A1     2.393903  

    Final Occupation by Irrep:
             A1    A2    B1    B2 
    DOCC [     7,    0,    2,    3 ]
    SOCC [     0,    0,    1,    0 ]
    NA   [     7,    0,    3,    3 ]
    NB   [     7,    0,    2,    3 ]

  @DF-UKS Final Energy:  -488.35294184421758

   => Energetics <=

    Nuclear Repulsion Energy =             71.6908940050482073
    One-Electron Energy =                -811.1934981989502376
    Two-Electron Energy =                 281.3460348973287637
    DFT Exchange-Correlation Energy =     -30.1963725476443443
    Empirical Dispersion Energy =           0.0000000000000000
    VV10 Nonlocal Energy =                  0.0000000000000000
    Total Energy =                       -488.3529418442175825

  UHF NO Occupations:
  HONO-2 :    3 B2 1.9998587
  HONO-1 :    7 A1 1.9974811
  HONO-0 :    3 B1 1.0000000
  LUNO+0 :    8 A1 0.0025189
  LUNO+1 :    4 B2 0.0001413
  LUNO+2 :    4 B1 0.0000006
  LUNO+3 :    9 A1 0.0000002


Computation Completed


Properties will be evaluated at   0.000000,   0.000000,   0.000000 [a0]

Properties computed using the SCF density matrix


 Multipole Moments:

 ------------------------------------------------------------------------------------
     Multipole            Electronic (a.u.)      Nuclear  (a.u.)        Total (a.u.)
 ------------------------------------------------------------------------------------

 L = 1.  Multiply by 2.5417464519 to convert [e a0] to [Debye]
 Dipole X            :          0.0000000            0.0000000            0.0000000
 Dipole Y            :          0.0000000            0.0000000            0.0000000
 Dipole Z            :          1.2252488           -0.0030426            1.2222062
 Magnitude           :                                                    1.2222062

 ------------------------------------------------------------------------------------

*** tstop() called on Joses-MacBook-Pro-2.local at Thu Jul 17 15:05:34 2025
Module time:
	user time   =       6.79 seconds =       0.11 minutes
	system time =       2.20 seconds =       0.04 minutes
	total time  =          1 seconds =       0.02 minutes
Total time:
	user time   =      47.25 seconds =       0.79 minutes
	system time =      12.41 seconds =       0.21 minutes
	total time  =          6 seconds =       0.10 minutes

*** tstart() called on Joses-MacBook-Pro-2.local
*** at Thu Jul 17 15:05:34 2025


         ------------------------------------------------------------
                                   SCF GRAD                          
                          Rob Parrish, Justin Turney,                
                       Andy Simmonett, and Alex Sokolov              
         ------------------------------------------------------------

  ==> Geometry <==

    Molecular point group: c2v
    Full point group: C_inf_v

    Geometry (in Angstrom), charge = 1, multiplicity = 2:

       Center              X                  Y                   Z               Mass       
    ------------   -----------------  -----------------  -----------------  -----------------
         MG           0.000000000000     0.000000000000     0.667668408649    23.985041697000
         SI           0.000000000000     0.000000000000    -0.572402211565    27.976926534650

  Nuclear repulsion =   71.690894005048207

  ==> Basis Set <==

  Basis Set: CC-PVDZ
    Blend: CC-PVDZ
    Number of shells: 16
    Number of basis functions: 36
    Number of Cartesian functions: 38
    Spherical Harmonics?: true
    Max angular momentum: 2

  ==> DFJKGrad: Density-Fitted SCF Gradients <==

    Gradient:                    1
    J tasked:                  Yes
    K tasked:                  Yes
    wK tasked:                  No
    OpenMP threads:              1
    Integrals threads:           1
    Memory [MiB]:              375
    Schwarz Cutoff:          1E-12
    Fitting Condition:       1E-10

   => Auxiliary Basis Set <=

  Basis Set: (CC-PVDZ AUX)
    Blend: CC-PVDZ-JKFIT + DEF2-UNIVERSAL-JKFIT
    Number of shells: 70
    Number of basis functions: 224
    Number of Cartesian functions: 267
    Spherical Harmonics?: true
    Max angular momentum: 4

  ==> DFT Potential <==

   => LibXC <=

    Version 6.2.2
    S. Lehtola, C. Steigemann, M. J.T. Oliveira, and M. A.L. Marques.,  SoftwareX 7, 1–5 (2018) (10.1016/j.softx.2017.11.002)

   => Composite Functional: B3LYP <= 

    B3LYP Hyb-GGA Exchange-Correlation Functional

    P. J. Stephens, F. J. Devlin, C. F. Chabalowski, and M. J. Frisch.,  J. Phys. Chem. 98, 11623 (1994) (10.1021/j100096a001)

    Deriv               =              1
    GGA                 =           TRUE
    Meta                =          FALSE

    Exchange Hybrid     =           TRUE
    MP2 Hybrid          =          FALSE

   => Exchange Functionals <=

    0.0800   Slater exchange
    0.7200         Becke 88

   => Exact (HF) Exchange <=

    0.2000               HF 

   => Correlation Functionals <=

    0.1900   Vosko, Wilk & Nusair (VWN5_RPA)
    0.8100   Lee, Yang & Parr

   => LibXC Density Thresholds  <==

    XC_HYB_GGA_XC_B3LYP:  1.00E-15 

   => Molecular Quadrature <=

    Radial Scheme          =       TREUTLER
    Pruning Scheme         =           NONE
    Nuclear Scheme         =       TREUTLER

    Blocking Scheme        =         OCTREE
    BS radius alpha        =              1
    Pruning alpha          =              1
    Radial Points          =             75
    Spherical Points       =            302
    Total Points           =          42817
    Total Blocks           =            417
    Max Points             =            254
    Max Functions          =             36
    Weights Tolerance      =       1.00E-15


  -Total Gradient:
     Atom            X                  Y                   Z
    ------   -----------------  -----------------  -----------------
       1       -0.000000000000     0.000000000000    -1.349715515607
       2        0.000000000000    -0.000000000000     1.349698657267


*** tstop() called on Joses-MacBook-Pro-2.local at Thu Jul 17 15:05:35 2025
Module time:
	user time   =       2.77 seconds =       0.05 minutes
	system time =       1.10 seconds =       0.02 minutes
	total time  =          1 seconds =       0.02 minutes
Total time:
	user time   =      50.02 seconds =       0.83 minutes
	system time =      13.51 seconds =       0.23 minutes
	total time  =          7 seconds =       0.12 minutes

    			-----------------------------------------

    			 OPTKING 3.0: for geometry optimizations 

    			     By R.A. King, Bethel University     

    			        with contributions from          

    			    A.V. Copan, J. Cayton, A. Heide      

    			-----------------------------------------

    
	                            ===> Fragment 1 <== 

	 Z (Atomic Numbers)          Masses                          Geom                  
	      12.000000            23.985042          0.00000000  0.00000000  1.26171043   
	      14.000000            27.976927          0.00000000  0.00000000 -1.08168341   

	 - Coordinate -           - BOHR/RAD -       - ANG/DEG -
	 R(1,2)           =         2.343394           1.240071


	        --- Internal Coordinate Step in ANG or DEG, aJ/ANG or AJ/DEG ---
	-------------------------------------------------------------------------------
	           Coordinate      Previous         Force          Change          New 
	           ----------      --------        ------          ------        ------
	               R(1,2)       1.24007       11.11986        0.18438       1.42445
	-------------------------------------------------------------------------------

	                                 ==> Convergence Check <==                                  
    
	Measures of convergence in internal coordinates in au.
    
	Criteria marked as inactive (o), active & met (*), and active & unmet ( ).

	----------------------------------------------------------------------------------------------
	   Step    Total Energy     Delta E     Max Force     RMS Force      Max Disp      RMS Disp   
	----------------------------------------------------------------------------------------------
	  Convergence Criteria     1.00e-06 *    3.00e-04 *             o    1.20e-03 *             o
	----------------------------------------------------------------------------------------------
	     4    -488.35294184   -7.74e-02      1.35e+00      1.35e+00 o    3.48e-01      3.48e-01 o  ~
	----------------------------------------------------------------------------------------------

Next Geometry in Ang 
	Fragment 1 (Ang)

	   Mg   0.0000000000   0.0000000000   0.7598576228
	   Si   0.0000000000   0.0000000000  -0.6645914257


    Structure for next step:
    Molecular point group: c2v
    Full point group: C_inf_v

    Geometry (in Angstrom), charge = 1, multiplicity = 2:

    MG           0.000000000000     0.000000000000     0.766939893513
    SI           0.000000000000     0.000000000000    -0.657509154990


Scratch directory: /tmp/
gradient() will perform analytic gradient computation.
   => Libint2 <=

    Primary   basis highest AM E, G, H:  6, 6, 3
    Auxiliary basis highest AM E, G, H:  7, 7, 4
    Onebody   basis highest AM E, G, H:  -, -, -
    Solid Harmonics ordering:            Gaussian

*** tstart() called on Joses-MacBook-Pro-2.local
*** at Thu Jul 17 15:05:35 2025

   => Loading Basis Set <=

    Name: CC-PVDZ
    Role: ORBITAL
    Keyword: BASIS
    atoms 1 entry MG         line   353 file /Users/joseantoniorodriguesromero/anaconda3/share/psi4/basis/cc-pvdz.gbs 
    atoms 2 entry SI         line   478 file /Users/joseantoniorodriguesromero/anaconda3/share/psi4/basis/cc-pvdz.gbs 


         ---------------------------------------------------------
                                   SCF
               by Justin Turney, Rob Parrish, Andy Simmonett
                          and Daniel G. A. Smith
                              UKS Reference
                        1 Threads,    500 MiB Core
         ---------------------------------------------------------

  ==> Geometry <==

    Molecular point group: c2v
    Full point group: C_inf_v

    Geometry (in Angstrom), charge = 1, multiplicity = 2:

       Center              X                  Y                   Z               Mass       
    ------------   -----------------  -----------------  -----------------  -----------------
         MG           0.000000000000     0.000000000000     0.766939893513    23.985041697000
         SI           0.000000000000     0.000000000000    -0.657509154990    27.976926534650

  Running in c2v symmetry.

  Rotational constants: A = ************  B =      0.64335  C =      0.64335 [cm^-1]
  Rotational constants: A = ************  B =  19287.16844  C =  19287.16844 [MHz]
  Nuclear repulsion =   62.411338254581175

  Charge       = 1
  Multiplicity = 2
  Electrons    = 25
  Nalpha       = 13
  Nbeta        = 12

  ==> Algorithm <==

  SCF Algorithm Type is DF.
  DIIS enabled.
  MOM disabled.
  Fractional occupation disabled.
  Guess Type is READ.
  Energy threshold   = 1.00e-08
  Density threshold  = 1.00e-08
  Integral threshold = 1.00e-12

  ==> Primary Basis <==

  Basis Set: CC-PVDZ
    Blend: CC-PVDZ
    Number of shells: 16
    Number of basis functions: 36
    Number of Cartesian functions: 38
    Spherical Harmonics?: true
    Max angular momentum: 2

  ==> DFT Potential <==

   => LibXC <=

    Version 6.2.2
[...]
	   Step    Total Energy     Delta E     Max Force     RMS Force      Max Disp      RMS Disp   
	----------------------------------------------------------------------------------------------
	  Convergence Criteria     1.00e-06 *    3.00e-04 *             o    1.20e-03 *             o
	----------------------------------------------------------------------------------------------
	    15    -489.26380526   -2.08e-06      9.95e-05 *    9.95e-05 o    2.17e-03      2.17e-03 o  ~
	----------------------------------------------------------------------------------------------

Next Geometry in Ang 
	Fragment 1 (Ang)

	   Mg   0.0000000000   0.0000000000   1.4730271834
	   Si   0.0000000000   0.0000000000  -1.2629305300


    Structure for next step:
    Molecular point group: c2v
    Full point group: C_inf_v

    Geometry (in Angstrom), charge = 1, multiplicity = 2:

    MG           0.000000000000     0.000000000000     1.473071374214
    SI           0.000000000000     0.000000000000    -1.262886339192


Scratch directory: /tmp/
gradient() will perform analytic gradient computation.
   => Libint2 <=

    Primary   basis highest AM E, G, H:  6, 6, 3
    Auxiliary basis highest AM E, G, H:  7, 7, 4
    Onebody   basis highest AM E, G, H:  -, -, -
    Solid Harmonics ordering:            Gaussian

*** tstart() called on Joses-MacBook-Pro-2.local
*** at Thu Jul 17 15:05:50 2025

   => Loading Basis Set <=

    Name: CC-PVDZ
    Role: ORBITAL
    Keyword: BASIS
    atoms 1 entry MG         line   353 file /Users/joseantoniorodriguesromero/anaconda3/share/psi4/basis/cc-pvdz.gbs 
    atoms 2 entry SI         line   478 file /Users/joseantoniorodriguesromero/anaconda3/share/psi4/basis/cc-pvdz.gbs 


         ---------------------------------------------------------
                                   SCF
               by Justin Turney, Rob Parrish, Andy Simmonett
                          and Daniel G. A. Smith
                              UKS Reference
                        1 Threads,    500 MiB Core
         ---------------------------------------------------------

  ==> Geometry <==

    Molecular point group: c2v
    Full point group: C_inf_v

    Geometry (in Angstrom), charge = 1, multiplicity = 2:

       Center              X                  Y                   Z               Mass       
    ------------   -----------------  -----------------  -----------------  -----------------
         MG           0.000000000000     0.000000000000     1.473071374214    23.985041697000
         SI           0.000000000000     0.000000000000    -1.262886339192    27.976926534650

  Running in c2v symmetry.

  Rotational constants: A = ************  B =      0.17439  C =      0.17439 [cm^-1]
  Rotational constants: A = ************  B =   5228.09597  C =   5228.09597 [MHz]
  Nuclear repulsion =   32.493839709930768

  Charge       = 1
  Multiplicity = 2
  Electrons    = 25
  Nalpha       = 13
  Nbeta        = 12

  ==> Algorithm <==

  SCF Algorithm Type is DF.
  DIIS enabled.
  MOM disabled.
  Fractional occupation disabled.
  Guess Type is READ.
  Energy threshold   = 1.00e-08
  Density threshold  = 1.00e-08
  Integral threshold = 1.00e-12

  ==> Primary Basis <==

  Basis Set: CC-PVDZ
    Blend: CC-PVDZ
    Number of shells: 16
    Number of basis functions: 36
    Number of Cartesian functions: 38
    Spherical Harmonics?: true
    Max angular momentum: 2

  ==> DFT Potential <==

   => LibXC <=

    Version 6.2.2
    S. Lehtola, C. Steigemann, M. J.T. Oliveira, and M. A.L. Marques.,  SoftwareX 7, 1–5 (2018) (10.1016/j.softx.2017.11.002)

   => Composite Functional: B3LYP <= 

    B3LYP Hyb-GGA Exchange-Correlation Functional

    P. J. Stephens, F. J. Devlin, C. F. Chabalowski, and M. J. Frisch.,  J. Phys. Chem. 98, 11623 (1994) (10.1021/j100096a001)

    Deriv               =              1
    GGA                 =           TRUE
    Meta                =          FALSE

    Exchange Hybrid     =           TRUE
    MP2 Hybrid          =          FALSE

   => Exchange Functionals <=

    0.0800   Slater exchange
    0.7200         Becke 88

   => Exact (HF) Exchange <=

    0.2000               HF 

   => Correlation Functionals <=

    0.1900   Vosko, Wilk & Nusair (VWN5_RPA)
    0.8100   Lee, Yang & Parr

   => LibXC Density Thresholds  <==

    XC_HYB_GGA_XC_B3LYP:  1.00E-15 

   => Molecular Quadrature <=

    Radial Scheme          =       TREUTLER
    Pruning Scheme         =           NONE
    Nuclear Scheme         =       TREUTLER

    Blocking Scheme        =         OCTREE
    BS radius alpha        =              1
    Pruning alpha          =              1
    Radial Points          =             75
    Spherical Points       =            302
    Total Points           =          42954
    Total Blocks           =            420
    Max Points             =            255
    Max Functions          =             36
    Weights Tolerance      =       1.00E-15

   => Loading Basis Set <=

    Name: (CC-PVDZ AUX)
    Role: JKFIT
    Keyword: DF_BASIS_SCF
    atoms 1 entry MG         line   576 file /Users/joseantoniorodriguesromero/anaconda3/share/psi4/basis/def2-universal-jkfit.gbs 
    atoms 2 entry SI         line   445 file /Users/joseantoniorodriguesromero/anaconda3/share/psi4/basis/cc-pvdz-jkfit.gbs 

   => Loading Basis Set <=

    Name: CC-PVDZ
    Role: ORBITAL
    Keyword: BASIS
    atoms 1 entry MG         line   353 file /Users/joseantoniorodriguesromero/anaconda3/share/psi4/basis/cc-pvdz.gbs 
    atoms 2 entry SI         line   478 file /Users/joseantoniorodriguesromero/anaconda3/share/psi4/basis/cc-pvdz.gbs 

  Reading orbitals from file /tmp/doublet_MgSi.default.75067.180.npy, no projection.

  ==> Integral Setup <==

  DFHelper Memory: AOs need 0.003 GiB; user supplied 0.322 GiB. 
  Using in-core AOs.

  ==> MemDFJK: Density-Fitted J/K Matrices <==

    J tasked:                   Yes
    K tasked:                   Yes
    wK tasked:                   No
    OpenMP threads:               1
    Memory [MiB]:               330
    Algorithm:                 Core
    Schwarz Cutoff:           1E-12
    Mask sparsity (%):       0.0000
    Fitting Condition:        1E-10

   => Auxiliary Basis Set <=

  Basis Set: (CC-PVDZ AUX)
    Blend: CC-PVDZ-JKFIT + DEF2-UNIVERSAL-JKFIT
    Number of shells: 70
    Number of basis functions: 224
    Number of Cartesian functions: 267
    Spherical Harmonics?: true
    Max angular momentum: 4

  Cached 100.0% of DFT collocation blocks in 0.044 [GiB].

  Minimum eigenvalue in the overlap matrix is 2.8247365876E-02.
  Reciprocal condition number of the overlap matrix is 8.8807023302E-03.
    Using symmetric orthogonalization.

  ==> Pre-Iterations <==

  SCF Guess: Orbitals guess was supplied from a previous computation.

   -------------------------------------------------------
    Irrep   Nso     Nmo     Nalpha   Nbeta   Ndocc  Nsocc
   -------------------------------------------------------
     A1        18      18       8       8       8       0
     A2         2       2       0       0       0       0
     B1         8       8       3       2       2       1
     B2         8       8       2       2       2       0
   -------------------------------------------------------
    Total      36      36      13      12      12       1
   -------------------------------------------------------

  ==> Iterations <==

                           Total Energy        Delta E     RMS |[F,P]|

   @DF-UKS iter   0:  -489.26363000770698   -4.89264e+02   3.93444e-05 
   @DF-UKS iter   1:  -489.26380534517989   -1.75337e-04   4.52432e-06 DIIS
   @DF-UKS iter   2:  -489.26380534559667   -4.16776e-10   4.37492e-06 DIIS/DAMP=1%
   @DF-UKS iter   3:  -489.26380760875048   -2.26315e-06   1.41438e-06 DIIS/DAMP=1%
   @DF-UKS iter   4:  -489.26380401229648    3.59645e-06   1.21307e-07 DIIS/DAMP=1%
   @DF-UKS iter   5:  -489.26380539883655   -1.38654e-06   7.45893e-08 DIIS/DAMP=1%
   @DF-UKS iter   6:  -489.26380532305325    7.57833e-08   4.45929e-08 DIIS/DAMP=1%
   @DF-UKS iter   7:  -489.26380538791784   -6.48646e-08   1.79570e-08 DIIS/DAMP=1%
   @DF-UKS iter   8:  -489.26380535059752    3.73203e-08   1.90681e-09 DIIS/DAMP=1%
   @DF-UKS iter   9:  -489.26380535855884   -7.96132e-09   1.94024e-10 DIIS/DAMP=1%
  Energy and wave function converged.


  ==> Post-Iterations <==

   Electrons on quadrature grid:
      Nalpha   =   13.0000015941 ; deviation = 1.594e-06
      Nbeta    =   12.0000011417 ; deviation = 1.142e-06
      Ntotal   =   25.0000027359 ; deviation = 2.736e-06 

   @Spin Contamination Metric:   1.692003819E-02
   @S^2 Expected:                7.500000000E-01
   @S^2 Observed:                7.669200382E-01
   @S   Expected:                5.000000000E-01
   @S   Observed:                5.000000000E-01

    Orbital Energies [Eh]
    ---------------------

    Alpha Occupied:                                                       

       1A1   -66.389163     2A1   -47.082537     3A1    -5.527543  
       1B2    -3.889393     1B1    -3.885411     4A1    -3.883346  
       5A1    -3.358549     2B2    -2.102673     2B1    -2.102345  
       6A1    -2.101276     7A1    -0.654020     8A1    -0.427453  
       3B1    -0.385029  

    Alpha Virtual:                                                        

       3B2    -0.319257     9A1    -0.299331     4B1    -0.202624  
       4B2    -0.200835    10A1    -0.141622    11A1    -0.073665  
      12A1    -0.019784     5B2    -0.012096     5B1    -0.011685  
       6B1     0.060830     6B2     0.064384    13A1     0.081848  
       1A2     0.098641    14A1     0.099717     7B1     0.141521  
       7B2     0.148775     2A2     0.166705    15A1     0.170878  
      16A1     0.189103    17A1     0.248748     8B1     0.288814  
       8B2     0.292604    18A1     0.507767  

    Beta Occupied:                                                        

       1A1   -66.385785     2A1   -47.082783     3A1    -5.523759  
       1B2    -3.887492     4A1    -3.880366     1B1    -3.873845  
       5A1    -3.359072     2B2    -2.103072     2B1    -2.102445  
       6A1    -2.101530     7A1    -0.618638     8A1    -0.419306  

    Beta Virtual:                                                         

       3B2    -0.309870     9A1    -0.295948     3B1    -0.280624  
       4B2    -0.203105     4B1    -0.194588    10A1    -0.139185  
      11A1    -0.070139    12A1    -0.016746     5B2    -0.013221  
       5B1    -0.009475     6B2     0.064843     6B1     0.076588  
      13A1     0.086422     1A2     0.102197    14A1     0.102504  
       7B2     0.152796     7B1     0.175152    15A1     0.194246  
       2A2     0.204579    16A1     0.211755    17A1     0.255538  
       8B2     0.296077     8B1     0.315942    18A1     0.519605  

    Final Occupation by Irrep:
             A1    A2    B1    B2 
    DOCC [     8,    0,    2,    2 ]
    SOCC [     0,    0,    1,    0 ]
    NA   [     8,    0,    3,    2 ]
    NB   [     8,    0,    2,    2 ]

  @DF-UKS Final Energy:  -489.26380535855884

   => Energetics <=

    Nuclear Repulsion Energy =             32.4938397099307679
    One-Electron Energy =                -739.0655996213409935
    Two-Electron Energy =                 247.1980777745442595
    DFT Exchange-Correlation Energy =     -29.8901232216928676
    Empirical Dispersion Energy =           0.0000000000000000
    VV10 Nonlocal Energy =                  0.0000000000000000
    Total Energy =                       -489.2638053585588978

  UHF NO Occupations:
  HONO-2 :    7 A1 1.9986567
  HONO-1 :    8 A1 1.9928570
  HONO-0 :    3 B1 1.0000000
  LUNO+0 :    9 A1 0.0071430
  LUNO+1 :   10 A1 0.0013433
  LUNO+2 :    3 B2 0.0000000
  LUNO+3 :    4 B1 0.0000000


Computation Completed


Properties will be evaluated at   0.000000,   0.000000,   0.000000 [a0]

Properties computed using the SCF density matrix


 Multipole Moments:

 ------------------------------------------------------------------------------------
     Multipole            Electronic (a.u.)      Nuclear  (a.u.)        Total (a.u.)
 ------------------------------------------------------------------------------------

 L = 1.  Multiply by 2.5417464519 to convert [e a0] to [Debye]
 Dipole X            :          0.0000000            0.0000000            0.0000000
 Dipole Y            :          0.0000000            0.0000000            0.0000000
 Dipole Z            :          1.5408761           -0.0067128            1.5341633
 Magnitude           :                                                    1.5341633

 ------------------------------------------------------------------------------------

*** tstop() called on Joses-MacBook-Pro-2.local at Thu Jul 17 15:05:51 2025
Module time:
	user time   =       7.35 seconds =       0.12 minutes
	system time =       2.04 seconds =       0.03 minutes
	total time  =          1 seconds =       0.02 minutes
Total time:
	user time   =     188.48 seconds =       3.14 minutes
	system time =      53.81 seconds =       0.90 minutes
	total time  =         23 seconds =       0.38 minutes

*** tstart() called on Joses-MacBook-Pro-2.local
*** at Thu Jul 17 15:05:51 2025


         ------------------------------------------------------------
                                   SCF GRAD                          
                          Rob Parrish, Justin Turney,                
                       Andy Simmonett, and Alex Sokolov              
         ------------------------------------------------------------

  ==> Geometry <==

    Molecular point group: c2v
    Full point group: C_inf_v

    Geometry (in Angstrom), charge = 1, multiplicity = 2:

       Center              X                  Y                   Z               Mass       
    ------------   -----------------  -----------------  -----------------  -----------------
         MG           0.000000000000     0.000000000000     1.473071374214    23.985041697000
         SI           0.000000000000     0.000000000000    -1.262886339192    27.976926534650

  Nuclear repulsion =   32.493839709930768

  ==> Basis Set <==

  Basis Set: CC-PVDZ
    Blend: CC-PVDZ
    Number of shells: 16
    Number of basis functions: 36
    Number of Cartesian functions: 38
    Spherical Harmonics?: true
    Max angular momentum: 2

  ==> DFJKGrad: Density-Fitted SCF Gradients <==

    Gradient:                    1
    J tasked:                  Yes
    K tasked:                  Yes
    wK tasked:                  No
    OpenMP threads:              1
    Integrals threads:           1
    Memory [MiB]:              375
    Schwarz Cutoff:          1E-12
    Fitting Condition:       1E-10

   => Auxiliary Basis Set <=

  Basis Set: (CC-PVDZ AUX)
    Blend: CC-PVDZ-JKFIT + DEF2-UNIVERSAL-JKFIT
    Number of shells: 70
    Number of basis functions: 224
    Number of Cartesian functions: 267
    Spherical Harmonics?: true
    Max angular momentum: 4

  ==> DFT Potential <==

   => LibXC <=

    Version 6.2.2
    S. Lehtola, C. Steigemann, M. J.T. Oliveira, and M. A.L. Marques.,  SoftwareX 7, 1–5 (2018) (10.1016/j.softx.2017.11.002)

   => Composite Functional: B3LYP <= 

    B3LYP Hyb-GGA Exchange-Correlation Functional

    P. J. Stephens, F. J. Devlin, C. F. Chabalowski, and M. J. Frisch.,  J. Phys. Chem. 98, 11623 (1994) (10.1021/j100096a001)

    Deriv               =              1
    GGA                 =           TRUE
    Meta                =          FALSE

    Exchange Hybrid     =           TRUE
    MP2 Hybrid          =          FALSE

   => Exchange Functionals <=

    0.0800   Slater exchange
    0.7200         Becke 88

   => Exact (HF) Exchange <=

    0.2000               HF 

   => Correlation Functionals <=

    0.1900   Vosko, Wilk & Nusair (VWN5_RPA)
    0.8100   Lee, Yang & Parr

   => LibXC Density Thresholds  <==

    XC_HYB_GGA_XC_B3LYP:  1.00E-15 

   => Molecular Quadrature <=

    Radial Scheme          =       TREUTLER
    Pruning Scheme         =           NONE
    Nuclear Scheme         =       TREUTLER

    Blocking Scheme        =         OCTREE
    BS radius alpha        =              1
    Pruning alpha          =              1
    Radial Points          =             75
    Spherical Points       =            302
    Total Points           =          42954
    Total Blocks           =            420
    Max Points             =            255
    Max Functions          =             36
    Weights Tolerance      =       1.00E-15


  -Total Gradient:
     Atom            X                  Y                   Z
    ------   -----------------  -----------------  -----------------
       1       -0.000000000000     0.000000000000    -0.000014930371
       2        0.000000000000    -0.000000000000     0.000034216968


*** tstop() called on Joses-MacBook-Pro-2.local at Thu Jul 17 15:05:52 2025
Module time:
	user time   =       2.98 seconds =       0.05 minutes
	system time =       1.01 seconds =       0.02 minutes
	total time  =          1 seconds =       0.02 minutes
Total time:
	user time   =     191.46 seconds =       3.19 minutes
	system time =      54.83 seconds =       0.91 minutes
	total time  =         24 seconds =       0.40 minutes

    			-----------------------------------------

    			 OPTKING 3.0: for geometry optimizations 

    			     By R.A. King, Bethel University     

    			        with contributions from          

    			    A.V. Copan, J. Cayton, A. Heide      

    			-----------------------------------------

    
	                            ===> Fragment 1 <== 

	 Z (Atomic Numbers)          Masses                          Geom                  
	      12.000000            23.985042          0.00000000  0.00000000  2.78370146   
	      14.000000            27.976927          0.00000000  0.00000000 -2.38650931   

	 - Coordinate -           - BOHR/RAD -       - ANG/DEG -
	 R(1,2)           =         5.170211           2.735958


	        --- Internal Coordinate Step in ANG or DEG, aJ/ANG or AJ/DEG ---
	-------------------------------------------------------------------------------
	           Coordinate      Previous         Force          Change          New 
	           ----------      --------        ------          ------        ------
	               R(1,2)       2.73596        0.00020        0.00034       2.73630
	-------------------------------------------------------------------------------

	                                 ==> Convergence Check <==                                  
    
	Measures of convergence in internal coordinates in au.
    
	Criteria marked as inactive (o), active & met (*), and active & unmet ( ).

	----------------------------------------------------------------------------------------------
	   Step    Total Energy     Delta E     Max Force     RMS Force      Max Disp      RMS Disp   
	----------------------------------------------------------------------------------------------
	  Convergence Criteria     1.00e-06 *    3.00e-04 *             o    1.20e-03 *             o
	----------------------------------------------------------------------------------------------
	    16    -489.26380536   -9.59e-08 *    2.46e-05 *    2.46e-05 o    6.40e-04 *    6.40e-04 o  ~
	----------------------------------------------------------------------------------------------

Next Geometry in Ang 
	Fragment 1 (Ang)

	   Mg   0.0000000000   0.0000000000   1.4732406022
	   Si   0.0000000000   0.0000000000  -1.2630555672


    Final optimized geometry and variables:
    Molecular point group: c2v
    Full point group: C_inf_v

    Geometry (in Angstrom), charge = 1, multiplicity = 2:

    MG           0.000000000000     0.000000000000     1.473071374214
    SI           0.000000000000     0.000000000000    -1.262886339192


    Psi4 stopped on: Thursday, 17 July 2025 03:05PM
    Psi4 wall time for execution: 0:00:23.72

*** Psi4 exiting successfully. Buy a developer a beer!
