
    -----------------------------------------------------------------------
          Psi4: An Open-Source Ab Initio Electronic Structure Package
                               Psi4 1.9.1 release

                         Git: Rev {} zzzzzzz 


    D. G. A. Smith, L. A. Burns, A. C. Simmonett, R. M. Parrish,
    M. C. Schieber, R. Galvelis, P. Kraus, H. Kruse, R. Di Remigio,
    A. Alenaizan, A. M. James, S. Lehtola, J. P. Misiewicz, M. Scheurer,
    R. A. Shaw, J. B. Schriber, Y. Xie, Z. L. Glick, D. A. Sirianni,
    J. S. O'Brien, J. M. Waldrop, A. Kumar, E. G. Hohenstein,
    B. P. Pritchard, B. R. Brooks, H. F. Schaefer III, A. Yu. Sokolov,
    K. Patkowski, A. E. DePrince III, U. Bozkaya, R. A. King,
    F. A. Evangelista, J. M. Turney, T. D. Crawford, C. D. Sherrill,
    J. Chem. Phys. 152(18) 184108 (2020). https://doi.org/10.1063/5.0006002

                            Additional Code Authors
    E. T. Seidl, C. L. Janssen, E. F. Valeev, M. L. Leininger,
    J. F. Gonthier, R. M. Richard, H. R. McAlexander, M. Saitow, X. Wang,
    P. Verma, M. H. Lechner, A. Jiang, S. Behnle, A. G. Heide,
    M. F. Herbst, and D. L. Poole

             Previous Authors, Complete List of Code Contributors,
                       and Citations for Specific Modules
    https://github.com/psi4/psi4/blob/master/codemeta.json
    https://github.com/psi4/psi4/graphs/contributors
    http://psicode.org/psi4manual/master/introduction.html#citing-psifour

    -----------------------------------------------------------------------


    Psi4 started on: Thursday, 17 July 2025 02:24PM

    Process ID: 74675
    Host:       Joses-MacBook-Pro-2.local
    PSIDATADIR: /Users/joseantoniorodriguesromero/anaconda3/share/psi4
    Memory:     500.0 MiB
    Threads:    1
    
  ==> Input File <==

--------------------------------------------------------------------------
molecule { 
1 2
F   0.00000        0.60000        0.00000
F   0.00000       -0.60000        0.00000
}

set { 
basis              cc-pvdz
reference          uks
maxiter            500
geom_maxiter       500
DAMPING_PERCENTAGE 1
guess              SAP
}

optimize('b3lyp')
--------------------------------------------------------------------------

Scratch directory: /tmp/
gradient() will perform analytic gradient computation.
   => Libint2 <=

    Primary   basis highest AM E, G, H:  6, 6, 3
    Auxiliary basis highest AM E, G, H:  7, 7, 4
    Onebody   basis highest AM E, G, H:  -, -, -
    Solid Harmonics ordering:            Gaussian

*** tstart() called on Joses-MacBook-Pro-2.local
*** at Thu Jul 17 14:24:37 2025

   => Loading Basis Set <=

    Name: CC-PVDZ
    Role: ORBITAL
    Keyword: BASIS
    atoms 1-2 entry F          line   228 file /Users/joseantoniorodriguesromero/anaconda3/share/psi4/basis/cc-pvdz.gbs 


         ---------------------------------------------------------
                                   SCF
               by Justin Turney, Rob Parrish, Andy Simmonett
                          and Daniel G. A. Smith
                              UKS Reference
                        1 Threads,    500 MiB Core
         ---------------------------------------------------------

  ==> Geometry <==

    Molecular point group: d2h
    Full point group: D_inf_h

    Geometry (in Angstrom), charge = 1, multiplicity = 2:

       Center              X                  Y                   Z               Mass       
    ------------   -----------------  -----------------  -----------------  -----------------
         F           -0.000000000000     0.600000000000     0.000000000000    18.998403162730
         F            0.000000000000    -0.600000000000     0.000000000000    18.998403162730

  Running in d2h symmetry.

  Rotational constants: A = ************  B =      1.23239  C =      1.23239 [cm^-1]
  Rotational constants: A = ************  B =  36946.01510  C =  36946.01510 [MHz]
  Nuclear repulsion =   35.719461720225006

  Charge       = 1
  Multiplicity = 2
  Electrons    = 17
  Nalpha       = 9
  Nbeta        = 8

  ==> Algorithm <==

  SCF Algorithm Type is DF.
  DIIS enabled.
  MOM disabled.
  Fractional occupation disabled.
  Guess Type is SAP.
  Energy threshold   = 1.00e-08
  Density threshold  = 1.00e-08
  Integral threshold = 1.00e-12

  ==> Primary Basis <==

  Basis Set: CC-PVDZ
    Blend: CC-PVDZ
    Number of shells: 12
    Number of basis functions: 28
    Number of Cartesian functions: 30
    Spherical Harmonics?: true
    Max angular momentum: 2

  ==> DFT Potential <==

   => LibXC <=

    Version 6.2.2
    S. Lehtola, C. Steigemann, M. J.T. Oliveira, and M. A.L. Marques.,  SoftwareX 7, 1–5 (2018) (10.1016/j.softx.2017.11.002)

   => Composite Functional: B3LYP <= 

    B3LYP Hyb-GGA Exchange-Correlation Functional

    P. J. Stephens, F. J. Devlin, C. F. Chabalowski, and M. J. Frisch.,  J. Phys. Chem. 98, 11623 (1994) (10.1021/j100096a001)

    Deriv               =              1
    GGA                 =           TRUE
    Meta                =          FALSE

    Exchange Hybrid     =           TRUE
    MP2 Hybrid          =          FALSE

   => Exchange Functionals <=

    0.0800   Slater exchange
    0.7200         Becke 88

   => Exact (HF) Exchange <=

    0.2000               HF 

   => Correlation Functionals <=

    0.1900   Vosko, Wilk & Nusair (VWN5_RPA)
    0.8100   Lee, Yang & Parr

   => LibXC Density Thresholds  <==

    XC_HYB_GGA_XC_B3LYP:  1.00E-15 

   => Molecular Quadrature <=

    Radial Scheme          =       TREUTLER
    Pruning Scheme         =           NONE
    Nuclear Scheme         =       TREUTLER

    Blocking Scheme        =         OCTREE
    BS radius alpha        =              1
    Pruning alpha          =              1
    Radial Points          =             75
    Spherical Points       =            302
    Total Points           =          41986
    Total Blocks           =            370
    Max Points             =            255
    Max Functions          =             28
    Weights Tolerance      =       1.00E-15

   => Loading Basis Set <=

    Name: (CC-PVDZ AUX)
    Role: JKFIT
    Keyword: DF_BASIS_SCF
    atoms 1-2 entry F          line   271 file /Users/joseantoniorodriguesromero/anaconda3/share/psi4/basis/cc-pvdz-jkfit.gbs 

  ==> Integral Setup <==

  DFHelper Memory: AOs need 0.001 GiB; user supplied 0.333 GiB. 
  Using in-core AOs.

  ==> MemDFJK: Density-Fitted J/K Matrices <==

    J tasked:                   Yes
    K tasked:                   Yes
    wK tasked:                   No
    OpenMP threads:               1
    Memory [MiB]:               340
    Algorithm:                 Core
    Schwarz Cutoff:           1E-12
    Mask sparsity (%):       0.0000
    Fitting Condition:        1E-10

   => Auxiliary Basis Set <=

  Basis Set: (CC-PVDZ AUX)
    Blend: CC-PVDZ-JKFIT
    Number of shells: 48
    Number of basis functions: 140
    Number of Cartesian functions: 162
    Spherical Harmonics?: true
    Max angular momentum: 3

  Cached 100.0% of DFT collocation blocks in 0.034 [GiB].

  Minimum eigenvalue in the overlap matrix is 4.8188064379E-02.
  Reciprocal condition number of the overlap matrix is 1.9794583838E-02.
    Using symmetric orthogonalization.

  ==> Pre-Iterations <==

  SCF Guess: Superposition of Atomic Potentials (doi:10.1021/acs.jctc.8b01089).

  ==> SAP guess <==

   => Molecular Quadrature <=

    Radial Scheme          =       TREUTLER
    Pruning Scheme         =           NONE
    Nuclear Scheme         =       TREUTLER

    Blocking Scheme        =         OCTREE
    BS radius alpha        =              1
    Pruning alpha          =              1
    Radial Points          =             75
    Spherical Points       =            302
    Total Points           =          41986
    Total Blocks           =            370
    Max Points             =            255
    Max Functions          =             28
    Weights Tolerance      =       1.00E-15

   -------------------------------------------------------
    Irrep   Nso     Nmo     Nalpha   Nbeta   Ndocc  Nsocc
   -------------------------------------------------------
     Ag         7       7       3       3       3       0
     B1g        3       3       1       0       0       1
     B2g        1       1       0       0       0       0
     B3g        3       3       1       1       1       0
     Au         1       1       0       0       0       0
     B1u        3       3       1       1       1       0
     B2u        7       7       2       2       2       0
     B3u        3       3       1       1       1       0
   -------------------------------------------------------
    Total      28      28       9       8       8       1
   -------------------------------------------------------

  ==> Iterations <==

                           Total Energy        Delta E     RMS |[F,P]|

   @DF-UKS iter   1:  -198.91654958613606   -1.98917e+02   2.12388e-02 ADIIS/DIIS
   @DF-UKS iter   2:  -198.92640647894711   -9.85689e-03   1.05057e-02 ADIIS/DIIS/DAMP=1%
   @DF-UKS iter   3:  -198.93515873171930   -8.75225e-03   2.07602e-03 ADIIS/DIIS/DAMP=1%
   @DF-UKS iter   4:  -198.93027167505977    4.88706e-03   3.12465e-04 ADIIS/DIIS/DAMP=1%
   @DF-UKS iter   5:  -198.93107843704806   -8.06762e-04   3.34050e-05 DIIS/DAMP=1%
   @DF-UKS iter   6:  -198.93103245485906    4.59822e-05   2.70879e-06 DIIS/DAMP=1%
   @DF-UKS iter   7:  -198.93102816788485    4.28697e-06   4.06683e-07 DIIS/DAMP=1%
   @DF-UKS iter   8:  -198.93102870515139   -5.37267e-07   5.81176e-08 DIIS/DAMP=1%
   @DF-UKS iter   9:  -198.93102859624426    1.08907e-07   7.21924e-09 DIIS/DAMP=1%
   @DF-UKS iter  10:  -198.93102861580437   -1.95601e-08   2.89202e-10 DIIS/DAMP=1%
   @DF-UKS iter  11:  -198.93102861343169    2.37267e-09   2.63796e-11 DIIS/DAMP=1%
  Energy and wave function converged.


  ==> Post-Iterations <==

   Electrons on quadrature grid:
      Nalpha   =    8.9999995824 ; deviation = -4.176e-07
      Nbeta    =    7.9999996682 ; deviation = -3.318e-07
      Ntotal   =   16.9999992506 ; deviation = -7.494e-07 

   @Spin Contamination Metric:   2.144140944E-03
   @S^2 Expected:                7.500000000E-01
   @S^2 Observed:                7.521441409E-01
   @S   Expected:                5.000000000E-01
   @S   Observed:                5.000000000E-01

    Orbital Energies [Eh]
    ---------------------

    Alpha Occupied:                                                       

       1Ag   -25.373161     1B2u  -25.373124     2Ag    -2.038084  
       2B2u   -1.575382     3Ag    -1.153076     1B3u   -1.148471  
       1B1u   -1.097938     1B1g   -0.930438     1B3g   -0.875277  

    Alpha Virtual:                                                        

       3B2u   -0.475394     2B3u    0.564959     4B2u    0.584826  
       2B1u    0.597698     2B1g    0.746989     2B3g    0.775760  
       4Ag     0.781839     5Ag     0.987541     5B2u    1.632386  
       3B3u    2.468049     3B1u    2.506328     6Ag     2.713669  
       1B2g    2.856357     7Ag     2.860318     1Au     3.035585  
       6B2u    3.035627     3B1g    3.542361     3B3g    3.583663  
       7B2u    4.477912  

    Beta Occupied:                                                        

       1Ag   -25.354565     1B2u  -25.354467     2Ag    -2.001699  
       2B2u   -1.522940     3Ag    -1.130518     1B1u   -1.081713  
       1B3u   -1.034789     1B3g   -0.855915  

    Beta Virtual:                                                         

       1B1g   -0.721769     3B2u   -0.450228     4B2u    0.594446  
       2B1u    0.606453     2B3u    0.621359     2B3g    0.783856  
       4Ag     0.792159     2B1g    0.798000     5Ag     1.004172  
       5B2u    1.653768     3B1u    2.513116     3B3u    2.515261  
       6Ag     2.742982     1B2g    2.904945     7Ag     2.907843  
       1Au     3.087364     6B2u    3.090159     3B3g    3.592229  
       3B1g    3.596806     7B2u    4.501271  

    Final Occupation by Irrep:
             Ag   B1g   B2g   B3g    Au   B1u   B2u   B3u 
    DOCC [     3,    0,    0,    1,    0,    1,    2,    1 ]
    SOCC [     0,    1,    0,    0,    0,    0,    0,    0 ]
    NA   [     3,    1,    0,    1,    0,    1,    2,    1 ]
    NB   [     3,    0,    0,    1,    0,    1,    2,    1 ]

  @DF-UKS Final Energy:  -198.93102861343169

   => Energetics <=

    Nuclear Repulsion Energy =             35.7194617202250058
    One-Electron Energy =                -339.5913069063989838
    Two-Electron Energy =                 121.4027405165465154
    DFT Exchange-Correlation Energy =     -16.4619239438042477
    Empirical Dispersion Energy =           0.0000000000000000
    VV10 Nonlocal Energy =                  0.0000000000000000
    Total Energy =                       -198.9310286134316925

  UHF NO Occupations:
  HONO-2 :    2B2u 1.9998278
  HONO-1 :    1B3u 1.9992214
  HONO-0 :    1B1g 1.0000000
  LUNO+0 :    2B3u 0.0007786
  LUNO+1 :    3B2u 0.0001722
  LUNO+2 :    4 Ag 0.0000828
  LUNO+3 :    2B1u 0.0000182


Computation Completed


Properties will be evaluated at   0.000000,   0.000000,   0.000000 [a0]

Properties computed using the SCF density matrix


 Multipole Moments:

 ------------------------------------------------------------------------------------
     Multipole            Electronic (a.u.)      Nuclear  (a.u.)        Total (a.u.)
 ------------------------------------------------------------------------------------

 L = 1.  Multiply by 2.5417464519 to convert [e a0] to [Debye]
 Dipole X            :          0.0000000            0.0000000            0.0000000
 Dipole Y            :          0.0000000            0.0000000            0.0000000
 Dipole Z            :          0.0000000            0.0000000            0.0000000
 Magnitude           :                                                    0.0000000

 ------------------------------------------------------------------------------------

*** tstop() called on Joses-MacBook-Pro-2.local at Thu Jul 17 14:24:38 2025
Module time:
	user time   =       3.83 seconds =       0.06 minutes
	system time =       4.38 seconds =       0.07 minutes
	total time  =          1 seconds =       0.02 minutes
Total time:
	user time   =       3.83 seconds =       0.06 minutes
	system time =       4.38 seconds =       0.07 minutes
	total time  =          1 seconds =       0.02 minutes

*** tstart() called on Joses-MacBook-Pro-2.local
*** at Thu Jul 17 14:24:38 2025


         ------------------------------------------------------------
                                   SCF GRAD                          
                          Rob Parrish, Justin Turney,                
                       Andy Simmonett, and Alex Sokolov              
         ------------------------------------------------------------

  ==> Geometry <==

    Molecular point group: d2h
    Full point group: D_inf_h

    Geometry (in Angstrom), charge = 1, multiplicity = 2:

       Center              X                  Y                   Z               Mass       
    ------------   -----------------  -----------------  -----------------  -----------------
         F           -0.000000000000     0.600000000000     0.000000000000    18.998403162730
         F            0.000000000000    -0.600000000000     0.000000000000    18.998403162730

  Nuclear repulsion =   35.719461720225006

  ==> Basis Set <==

  Basis Set: CC-PVDZ
    Blend: CC-PVDZ
    Number of shells: 12
    Number of basis functions: 28
    Number of Cartesian functions: 30
    Spherical Harmonics?: true
    Max angular momentum: 2

  ==> DFJKGrad: Density-Fitted SCF Gradients <==

    Gradient:                    1
    J tasked:                  Yes
    K tasked:                  Yes
    wK tasked:                  No
    OpenMP threads:              1
    Integrals threads:           1
    Memory [MiB]:              375
    Schwarz Cutoff:          1E-12
    Fitting Condition:       1E-10

   => Auxiliary Basis Set <=

  Basis Set: (CC-PVDZ AUX)
    Blend: CC-PVDZ-JKFIT
    Number of shells: 48
    Number of basis functions: 140
    Number of Cartesian functions: 162
    Spherical Harmonics?: true
    Max angular momentum: 3

  ==> DFT Potential <==

   => LibXC <=

    Version 6.2.2
    S. Lehtola, C. Steigemann, M. J.T. Oliveira, and M. A.L. Marques.,  SoftwareX 7, 1–5 (2018) (10.1016/j.softx.2017.11.002)

   => Composite Functional: B3LYP <= 

    B3LYP Hyb-GGA Exchange-Correlation Functional

    P. J. Stephens, F. J. Devlin, C. F. Chabalowski, and M. J. Frisch.,  J. Phys. Chem. 98, 11623 (1994) (10.1021/j100096a001)

    Deriv               =              1
    GGA                 =           TRUE
    Meta                =          FALSE

    Exchange Hybrid     =           TRUE
    MP2 Hybrid          =          FALSE

   => Exchange Functionals <=

    0.0800   Slater exchange
    0.7200         Becke 88

   => Exact (HF) Exchange <=

    0.2000               HF 

   => Correlation Functionals <=

    0.1900   Vosko, Wilk & Nusair (VWN5_RPA)
    0.8100   Lee, Yang & Parr

   => LibXC Density Thresholds  <==

    XC_HYB_GGA_XC_B3LYP:  1.00E-15 

   => Molecular Quadrature <=

    Radial Scheme          =       TREUTLER
    Pruning Scheme         =           NONE
    Nuclear Scheme         =       TREUTLER

    Blocking Scheme        =         OCTREE
    BS radius alpha        =              1
    Pruning alpha          =              1
    Radial Points          =             75
    Spherical Points       =            302
    Total Points           =          41986
    Total Blocks           =            370
    Max Points             =            255
    Max Functions          =             28
    Weights Tolerance      =       1.00E-15


  -Total Gradient:
     Atom            X                  Y                   Z
    ------   -----------------  -----------------  -----------------
       1        0.000000000000    -0.138824063801     0.000000000000
       2       -0.000000000000     0.138824063801    -0.000000000000


*** tstop() called on Joses-MacBook-Pro-2.local at Thu Jul 17 14:24:38 2025
Module time:
	user time   =       0.66 seconds =       0.01 minutes
	system time =       1.28 seconds =       0.02 minutes
	total time  =          0 seconds =       0.00 minutes
Total time:
	user time   =       4.49 seconds =       0.07 minutes
	system time =       5.67 seconds =       0.09 minutes
	total time  =          1 seconds =       0.02 minutes

    			-----------------------------------------

    			 OPTKING 3.0: for geometry optimizations 

    			     By R.A. King, Bethel University     

    			        with contributions from          

    			    A.V. Copan, J. Cayton, A. Heide      

    			-----------------------------------------

    
	                            ===> Fragment 1 <== 

	 Z (Atomic Numbers)          Masses                          Geom                  
	       9.000000            18.998403         -0.00000000  1.13383568  0.00000000   
	       9.000000            18.998403          0.00000000 -1.13383568  0.00000000   

	 - Coordinate -           - BOHR/RAD -       - ANG/DEG -
	 R(1,2)           =         2.267671           1.200000


	        --- Internal Coordinate Step in ANG or DEG, aJ/ANG or AJ/DEG ---
	-------------------------------------------------------------------------------
	           Coordinate      Previous         Force          Change          New 
	           ----------      --------        ------          ------        ------
	               R(1,2)       1.20000        1.14373        0.06889       1.26889
	-------------------------------------------------------------------------------

	                                 ==> Convergence Check <==                                  
    
	Measures of convergence in internal coordinates in au.
    
	Criteria marked as inactive (o), active & met (*), and active & unmet ( ).

	----------------------------------------------------------------------------------------------
	   Step    Total Energy     Delta E     Max Force     RMS Force      Max Disp      RMS Disp   
	----------------------------------------------------------------------------------------------
	  Convergence Criteria     1.00e-06 *    3.00e-04 *             o    1.20e-03 *             o
	----------------------------------------------------------------------------------------------
	     1    -198.93102861   -1.99e+02      1.39e-01      1.39e-01 o    1.30e-01      1.30e-01 o  ~
	----------------------------------------------------------------------------------------------

Next Geometry in Ang 
	Fragment 1 (Ang)

	    F  -0.0000000000   0.6344472597   0.0000000000
	    F   0.0000000000  -0.6344472597   0.0000000000


    Structure for next step:
    Molecular point group: d2h
    Full point group: D_inf_h

    Geometry (in Angstrom), charge = 1, multiplicity = 2:

    F           -0.000000000000     0.634447259706     0.000000000000
    F            0.000000000000    -0.634447259706     0.000000000000


Scratch directory: /tmp/
gradient() will perform analytic gradient computation.
   => Libint2 <=

    Primary   basis highest AM E, G, H:  6, 6, 3
    Auxiliary basis highest AM E, G, H:  7, 7, 4
    Onebody   basis highest AM E, G, H:  -, -, -
    Solid Harmonics ordering:            Gaussian

*** tstart() called on Joses-MacBook-Pro-2.local
*** at Thu Jul 17 14:24:38 2025

   => Loading Basis Set <=

    Name: CC-PVDZ
    Role: ORBITAL
    Keyword: BASIS
    atoms 1-2 entry F          line   228 file /Users/joseantoniorodriguesromero/anaconda3/share/psi4/basis/cc-pvdz.gbs 


         ---------------------------------------------------------
                                   SCF
               by Justin Turney, Rob Parrish, Andy Simmonett
                          and Daniel G. A. Smith
                              UKS Reference
                        1 Threads,    500 MiB Core
         ---------------------------------------------------------

  ==> Geometry <==

    Molecular point group: d2h
    Full point group: D_inf_h

    Geometry (in Angstrom), charge = 1, multiplicity = 2:

       Center              X                  Y                   Z               Mass       
    ------------   -----------------  -----------------  -----------------  -----------------
         F           -0.000000000000     0.634447259706     0.000000000000    18.998403162730
         F            0.000000000000    -0.634447259706     0.000000000000    18.998403162730

  Running in d2h symmetry.

  Rotational constants: A = ************  B =      1.10219  C =      1.10219 [cm^-1]
  Rotational constants: A = ************  B =  33042.96819  C =  33042.96819 [MHz]
  Nuclear repulsion =   33.780076600961188

  Charge       = 1
  Multiplicity = 2
  Electrons    = 17
  Nalpha       = 9
  Nbeta        = 8

  ==> Algorithm <==

  SCF Algorithm Type is DF.
  DIIS enabled.
  MOM disabled.
  Fractional occupation disabled.
  Guess Type is READ.
  Energy threshold   = 1.00e-08
  Density threshold  = 1.00e-08
  Integral threshold = 1.00e-12

  ==> Primary Basis <==

  Basis Set: CC-PVDZ
    Blend: CC-PVDZ
    Number of shells: 12
    Number of basis functions: 28
    Number of Cartesian functions: 30
    Spherical Harmonics?: true
    Max angular momentum: 2

  ==> DFT Potential <==

   => LibXC <=

    Version 6.2.2
    S. Lehtola, C. Steigemann, M. J.T. Oliveira, and M. A.L. Marques.,  SoftwareX 7, 1–5 (2018) (10.1016/j.softx.2017.11.002)

   => Composite Functional: B3LYP <= 

    B3LYP Hyb-GGA Exchange-Correlation Functional

    P. J. Stephens, F. J. Devlin, C. F. Chabalowski, and M. J. Frisch.,  J. Phys. Chem. 98, 11623 (1994) (10.1021/j100096a001)

    Deriv               =              1
    GGA                 =           TRUE
    Meta                =          FALSE

    Exchange Hybrid     =           TRUE
    MP2 Hybrid          =          FALSE

   => Exchange Functionals <=

    0.0800   Slater exchange
    0.7200         Becke 88

   => Exact (HF) Exchange <=

    0.2000               HF 

   => Correlation Functionals <=

    0.1900   Vosko, Wilk & Nusair (VWN5_RPA)
    0.8100   Lee, Yang & Parr

   => LibXC Density Thresholds  <==

    XC_HYB_GGA_XC_B3LYP:  1.00E-15 

   => Molecular Quadrature <=

    Radial Scheme          =       TREUTLER
    Pruning Scheme         =           NONE
    Nuclear Scheme         =       TREUTLER

    Blocking Scheme        =         OCTREE
    BS radius alpha        =              1
    Pruning alpha          =              1
    Radial Points          =             75
    Spherical Points       =            302
    Total Points           =          42012
    Total Blocks           =            372
    Max Points             =            255
    Max Functions          =             28
    Weights Tolerance      =       1.00E-15

   => Loading Basis Set <=

    Name: (CC-PVDZ AUX)
    Role: JKFIT
    Keyword: DF_BASIS_SCF
    atoms 1-2 entry F          line   271 file /Users/joseantoniorodriguesromero/anaconda3/share/psi4/basis/cc-pvdz-jkfit.gbs 

   => Loading Basis Set <=

    Name: CC-PVDZ
    Role: ORBITAL
    Keyword: BASIS
    atoms 1-2 entry F          line   228 file /Users/joseantoniorodriguesromero/anaconda3/share/psi4/basis/cc-pvdz.gbs 

  Reading orbitals from file /tmp/doublet_FF.default.74675.180.npy, no projection.

  ==> Integral Setup <==

  DFHelper Memory: AOs need 0.001 GiB; user supplied 0.333 GiB. 
  Using in-core AOs.

  ==> MemDFJK: Density-Fitted J/K Matrices <==

    J tasked:                   Yes
    K tasked:                   Yes
    wK tasked:                   No
    OpenMP threads:               1
    Memory [MiB]:               340
    Algorithm:                 Core
    Schwarz Cutoff:           1E-12
    Mask sparsity (%):       0.0000
    Fitting Condition:        1E-10

   => Auxiliary Basis Set <=

  Basis Set: (CC-PVDZ AUX)
    Blend: CC-PVDZ-JKFIT
    Number of shells: 48
    Number of basis functions: 140
    Number of Cartesian functions: 162
    Spherical Harmonics?: true
    Max angular momentum: 3

  Cached 100.0% of DFT collocation blocks in 0.034 [GiB].

  Minimum eigenvalue in the overlap matrix is 5.7781572261E-02.
  Reciprocal condition number of the overlap matrix is 2.4328465663E-02.
    Using symmetric orthogonalization.

  ==> Pre-Iterations <==

  SCF Guess: Orbitals guess was supplied from a previous computation.

   -------------------------------------------------------
    Irrep   Nso     Nmo     Nalpha   Nbeta   Ndocc  Nsocc
   -------------------------------------------------------
     Ag         7       7       3       3       3       0
     B1g        3       3       1       0       0       1
     B2g        1       1       0       0       0       0
     B3g        3       3       1       1       1       0
     Au         1       1       0       0       0       0
     B1u        3       3       1       1       1       0
     B2u        7       7       2       2       2       0
     B3u        3       3       1       1       1       0
   -------------------------------------------------------
    Total      28      28       9       8       8       1
   -------------------------------------------------------

  ==> Iterations <==

                           Total Energy        Delta E     RMS |[F,P]|

   @DF-UKS iter   0:  -198.89394535767258   -1.98894e+02   1.90390e-02 
   @DF-UKS iter   1:  -198.94144915655960   -4.75038e-02   4.35148e-03 ADIIS/DIIS
   @DF-UKS iter   2:  -198.94196643668187   -5.17280e-04   1.79771e-03 ADIIS/DIIS/DAMP=1%
   @DF-UKS iter   3:  -198.94223445727394   -2.68021e-04   4.31838e-05 DIIS/DAMP=1%
   @DF-UKS iter   4:  -198.94205795558844    1.76502e-04   2.03612e-05 DIIS/DAMP=1%
   @DF-UKS iter   5:  -198.94208596986098   -2.80143e-05   1.65525e-06 DIIS/DAMP=1%
   @DF-UKS iter   6:  -198.94207937259219    6.59727e-06   2.65327e-07 DIIS/DAMP=1%
   @DF-UKS iter   7:  -198.94207923377041    1.38822e-07   2.73813e-08 DIIS/DAMP=1%
   @DF-UKS iter   8:  -198.94207920601724    2.77532e-08   8.16459e-10 DIIS/DAMP=1%
   @DF-UKS iter   9:  -198.94207920851085   -2.49361e-09   1.04873e-10 DIIS/DAMP=1%
  Energy and wave function converged.


  ==> Post-Iterations <==

   Electrons on quadrature grid:
      Nalpha   =    9.0000000883 ; deviation = 8.829e-08
      Nbeta    =    7.9999999746 ; deviation = -2.543e-08
      Ntotal   =   17.0000000629 ; deviation = 6.286e-08 

   @Spin Contamination Metric:   2.215490718E-03
   @S^2 Expected:                7.500000000E-01
   @S^2 Observed:                7.522154907E-01
   @S   Expected:                5.000000000E-01
   @S   Observed:                5.000000000E-01

    Orbital Energies [Eh]
    ---------------------

    Alpha Occupied:                                                       

       1Ag   -25.373900     1B2u  -25.373870     2Ag    -1.972407  
       2B2u   -1.595287     3Ag    -1.133985     1B3u   -1.119009  
       1B1u   -1.068822     1B1g   -0.942226     1B3g   -0.887601  

    Alpha Virtual:                                                        

       3B2u   -0.551037     2B3u    0.560365     2B1u    0.592844  
       4B2u    0.601198     2B1g    0.751452     2B3g    0.780163  
       4Ag     0.805024     5Ag     1.014533     5B2u    1.593680  
       3B3u    2.562583     6Ag     2.596652     3B1u    2.600607  
       1B2g    2.896383     7Ag     2.898413     1Au     3.017902  
       6B2u    3.017909     3B1g    3.406964     3B3g    3.447484  
       7B2u    4.363875  

    Beta Occupied:                                                        

       1Ag   -25.355480     1B2u  -25.355398     2Ag    -1.934619  
       2B2u   -1.542982     3Ag    -1.112559     1B1u   -1.052582  
       1B3u   -1.003627     1B3g   -0.868503  

    Beta Virtual:                                                         

       1B1g   -0.736279     3B2u   -0.527013     2B1u    0.601569  
       4B2u    0.610989     2B3u    0.616970     2B3g    0.788226  
       2B1g    0.802127     4Ag     0.816412     5Ag     1.031351  
       5B2u    1.614574     3B1u    2.607708     3B3u    2.610707  
       6Ag     2.623073     1B2g    2.945242     7Ag     2.948025  
       1Au     3.069271     6B2u    3.072022     3B3g    3.455925  
       3B1g    3.461005     7B2u    4.387542  

    Final Occupation by Irrep:
             Ag   B1g   B2g   B3g    Au   B1u   B2u   B3u 
    DOCC [     3,    0,    0,    1,    0,    1,    2,    1 ]
    SOCC [     0,    1,    0,    0,    0,    0,    0,    0 ]
    NA   [     3,    1,    0,    1,    0,    1,    2,    1 ]
    NB   [     3,    0,    0,    1,    0,    1,    2,    1 ]

  @DF-UKS Final Energy:  -198.94207920851085

   => Energetics <=

    Nuclear Repulsion Energy =             33.7800766009611877
    One-Electron Energy =                -335.9730178078633571
    Two-Electron Energy =                 119.6676810610361628
    DFT Exchange-Correlation Energy =     -16.4168190626448229
    Empirical Dispersion Energy =           0.0000000000000000
    VV10 Nonlocal Energy =                  0.0000000000000000
    Total Energy =                       -198.9420792085108474

  UHF NO Occupations:
  HONO-2 :    2B2u 1.9998404
  HONO-1 :    1B3u 1.9991760
  HONO-0 :    1B1g 1.0000000
  LUNO+0 :    2B3u 0.0008240
  LUNO+1 :    3B2u 0.0001596
  LUNO+2 :    4 Ag 0.0000842
  LUNO+3 :    2B1u 0.0000189


Computation Completed


Properties will be evaluated at   0.000000,   0.000000,   0.000000 [a0]

Properties computed using the SCF density matrix


 Multipole Moments:

 ------------------------------------------------------------------------------------
     Multipole            Electronic (a.u.)      Nuclear  (a.u.)        Total (a.u.)
 ------------------------------------------------------------------------------------

 L = 1.  Multiply by 2.5417464519 to convert [e a0] to [Debye]
 Dipole X            :          0.0000000            0.0000000            0.0000000
 Dipole Y            :          0.0000000            0.0000000            0.0000000
 Dipole Z            :          0.0000000            0.0000000            0.0000000
 Magnitude           :                                                    0.0000000

 ------------------------------------------------------------------------------------

*** tstop() called on Joses-MacBook-Pro-2.local at Thu Jul 17 14:24:38 2025
Module time:
	user time   =       3.62 seconds =       0.06 minutes
	system time =       2.99 seconds =       0.05 minutes
	total time  =          0 seconds =       0.00 minutes
Total time:
	user time   =       8.15 seconds =       0.14 minutes
	system time =       8.85 seconds =       0.15 minutes
	total time  =          1 seconds =       0.02 minutes

*** tstart() called on Joses-MacBook-Pro-2.local
*** at Thu Jul 17 14:24:38 2025


         ------------------------------------------------------------
                                   SCF GRAD                          
                          Rob Parrish, Justin Turney,                
                       Andy Simmonett, and Alex Sokolov              
         ------------------------------------------------------------

  ==> Geometry <==

    Molecular point group: d2h
    Full point group: D_inf_h

    Geometry (in Angstrom), charge = 1, multiplicity = 2:

       Center              X                  Y                   Z               Mass       
    ------------   -----------------  -----------------  -----------------  -----------------
         F           -0.000000000000     0.634447259706     0.000000000000    18.998403162730
         F            0.000000000000    -0.634447259706     0.000000000000    18.998403162730

  Nuclear repulsion =   33.780076600961188

  ==> Basis Set <==

  Basis Set: CC-PVDZ
    Blend: CC-PVDZ
    Number of shells: 12
    Number of basis functions: 28
    Number of Cartesian functions: 30
    Spherical Harmonics?: true
    Max angular momentum: 2

  ==> DFJKGrad: Density-Fitted SCF Gradients <==

    Gradient:                    1
    J tasked:                  Yes
    K tasked:                  Yes
    wK tasked:                  No
    OpenMP threads:              1
    Integrals threads:           1
    Memory [MiB]:              375
    Schwarz Cutoff:          1E-12
    Fitting Condition:       1E-10

   => Auxiliary Basis Set <=

  Basis Set: (CC-PVDZ AUX)
    Blend: CC-PVDZ-JKFIT
    Number of shells: 48
    Number of basis functions: 140
    Number of Cartesian functions: 162
    Spherical Harmonics?: true
    Max angular momentum: 3

  ==> DFT Potential <==

   => LibXC <=

    Version 6.2.2
    S. Lehtola, C. Steigemann, M. J.T. Oliveira, and M. A.L. Marques.,  SoftwareX 7, 1–5 (2018) (10.1016/j.softx.2017.11.002)

   => Composite Functional: B3LYP <= 

    B3LYP Hyb-GGA Exchange-Correlation Functional

    P. J. Stephens, F. J. Devlin, C. F. Chabalowski, and M. J. Frisch.,  J. Phys. Chem. 98, 11623 (1994) (10.1021/j100096a001)

    Deriv               =              1
    GGA                 =           TRUE
    Meta                =          FALSE

    Exchange Hybrid     =           TRUE
    MP2 Hybrid          =          FALSE

   => Exchange Functionals <=

    0.0800   Slater exchange
    0.7200         Becke 88

   => Exact (HF) Exchange <=

    0.2000               HF 

   => Correlation Functionals <=

    0.1900   Vosko, Wilk & Nusair (VWN5_RPA)
    0.8100   Lee, Yang & Parr

   => LibXC Density Thresholds  <==

    XC_HYB_GGA_XC_B3LYP:  1.00E-15 

   => Molecular Quadrature <=

    Radial Scheme          =       TREUTLER
    Pruning Scheme         =           NONE
    Nuclear Scheme         =       TREUTLER

    Blocking Scheme        =         OCTREE
    BS radius alpha        =              1
    Pruning alpha          =              1
    Radial Points          =             75
    Spherical Points       =            302
    Total Points           =          42012
    Total Blocks           =            372
    Max Points             =            255
    Max Functions          =             28
    Weights Tolerance      =       1.00E-15


  -Total Gradient:
     Atom            X                  Y                   Z
    ------   -----------------  -----------------  -----------------
       1        0.000000000000    -0.038220318382     0.000000000000
       2       -0.000000000000     0.038220318382     0.000000000000


*** tstop() called on Joses-MacBook-Pro-2.local at Thu Jul 17 14:24:38 2025
Module time:
	user time   =       0.42 seconds =       0.01 minutes
	system time =       1.12 seconds =       0.02 minutes
	total time  =          0 seconds =       0.00 minutes
Total time:
	user time   =       8.57 seconds =       0.14 minutes
	system time =       9.98 seconds =       0.17 minutes
	total time  =          1 seconds =       0.02 minutes

    			-----------------------------------------

    			 OPTKING 3.0: for geometry optimizations 

    			     By R.A. King, Bethel University     

    			        with contributions from          

    			    A.V. Copan, J. Cayton, A. Heide      

    			-----------------------------------------

    
	                            ===> Fragment 1 <== 

	 Z (Atomic Numbers)          Masses                          Geom                  
	       9.000000            18.998403         -0.00000000  1.19893156  0.00000000   
	       9.000000            18.998403          0.00000000 -1.19893156  0.00000000   

	 - Coordinate -           - BOHR/RAD -       - ANG/DEG -
	 R(1,2)           =         2.397863           1.268895


	        --- Internal Coordinate Step in ANG or DEG, aJ/ANG or AJ/DEG ---
	-------------------------------------------------------------------------------
	           Coordinate      Previous         Force          Change          New 
	           ----------      --------        ------          ------        ------
	               R(1,2)       1.26889        0.31489        0.02611       1.29500
	-------------------------------------------------------------------------------

	                                 ==> Convergence Check <==                                  
    
	Measures of convergence in internal coordinates in au.
    
	Criteria marked as inactive (o), active & met (*), and active & unmet ( ).

	----------------------------------------------------------------------------------------------
	   Step    Total Energy     Delta E     Max Force     RMS Force      Max Disp      RMS Disp   
	----------------------------------------------------------------------------------------------
	  Convergence Criteria     1.00e-06 *    3.00e-04 *             o    1.20e-03 *             o
	----------------------------------------------------------------------------------------------
	     2    -198.94207921   -1.11e-02      3.82e-02      3.82e-02 o    4.93e-02      4.93e-02 o  ~
	----------------------------------------------------------------------------------------------

Next Geometry in Ang 
	Fragment 1 (Ang)

	    F  -0.0000000000   0.6475022409   0.0000000000
	    F   0.0000000000  -0.6475022409   0.0000000000


    Structure for next step:
    Molecular point group: d2h
    Full point group: D_inf_h

    Geometry (in Angstrom), charge = 1, multiplicity = 2:

    F           -0.000000000000     0.647502240888     0.000000000000
    F            0.000000000000    -0.647502240888     0.000000000000


Scratch directory: /tmp/
gradient() will perform analytic gradient computation.
   => Libint2 <=

    Primary   basis highest AM E, G, H:  6, 6, 3
    Auxiliary basis highest AM E, G, H:  7, 7, 4
    Onebody   basis highest AM E, G, H:  -, -, -
    Solid Harmonics ordering:            Gaussian

*** tstart() called on Joses-MacBook-Pro-2.local
*** at Thu Jul 17 14:24:39 2025

   => Loading Basis Set <=

    Name: CC-PVDZ
    Role: ORBITAL
    Keyword: BASIS
    atoms 1-2 entry F          line   228 file /Users/joseantoniorodriguesromero/anaconda3/share/psi4/basis/cc-pvdz.gbs 


         ---------------------------------------------------------
                                   SCF
               by Justin Turney, Rob Parrish, Andy Simmonett
                          and Daniel G. A. Smith
                              UKS Reference
                        1 Threads,    500 MiB Core
         ---------------------------------------------------------

  ==> Geometry <==

    Molecular point group: d2h
    Full point group: D_inf_h

    Geometry (in Angstrom), charge = 1, multiplicity = 2:

       Center              X                  Y                   Z               Mass       
    ------------   -----------------  -----------------  -----------------  -----------------
         F           -0.000000000000     0.647502240888     0.000000000000    18.998403162730
         F            0.000000000000    -0.647502240888     0.000000000000    18.998403162730

  Running in d2h symmetry.

  Rotational constants: A = ************  B =      1.05820  C =      1.05820 [cm^-1]
  Rotational constants: A = ************  B =  31723.97161  C =  31723.97161 [MHz]
  Nuclear repulsion =   33.099000557496090

  Charge       = 1
  Multiplicity = 2
  Electrons    = 17
  Nalpha       = 9
  Nbeta        = 8

  ==> Algorithm <==

  SCF Algorithm Type is DF.
  DIIS enabled.
  MOM disabled.
  Fractional occupation disabled.
  Guess Type is READ.
  Energy threshold   = 1.00e-08
  Density threshold  = 1.00e-08
  Integral threshold = 1.00e-12

  ==> Primary Basis <==

  Basis Set: CC-PVDZ
    Blend: CC-PVDZ
    Number of shells: 12
    Number of basis functions: 28
    Number of Cartesian functions: 30
    Spherical Harmonics?: true
    Max angular momentum: 2

  ==> DFT Potential <==

   => LibXC <=

    Version 6.2.2
    S. Lehtola, C. Steigemann, M. J.T. Oliveira, and M. A.L. Marques.,  SoftwareX 7, 1–5 (2018) (10.1016/j.softx.2017.11.002)

   => Composite Functional: B3LYP <= 

    B3LYP Hyb-GGA Exchange-Correlation Functional

    P. J. Stephens, F. J. Devlin, C. F. Chabalowski, and M. J. Frisch.,  J. Phys. Chem. 98, 11623 (1994) (10.1021/j100096a001)

    Deriv               =              1
    GGA                 =           TRUE
    Meta                =          FALSE

    Exchange Hybrid     =           TRUE
    MP2 Hybrid          =          FALSE

   => Exchange Functionals <=

    0.0800   Slater exchange
    0.7200         Becke 88

   => Exact (HF) Exchange <=

    0.2000               HF 

   => Correlation Functionals <=

    0.1900   Vosko, Wilk & Nusair (VWN5_RPA)
    0.8100   Lee, Yang & Parr

   => LibXC Density Thresholds  <==

    XC_HYB_GGA_XC_B3LYP:  1.00E-15 

   => Molecular Quadrature <=

    Radial Scheme          =       TREUTLER
    Pruning Scheme         =           NONE
    Nuclear Scheme         =       TREUTLER

    Blocking Scheme        =         OCTREE
    BS radius alpha        =              1
    Pruning alpha          =              1
    Radial Points          =             75
    Spherical Points       =            302
    Total Points           =          42012
    Total Blocks           =            372
    Max Points             =            255
    Max Functions          =             28
    Weights Tolerance      =       1.00E-15

   => Loading Basis Set <=

    Name: (CC-PVDZ AUX)
    Role: JKFIT
    Keyword: DF_BASIS_SCF
    atoms 1-2 entry F          line   271 file /Users/joseantoniorodriguesromero/anaconda3/share/psi4/basis/cc-pvdz-jkfit.gbs 

   => Loading Basis Set <=

    Name: CC-PVDZ
    Role: ORBITAL
    Keyword: BASIS
    atoms 1-2 entry F          line   228 file /Users/joseantoniorodriguesromero/anaconda3/share/psi4/basis/cc-pvdz.gbs 

  Reading orbitals from file /tmp/doublet_FF.default.74675.180.npy, no projection.

  ==> Integral Setup <==

  DFHelper Memory: AOs need 0.001 GiB; user supplied 0.333 GiB. 
  Using in-core AOs.

  ==> MemDFJK: Density-Fitted J/K Matrices <==

    J tasked:                   Yes
    K tasked:                   Yes
    wK tasked:                   No
    OpenMP threads:               1
    Memory [MiB]:               340
    Algorithm:                 Core
    Schwarz Cutoff:           1E-12
    Mask sparsity (%):       0.0000
    Fitting Condition:        1E-10

   => Auxiliary Basis Set <=

  Basis Set: (CC-PVDZ AUX)
    Blend: CC-PVDZ-JKFIT
    Number of shells: 48
    Number of basis functions: 140
    Number of Cartesian functions: 162
    Spherical Harmonics?: true
    Max angular momentum: 3

  Cached 100.0% of DFT collocation blocks in 0.034 [GiB].

  Minimum eigenvalue in the overlap matrix is 6.1638865379E-02.
  Reciprocal condition number of the overlap matrix is 2.6205798613E-02.
    Using symmetric orthogonalization.

  ==> Pre-Iterations <==

  SCF Guess: Orbitals guess was supplied from a previous computation.

   -------------------------------------------------------
    Irrep   Nso     Nmo     Nalpha   Nbeta   Ndocc  Nsocc
   -------------------------------------------------------
     Ag         7       7       3       3       3       0
     B1g        3       3       1       0       0       1
     B2g        1       1       0       0       0       0
     B3g        3       3       1       1       1       0
     Au         1       1       0       0       0       0
     B1u        3       3       1       1       1       0
     B2u        7       7       2       2       2       0
     B3u        3       3       1       1       1       0
   -------------------------------------------------------
    Total      28      28       9       8       8       1
   -------------------------------------------------------

  ==> Iterations <==

                           Total Energy        Delta E     RMS |[F,P]|

   @DF-UKS iter   0:  -198.92651368759095   -1.98927e+02   6.52758e-03 
   @DF-UKS iter   1:  -198.94318125951992   -1.66676e-02   1.48842e-03 ADIIS/DIIS
   @DF-UKS iter   2:  -198.94324168381314   -6.04243e-05   6.22271e-04 ADIIS/DIIS/DAMP=1%
   @DF-UKS iter   3:  -198.94329826088324   -5.65771e-05   1.04743e-05 DIIS/DAMP=1%
   @DF-UKS iter   4:  -198.94324971531580    4.85456e-05   6.16732e-06 DIIS/DAMP=1%
   @DF-UKS iter   5:  -198.94325732318086   -7.60787e-06   7.13291e-07 DIIS/DAMP=1%
   @DF-UKS iter   6:  -198.94325531484469    2.00834e-06   1.18796e-07 DIIS/DAMP=1%
   @DF-UKS iter   7:  -198.94325526610285    4.87418e-08   9.19958e-09 DIIS/DAMP=1%
   @DF-UKS iter   8:  -198.94325526032006    5.78279e-09   2.11466e-10 DIIS/DAMP=1%
  Energy and wave function converged.


  ==> Post-Iterations <==

   Electrons on quadrature grid:
      Nalpha   =    9.0000004154 ; deviation = 4.154e-07
      Nbeta    =    8.0000001929 ; deviation = 1.929e-07
      Ntotal   =   17.0000006083 ; deviation = 6.083e-07 

   @Spin Contamination Metric:   2.234974756E-03
   @S^2 Expected:                7.500000000E-01
   @S^2 Observed:                7.522349748E-01
   @S   Expected:                5.000000000E-01
   @S   Observed:                5.000000000E-01

    Orbital Energies [Eh]
    ---------------------

    Alpha Occupied:                                                       

       1Ag   -25.374019     1B2u  -25.373990     2Ag    -1.950457  
       2B2u   -1.601975     3Ag    -1.126634     1B3u   -1.109100  
       1B1u   -1.059023     1B1g   -0.945762     1B3g   -0.891337  

    Alpha Virtual:                                                        

       3B2u   -0.575039     2B3u    0.558437     2B1u    0.590780  
       4B2u    0.607965     2B1g    0.753140     2B3g    0.781836  
       4Ag     0.812012     5Ag     1.020006     5B2u    1.581299  
       6Ag     2.570670     3B3u    2.598510     3B1u    2.636483  
       1B2g    2.909071     7Ag     2.910893     6B2u    3.013095  
       1Au     3.013105     3B1g    3.361342     3B3g    3.401593  
       7B2u    4.310761  

    Beta Occupied:                                                        

       1Ag   -25.355664     1B2u  -25.355586     2Ag    -1.912177  
       2B2u   -1.549755     3Ag    -1.105604     1B1u   -1.042778  
       1B3u   -0.993092     1B3g   -0.872336  

    Beta Virtual:                                                         

       1B1g   -0.740830     3B2u   -0.551409     2B1u    0.599482  
       2B3u    0.614997     4B2u    0.617842     2B3g    0.789895  
       2B1g    0.803728     4Ag     0.823653     5Ag     1.037079  
       5B2u    1.602034     6Ag     2.596481     3B1u    2.643696  
       3B3u    2.646992     1B2g    2.957997     7Ag     2.960759  
       1Au     3.064332     6B2u    3.067067     3B3g    3.409991  
       3B1g    3.415244     7B2u    4.334500  

    Final Occupation by Irrep:
             Ag   B1g   B2g   B3g    Au   B1u   B2u   B3u 
    DOCC [     3,    0,    0,    1,    0,    1,    2,    1 ]
    SOCC [     0,    1,    0,    0,    0,    0,    0,    0 ]
    NA   [     3,    1,    0,    1,    0,    1,    2,    1 ]
    NB   [     3,    0,    0,    1,    0,    1,    2,    1 ]

  @DF-UKS Final Energy:  -198.94325526032006

   => Energetics <=

    Nuclear Repulsion Energy =             33.0990005574960904
    One-Electron Energy =                -334.6965860751374748
    Two-Electron Energy =                 119.0562409040329044
    DFT Exchange-Correlation Energy =     -16.4019106467115705
    Empirical Dispersion Energy =           0.0000000000000000
    VV10 Nonlocal Energy =                  0.0000000000000000
    Total Energy =                       -198.9432552603200577

  UHF NO Occupations:
  HONO-2 :    2B2u 1.9998455
  HONO-1 :    1B3u 1.9991622
  HONO-0 :    1B1g 1.0000000
  LUNO+0 :    2B3u 0.0008378
  LUNO+1 :    3B2u 0.0001545
  LUNO+2 :    4 Ag 0.0000846
  LUNO+3 :    2B1u 0.0000191


Computation Completed


Properties will be evaluated at   0.000000,   0.000000,   0.000000 [a0]

Properties computed using the SCF density matrix


 Multipole Moments:

 ------------------------------------------------------------------------------------
     Multipole            Electronic (a.u.)      Nuclear  (a.u.)        Total (a.u.)
 ------------------------------------------------------------------------------------

 L = 1.  Multiply by 2.5417464519 to convert [e a0] to [Debye]
 Dipole X            :          0.0000000            0.0000000            0.0000000
 Dipole Y            :          0.0000000            0.0000000            0.0000000
 Dipole Z            :          0.0000000            0.0000000            0.0000000
 Magnitude           :                                                    0.0000000

 ------------------------------------------------------------------------------------

*** tstop() called on Joses-MacBook-Pro-2.local at Thu Jul 17 14:24:39 2025
Module time:
	user time   =       3.45 seconds =       0.06 minutes
	system time =       2.65 seconds =       0.04 minutes
	total time  =          0 seconds =       0.00 minutes
Total time:
	user time   =      12.06 seconds =       0.20 minutes
	system time =      12.87 seconds =       0.21 minutes
	total time  =          2 seconds =       0.03 minutes

*** tstart() called on Joses-MacBook-Pro-2.local
*** at Thu Jul 17 14:24:39 2025


         ------------------------------------------------------------
                                   SCF GRAD                          
                          Rob Parrish, Justin Turney,                
                       Andy Simmonett, and Alex Sokolov              
         ------------------------------------------------------------

  ==> Geometry <==

    Molecular point group: d2h
    Full point group: D_inf_h

    Geometry (in Angstrom), charge = 1, multiplicity = 2:

       Center              X                  Y                   Z               Mass       
    ------------   -----------------  -----------------  -----------------  -----------------
         F           -0.000000000000     0.647502240888     0.000000000000    18.998403162730
         F            0.000000000000    -0.647502240888     0.000000000000    18.998403162730

  Nuclear repulsion =   33.099000557496090

  ==> Basis Set <==

  Basis Set: CC-PVDZ
    Blend: CC-PVDZ
    Number of shells: 12
    Number of basis functions: 28
    Number of Cartesian functions: 30
    Spherical Harmonics?: true
    Max angular momentum: 2

  ==> DFJKGrad: Density-Fitted SCF Gradients <==

    Gradient:                    1
    J tasked:                  Yes
    K tasked:                  Yes
    wK tasked:                  No
    OpenMP threads:              1
    Integrals threads:           1
    Memory [MiB]:              375
    Schwarz Cutoff:          1E-12
    Fitting Condition:       1E-10

   => Auxiliary Basis Set <=

  Basis Set: (CC-PVDZ AUX)
    Blend: CC-PVDZ-JKFIT
    Number of shells: 48
    Number of basis functions: 140
    Number of Cartesian functions: 162
    Spherical Harmonics?: true
    Max angular momentum: 3

  ==> DFT Potential <==

   => LibXC <=

    Version 6.2.2
    S. Lehtola, C. Steigemann, M. J.T. Oliveira, and M. A.L. Marques.,  SoftwareX 7, 1–5 (2018) (10.1016/j.softx.2017.11.002)

   => Composite Functional: B3LYP <= 

    B3LYP Hyb-GGA Exchange-Correlation Functional

    P. J. Stephens, F. J. Devlin, C. F. Chabalowski, and M. J. Frisch.,  J. Phys. Chem. 98, 11623 (1994) (10.1021/j100096a001)

    Deriv               =              1
    GGA                 =           TRUE
    Meta                =          FALSE

    Exchange Hybrid     =           TRUE
    MP2 Hybrid          =          FALSE

   => Exchange Functionals <=

    0.0800   Slater exchange
    0.7200         Becke 88

   => Exact (HF) Exchange <=

    0.2000               HF 

   => Correlation Functionals <=

    0.1900   Vosko, Wilk & Nusair (VWN5_RPA)
    0.8100   Lee, Yang & Parr

   => LibXC Density Thresholds  <==

    XC_HYB_GGA_XC_B3LYP:  1.00E-15 

   => Molecular Quadrature <=

    Radial Scheme          =       TREUTLER
    Pruning Scheme         =           NONE
    Nuclear Scheme         =       TREUTLER

    Blocking Scheme        =         OCTREE
    BS radius alpha        =              1
    Pruning alpha          =              1
    Radial Points          =             75
    Spherical Points       =            302
    Total Points           =          42012
    Total Blocks           =            372
    Max Points             =            255
    Max Functions          =             28
    Weights Tolerance      =       1.00E-15


  -Total Gradient:
     Atom            X                  Y                   Z
    ------   -----------------  -----------------  -----------------
       1        0.000000000000    -0.010229973295    -0.000000000000
       2       -0.000000000000     0.010229973295    -0.000000000000


*** tstop() called on Joses-MacBook-Pro-2.local at Thu Jul 17 14:24:39 2025
Module time:
	user time   =       0.44 seconds =       0.01 minutes
	system time =       1.00 seconds =       0.02 minutes
	total time  =          0 seconds =       0.00 minutes
Total time:
	user time   =      12.50 seconds =       0.21 minutes
	system time =      13.88 seconds =       0.23 minutes
	total time  =          2 seconds =       0.03 minutes

    			-----------------------------------------

    			 OPTKING 3.0: for geometry optimizations 

    			     By R.A. King, Bethel University     

    			        with contributions from          

    			    A.V. Copan, J. Cayton, A. Heide      

    			-----------------------------------------

    
	                            ===> Fragment 1 <== 

	 Z (Atomic Numbers)          Masses                          Geom                  
	       9.000000            18.998403         -0.00000000  1.22360190  0.00000000   
	       9.000000            18.998403          0.00000000 -1.22360190  0.00000000   

	 - Coordinate -           - BOHR/RAD -       - ANG/DEG -
	 R(1,2)           =         2.447204           1.295004


	        --- Internal Coordinate Step in ANG or DEG, aJ/ANG or AJ/DEG ---
	-------------------------------------------------------------------------------
	           Coordinate      Previous         Force          Change          New 
	           ----------      --------        ------          ------        ------
	               R(1,2)       1.29500        0.08428        0.00756       1.30256
	-------------------------------------------------------------------------------

	                                 ==> Convergence Check <==                                  
    
	Measures of convergence in internal coordinates in au.
    
	Criteria marked as inactive (o), active & met (*), and active & unmet ( ).

	----------------------------------------------------------------------------------------------
	   Step    Total Energy     Delta E     Max Force     RMS Force      Max Disp      RMS Disp   
	----------------------------------------------------------------------------------------------
	  Convergence Criteria     1.00e-06 *    3.00e-04 *             o    1.20e-03 *             o
	----------------------------------------------------------------------------------------------
	     3    -198.94325526   -1.18e-03      1.02e-02      1.02e-02 o    1.43e-02      1.43e-02 o  ~
	----------------------------------------------------------------------------------------------

Next Geometry in Ang 
	Fragment 1 (Ang)

	    F  -0.0000000000   0.6512803894   0.0000000000
	    F   0.0000000000  -0.6512803894   0.0000000000


    Structure for next step:
    Molecular point group: d2h
    Full point group: D_inf_h

    Geometry (in Angstrom), charge = 1, multiplicity = 2:

    F           -0.000000000000     0.651280389399     0.000000000000
    F            0.000000000000    -0.651280389399     0.000000000000


Scratch directory: /tmp/
gradient() will perform analytic gradient computation.
   => Libint2 <=

    Primary   basis highest AM E, G, H:  6, 6, 3
    Auxiliary basis highest AM E, G, H:  7, 7, 4
    Onebody   basis highest AM E, G, H:  -, -, -
    Solid Harmonics ordering:            Gaussian

*** tstart() called on Joses-MacBook-Pro-2.local
*** at Thu Jul 17 14:24:39 2025

   => Loading Basis Set <=

    Name: CC-PVDZ
    Role: ORBITAL
    Keyword: BASIS
    atoms 1-2 entry F          line   228 file /Users/joseantoniorodriguesromero/anaconda3/share/psi4/basis/cc-pvdz.gbs 


         ---------------------------------------------------------
                                   SCF
               by Justin Turney, Rob Parrish, Andy Simmonett
                          and Daniel G. A. Smith
                              UKS Reference
                        1 Threads,    500 MiB Core
         ---------------------------------------------------------

  ==> Geometry <==

    Molecular point group: d2h
    Full point group: D_inf_h

    Geometry (in Angstrom), charge = 1, multiplicity = 2:

       Center              X                  Y                   Z               Mass       
    ------------   -----------------  -----------------  -----------------  -----------------
         F           -0.000000000000     0.651280389399     0.000000000000    18.998403162730
         F            0.000000000000    -0.651280389399     0.000000000000    18.998403162730

  Running in d2h symmetry.

  Rotational constants: A = ************  B =      1.04596  C =      1.04596 [cm^-1]
  Rotational constants: A = ************  B =  31356.97078  C =  31356.97078 [MHz]
  Nuclear repulsion =   32.906989648360657

  Charge       = 1
  Multiplicity = 2
  Electrons    = 17
  Nalpha       = 9
  Nbeta        = 8

  ==> Algorithm <==

  SCF Algorithm Type is DF.
  DIIS enabled.
  MOM disabled.
  Fractional occupation disabled.
  Guess Type is READ.
  Energy threshold   = 1.00e-08
  Density threshold  = 1.00e-08
  Integral threshold = 1.00e-12

  ==> Primary Basis <==

  Basis Set: CC-PVDZ
    Blend: CC-PVDZ
    Number of shells: 12
    Number of basis functions: 28
    Number of Cartesian functions: 30
    Spherical Harmonics?: true
    Max angular momentum: 2

  ==> DFT Potential <==

   => LibXC <=

    Version 6.2.2
    S. Lehtola, C. Steigemann, M. J.T. Oliveira, and M. A.L. Marques.,  SoftwareX 7, 1–5 (2018) (10.1016/j.softx.2017.11.002)

   => Composite Functional: B3LYP <= 

    B3LYP Hyb-GGA Exchange-Correlation Functional

    P. J. Stephens, F. J. Devlin, C. F. Chabalowski, and M. J. Frisch.,  J. Phys. Chem. 98, 11623 (1994) (10.1021/j100096a001)

    Deriv               =              1
    GGA                 =           TRUE
    Meta                =          FALSE

    Exchange Hybrid     =           TRUE
    MP2 Hybrid          =          FALSE

   => Exchange Functionals <=

    0.0800   Slater exchange
    0.7200         Becke 88

   => Exact (HF) Exchange <=

    0.2000               HF 

   => Correlation Functionals <=

    0.1900   Vosko, Wilk & Nusair (VWN5_RPA)
    0.8100   Lee, Yang & Parr

   => LibXC Density Thresholds  <==

    XC_HYB_GGA_XC_B3LYP:  1.00E-15 

   => Molecular Quadrature <=

    Radial Scheme          =       TREUTLER
    Pruning Scheme         =           NONE
    Nuclear Scheme         =       TREUTLER

    Blocking Scheme        =         OCTREE
    BS radius alpha        =              1
    Pruning alpha          =              1
    Radial Points          =             75
    Spherical Points       =            302
    Total Points           =          42020
    Total Blocks           =            376
    Max Points             =            255
    Max Functions          =             28
    Weights Tolerance      =       1.00E-15

   => Loading Basis Set <=

    Name: (CC-PVDZ AUX)
    Role: JKFIT
    Keyword: DF_BASIS_SCF
    atoms 1-2 entry F          line   271 file /Users/joseantoniorodriguesromero/anaconda3/share/psi4/basis/cc-pvdz-jkfit.gbs 

   => Loading Basis Set <=

    Name: CC-PVDZ
    Role: ORBITAL
    Keyword: BASIS
    atoms 1-2 entry F          line   228 file /Users/joseantoniorodriguesromero/anaconda3/share/psi4/basis/cc-pvdz.gbs 

  Reading orbitals from file /tmp/doublet_FF.default.74675.180.npy, no projection.

  ==> Integral Setup <==

  DFHelper Memory: AOs need 0.001 GiB; user supplied 0.333 GiB. 
  Using in-core AOs.

  ==> MemDFJK: Density-Fitted J/K Matrices <==

    J tasked:                   Yes
    K tasked:                   Yes
    wK tasked:                   No
    OpenMP threads:               1
    Memory [MiB]:               340
    Algorithm:                 Core
    Schwarz Cutoff:           1E-12
    Mask sparsity (%):       0.0000
    Fitting Condition:        1E-10

   => Auxiliary Basis Set <=

  Basis Set: (CC-PVDZ AUX)
    Blend: CC-PVDZ-JKFIT
    Number of shells: 48
    Number of basis functions: 140
    Number of Cartesian functions: 162
    Spherical Harmonics?: true
    Max angular momentum: 3

  Cached 100.0% of DFT collocation blocks in 0.034 [GiB].

  Minimum eigenvalue in the overlap matrix is 6.2774423718E-02.
  Reciprocal condition number of the overlap matrix is 2.6764804908E-02.
    Using symmetric orthogonalization.

  ==> Pre-Iterations <==

  SCF Guess: Orbitals guess was supplied from a previous computation.

   -------------------------------------------------------
    Irrep   Nso     Nmo     Nalpha   Nbeta   Ndocc  Nsocc
   -------------------------------------------------------
     Ag         7       7       3       3       3       0
     B1g        3       3       1       0       0       1
     B2g        1       1       0       0       0       0
     B3g        3       3       1       1       1       0
     Au         1       1       0       0       0       0
     B1u        3       3       1       1       1       0
     B2u        7       7       2       2       2       0
     B3u        3       3       1       1       1       0
   -------------------------------------------------------
    Total      28      28       9       8       8       1
   -------------------------------------------------------

  ==> Iterations <==

                           Total Energy        Delta E     RMS |[F,P]|

   @DF-UKS iter   0:  -198.93858410867543   -1.98939e+02   1.82788e-03 
   @DF-UKS iter   1:  -198.94334335605342   -4.75925e-03   4.15253e-04 ADIIS/DIIS
   @DF-UKS iter   2:  -198.94334805465354   -4.69860e-06   1.74123e-04 ADIIS/DIIS/DAMP=1%
   @DF-UKS iter   3:  -198.94335923668538   -1.11820e-05   2.24074e-06 DIIS/DAMP=1%
   @DF-UKS iter   4:  -198.94334796962715    1.12671e-05   1.40902e-06 DIIS/DAMP=1%
   @DF-UKS iter   5:  -198.94334958525911   -1.61563e-06   2.20838e-07 DIIS/DAMP=1%
   @DF-UKS iter   6:  -198.94334912893308    4.56326e-07   3.73266e-08 DIIS/DAMP=1%
   @DF-UKS iter   7:  -198.94334911857109    1.03620e-08   2.28005e-09 DIIS/DAMP=1%
   @DF-UKS iter   8:  -198.94334911779077    7.80318e-10   5.36426e-11 DIIS/DAMP=1%
  Energy and wave function converged.


  ==> Post-Iterations <==

   Electrons on quadrature grid:
      Nalpha   =    9.0000005216 ; deviation = 5.216e-07
      Nbeta    =    8.0000002658 ; deviation = 2.658e-07
      Ntotal   =   17.0000007874 ; deviation = 7.874e-07 

   @Spin Contamination Metric:   2.239906554E-03
   @S^2 Expected:                7.500000000E-01
   @S^2 Observed:                7.522399066E-01
   @S   Expected:                5.000000000E-01
   @S   Observed:                5.000000000E-01

    Orbital Energies [Eh]
    ---------------------

    Alpha Occupied:                                                       

       1Ag   -25.374034     1B2u  -25.374006     2Ag    -1.944387  
       2B2u   -1.603821     3Ag    -1.124496     1B3u   -1.106348  
       1B1u   -1.056303     1B1g   -0.946701     1B3g   -0.892334  

    Alpha Virtual:                                                        

       3B2u   -0.581564     2B3u    0.557881     2B1u    0.590181  
       4B2u    0.609966     2B1g    0.753622     2B3g    0.782315  
       4Ag     0.813882     5Ag     1.020972     5B2u    1.577933  
       6Ag     2.565055     3B3u    2.608781     3B1u    2.646743  
       1B2g    2.912511     7Ag     2.914290     6B2u    3.011874  
       1Au     3.011889     3B1g    3.348737     3B3g    3.388913  
       7B2u    4.294568  

    Beta Occupied:                                                        

       1Ag   -25.355699     1B2u  -25.355622     2Ag    -1.905968  
       2B2u   -1.551630     3Ag    -1.103578     1B1u   -1.040055  
       1B3u   -0.990161     1B3g   -0.873360  

    Beta Virtual:                                                         

       1B1g   -0.742061     3B2u   -0.558043     2B1u    0.598875  
       2B3u    0.614418     4B2u    0.619870     2B3g    0.790373  
       2B1g    0.804188     4Ag     0.825580     5Ag     1.038135  
       5B2u    1.598625     6Ag     2.590706     3B1u    2.653987  
       3B3u    2.657365     1B2g    2.961453     7Ag     2.964210  
       1Au     3.063077     6B2u    3.065807     3B3g    3.397300  
       3B1g    3.402600     7B2u    4.318322  

    Final Occupation by Irrep:
             Ag   B1g   B2g   B3g    Au   B1u   B2u   B3u 
    DOCC [     3,    0,    0,    1,    0,    1,    2,    1 ]
    SOCC [     0,    1,    0,    0,    0,    0,    0,    0 ]
    NA   [     3,    1,    0,    1,    0,    1,    2,    1 ]
    NB   [     3,    0,    0,    1,    0,    1,    2,    1 ]

  @DF-UKS Final Energy:  -198.94334911779077

   => Energetics <=

    Nuclear Repulsion Energy =             32.9069896483606570
    One-Electron Energy =                -334.3362378771425938
    Two-Electron Energy =                 118.8837011964577073
    DFT Exchange-Correlation Energy =     -16.3978020854665267
    Empirical Dispersion Energy =           0.0000000000000000
    VV10 Nonlocal Energy =                  0.0000000000000000
    Total Energy =                       -198.9433491177907740

  UHF NO Occupations:
  HONO-2 :    2B2u 1.9998470
  HONO-1 :    1B3u 1.9991585
  HONO-0 :    1B1g 1.0000000
  LUNO+0 :    2B3u 0.0008415
  LUNO+1 :    3B2u 0.0001530
  LUNO+2 :    4 Ag 0.0000848
  LUNO+3 :    2B1u 0.0000191


Computation Completed


Properties will be evaluated at   0.000000,   0.000000,   0.000000 [a0]

Properties computed using the SCF density matrix


 Multipole Moments:

 ------------------------------------------------------------------------------------
     Multipole            Electronic (a.u.)      Nuclear  (a.u.)        Total (a.u.)
 ------------------------------------------------------------------------------------

 L = 1.  Multiply by 2.5417464519 to convert [e a0] to [Debye]
 Dipole X            :          0.0000000            0.0000000            0.0000000
 Dipole Y            :          0.0000000            0.0000000            0.0000000
 Dipole Z            :          0.0000000            0.0000000            0.0000000
 Magnitude           :                                                    0.0000000

 ------------------------------------------------------------------------------------

*** tstop() called on Joses-MacBook-Pro-2.local at Thu Jul 17 14:24:40 2025
Module time:
	user time   =       3.43 seconds =       0.06 minutes
	system time =       2.56 seconds =       0.04 minutes
	total time  =          1 seconds =       0.02 minutes
Total time:
	user time   =      15.98 seconds =       0.27 minutes
	system time =      16.74 seconds =       0.28 minutes
	total time  =          3 seconds =       0.05 minutes

*** tstart() called on Joses-MacBook-Pro-2.local
*** at Thu Jul 17 14:24:40 2025


         ------------------------------------------------------------
                                   SCF GRAD                          
                          Rob Parrish, Justin Turney,                
                       Andy Simmonett, and Alex Sokolov              
         ------------------------------------------------------------

  ==> Geometry <==

    Molecular point group: d2h
    Full point group: D_inf_h

    Geometry (in Angstrom), charge = 1, multiplicity = 2:

       Center              X                  Y                   Z               Mass       
    ------------   -----------------  -----------------  -----------------  -----------------
         F           -0.000000000000     0.651280389399     0.000000000000    18.998403162730
         F            0.000000000000    -0.651280389399     0.000000000000    18.998403162730

  Nuclear repulsion =   32.906989648360657

  ==> Basis Set <==

  Basis Set: CC-PVDZ
    Blend: CC-PVDZ
    Number of shells: 12
    Number of basis functions: 28
    Number of Cartesian functions: 30
    Spherical Harmonics?: true
    Max angular momentum: 2

  ==> DFJKGrad: Density-Fitted SCF Gradients <==

    Gradient:                    1
    J tasked:                  Yes
    K tasked:                  Yes
    wK tasked:                  No
    OpenMP threads:              1
    Integrals threads:           1
    Memory [MiB]:              375
    Schwarz Cutoff:          1E-12
    Fitting Condition:       1E-10

   => Auxiliary Basis Set <=

  Basis Set: (CC-PVDZ AUX)
    Blend: CC-PVDZ-JKFIT
    Number of shells: 48
    Number of basis functions: 140
    Number of Cartesian functions: 162
    Spherical Harmonics?: true
    Max angular momentum: 3

  ==> DFT Potential <==

   => LibXC <=

    Version 6.2.2
    S. Lehtola, C. Steigemann, M. J.T. Oliveira, and M. A.L. Marques.,  SoftwareX 7, 1–5 (2018) (10.1016/j.softx.2017.11.002)

   => Composite Functional: B3LYP <= 

    B3LYP Hyb-GGA Exchange-Correlation Functional

    P. J. Stephens, F. J. Devlin, C. F. Chabalowski, and M. J. Frisch.,  J. Phys. Chem. 98, 11623 (1994) (10.1021/j100096a001)

    Deriv               =              1
    GGA                 =           TRUE
    Meta                =          FALSE

    Exchange Hybrid     =           TRUE
    MP2 Hybrid          =          FALSE

   => Exchange Functionals <=

    0.0800   Slater exchange
    0.7200         Becke 88

   => Exact (HF) Exchange <=

    0.2000               HF 

   => Correlation Functionals <=

    0.1900   Vosko, Wilk & Nusair (VWN5_RPA)
    0.8100   Lee, Yang & Parr

   => LibXC Density Thresholds  <==

    XC_HYB_GGA_XC_B3LYP:  1.00E-15 

   => Molecular Quadrature <=

    Radial Scheme          =       TREUTLER
    Pruning Scheme         =           NONE
    Nuclear Scheme         =       TREUTLER

    Blocking Scheme        =         OCTREE
    BS radius alpha        =              1
    Pruning alpha          =              1
    Radial Points          =             75
    Spherical Points       =            302
    Total Points           =          42020
    Total Blocks           =            376
    Max Points             =            255
    Max Functions          =             28
    Weights Tolerance      =       1.00E-15


  -Total Gradient:
     Atom            X                  Y                   Z
    ------   -----------------  -----------------  -----------------
       1        0.000000000000    -0.002970709859    -0.000000000000
       2       -0.000000000000     0.002970709859     0.000000000000


*** tstop() called on Joses-MacBook-Pro-2.local at Thu Jul 17 14:24:40 2025
Module time:
	user time   =       0.61 seconds =       0.01 minutes
	system time =       1.12 seconds =       0.02 minutes
	total time  =          0 seconds =       0.00 minutes
Total time:
	user time   =      16.59 seconds =       0.28 minutes
	system time =      17.86 seconds =       0.30 minutes
	total time  =          3 seconds =       0.05 minutes

    			-----------------------------------------

    			 OPTKING 3.0: for geometry optimizations 

    			     By R.A. King, Bethel University     

    			        with contributions from          

    			    A.V. Copan, J. Cayton, A. Heide      

    			-----------------------------------------

    
	                            ===> Fragment 1 <== 

	 Z (Atomic Numbers)          Masses                          Geom                  
	       9.000000            18.998403         -0.00000000  1.23074157  0.00000000   
	       9.000000            18.998403          0.00000000 -1.23074157  0.00000000   

	 - Coordinate -           - BOHR/RAD -       - ANG/DEG -
	 R(1,2)           =         2.461483           1.302561


	        --- Internal Coordinate Step in ANG or DEG, aJ/ANG or AJ/DEG ---
	-------------------------------------------------------------------------------
	           Coordinate      Previous         Force          Change          New 
	           ----------      --------        ------          ------        ------
	               R(1,2)       1.30256        0.02447        0.00224       1.30480
	-------------------------------------------------------------------------------

	                                 ==> Convergence Check <==                                  
    
	Measures of convergence in internal coordinates in au.
    
	Criteria marked as inactive (o), active & met (*), and active & unmet ( ).

	----------------------------------------------------------------------------------------------
	   Step    Total Energy     Delta E     Max Force     RMS Force      Max Disp      RMS Disp   
	----------------------------------------------------------------------------------------------
	  Convergence Criteria     1.00e-06 *    3.00e-04 *             o    1.20e-03 *             o
	----------------------------------------------------------------------------------------------
	     4    -198.94334912   -9.39e-05      2.97e-03      2.97e-03 o    4.24e-03      4.24e-03 o  ~
	----------------------------------------------------------------------------------------------

Next Geometry in Ang 
	Fragment 1 (Ang)

	    F  -0.0000000000   0.6524017193   0.0000000000
	    F   0.0000000000  -0.6524017193   0.0000000000


    Structure for next step:
    Molecular point group: d2h
    Full point group: D_inf_h

    Geometry (in Angstrom), charge = 1, multiplicity = 2:

    F           -0.000000000000     0.652401719258     0.000000000000
    F            0.000000000000    -0.652401719258     0.000000000000


Scratch directory: /tmp/
gradient() will perform analytic gradient computation.
   => Libint2 <=

    Primary   basis highest AM E, G, H:  6, 6, 3
    Auxiliary basis highest AM E, G, H:  7, 7, 4
    Onebody   basis highest AM E, G, H:  -, -, -
    Solid Harmonics ordering:            Gaussian

*** tstart() called on Joses-MacBook-Pro-2.local
*** at Thu Jul 17 14:24:40 2025

   => Loading Basis Set <=

    Name: CC-PVDZ
    Role: ORBITAL
    Keyword: BASIS
    atoms 1-2 entry F          line   228 file /Users/joseantoniorodriguesromero/anaconda3/share/psi4/basis/cc-pvdz.gbs 


         ---------------------------------------------------------
                                   SCF
               by Justin Turney, Rob Parrish, Andy Simmonett
                          and Daniel G. A. Smith
                              UKS Reference
                        1 Threads,    500 MiB Core
         ---------------------------------------------------------

  ==> Geometry <==

    Molecular point group: d2h
    Full point group: D_inf_h

    Geometry (in Angstrom), charge = 1, multiplicity = 2:

       Center              X                  Y                   Z               Mass       
    ------------   -----------------  -----------------  -----------------  -----------------
         F           -0.000000000000     0.652401719258     0.000000000000    18.998403162730
         F            0.000000000000    -0.652401719258     0.000000000000    18.998403162730

  Running in d2h symmetry.

  Rotational constants: A = ************  B =      1.04236  C =      1.04236 [cm^-1]
  Rotational constants: A = ************  B =  31249.27244  C =  31249.27244 [MHz]
  Nuclear repulsion =   32.850430033358606

  Charge       = 1
  Multiplicity = 2
  Electrons    = 17
  Nalpha       = 9
  Nbeta        = 8

  ==> Algorithm <==

  SCF Algorithm Type is DF.
  DIIS enabled.
  MOM disabled.
  Fractional occupation disabled.
  Guess Type is READ.
  Energy threshold   = 1.00e-08
  Density threshold  = 1.00e-08
  Integral threshold = 1.00e-12

  ==> Primary Basis <==

  Basis Set: CC-PVDZ
    Blend: CC-PVDZ
    Number of shells: 12
    Number of basis functions: 28
    Number of Cartesian functions: 30
    Spherical Harmonics?: true
    Max angular momentum: 2

  ==> DFT Potential <==

   => LibXC <=

    Version 6.2.2
    S. Lehtola, C. Steigemann, M. J.T. Oliveira, and M. A.L. Marques.,  SoftwareX 7, 1–5 (2018) (10.1016/j.softx.2017.11.002)

   => Composite Functional: B3LYP <= 

    B3LYP Hyb-GGA Exchange-Correlation Functional

    P. J. Stephens, F. J. Devlin, C. F. Chabalowski, and M. J. Frisch.,  J. Phys. Chem. 98, 11623 (1994) (10.1021/j100096a001)

    Deriv               =              1
    GGA                 =           TRUE
    Meta                =          FALSE

    Exchange Hybrid     =           TRUE
    MP2 Hybrid          =          FALSE

   => Exchange Functionals <=

    0.0800   Slater exchange
    0.7200         Becke 88

   => Exact (HF) Exchange <=

    0.2000               HF 

   => Correlation Functionals <=

    0.1900   Vosko, Wilk & Nusair (VWN5_RPA)
    0.8100   Lee, Yang & Parr

   => LibXC Density Thresholds  <==

    XC_HYB_GGA_XC_B3LYP:  1.00E-15 

   => Molecular Quadrature <=

    Radial Scheme          =       TREUTLER
    Pruning Scheme         =           NONE
    Nuclear Scheme         =       TREUTLER

    Blocking Scheme        =         OCTREE
    BS radius alpha        =              1
    Pruning alpha          =              1
    Radial Points          =             75
    Spherical Points       =            302
    Total Points           =          42020
    Total Blocks           =            376
    Max Points             =            256
    Max Functions          =             28
    Weights Tolerance      =       1.00E-15

   => Loading Basis Set <=

    Name: (CC-PVDZ AUX)
    Role: JKFIT
    Keyword: DF_BASIS_SCF
[...]
	           ----------      --------        ------          ------        ------
	               R(1,2)       1.30480        0.00728        0.00067       1.30547
	-------------------------------------------------------------------------------

	                                 ==> Convergence Check <==                                  
    
	Measures of convergence in internal coordinates in au.
    
	Criteria marked as inactive (o), active & met (*), and active & unmet ( ).

	----------------------------------------------------------------------------------------------
	   Step    Total Energy     Delta E     Max Force     RMS Force      Max Disp      RMS Disp   
	----------------------------------------------------------------------------------------------
	  Convergence Criteria     1.00e-06 *    3.00e-04 *             o    1.20e-03 *             o
	----------------------------------------------------------------------------------------------
	     5    -198.94335729   -8.17e-06      8.84e-04      8.84e-04 o    1.27e-03      1.27e-03 o  ~
	----------------------------------------------------------------------------------------------

Next Geometry in Ang 
	Fragment 1 (Ang)

	    F  -0.0000000000   0.6527374989   0.0000000000
	    F   0.0000000000  -0.6527374989   0.0000000000


    Structure for next step:
    Molecular point group: d2h
    Full point group: D_inf_h

    Geometry (in Angstrom), charge = 1, multiplicity = 2:

    F           -0.000000000000     0.652737498859     0.000000000000
    F            0.000000000000    -0.652737498859     0.000000000000


Scratch directory: /tmp/
gradient() will perform analytic gradient computation.
   => Libint2 <=

    Primary   basis highest AM E, G, H:  6, 6, 3
    Auxiliary basis highest AM E, G, H:  7, 7, 4
    Onebody   basis highest AM E, G, H:  -, -, -
    Solid Harmonics ordering:            Gaussian

*** tstart() called on Joses-MacBook-Pro-2.local
*** at Thu Jul 17 14:24:41 2025

   => Loading Basis Set <=

    Name: CC-PVDZ
    Role: ORBITAL
    Keyword: BASIS
    atoms 1-2 entry F          line   228 file /Users/joseantoniorodriguesromero/anaconda3/share/psi4/basis/cc-pvdz.gbs 


         ---------------------------------------------------------
                                   SCF
               by Justin Turney, Rob Parrish, Andy Simmonett
                          and Daniel G. A. Smith
                              UKS Reference
                        1 Threads,    500 MiB Core
         ---------------------------------------------------------

  ==> Geometry <==

    Molecular point group: d2h
    Full point group: D_inf_h

    Geometry (in Angstrom), charge = 1, multiplicity = 2:

       Center              X                  Y                   Z               Mass       
    ------------   -----------------  -----------------  -----------------  -----------------
         F           -0.000000000000     0.652737498859     0.000000000000    18.998403162730
         F            0.000000000000    -0.652737498859     0.000000000000    18.998403162730

  Running in d2h symmetry.

  Rotational constants: A = ************  B =      1.04129  C =      1.04129 [cm^-1]
  Rotational constants: A = ************  B =  31217.13037  C =  31217.13037 [MHz]
  Nuclear repulsion =   32.833531196841356

  Charge       = 1
  Multiplicity = 2
  Electrons    = 17
  Nalpha       = 9
  Nbeta        = 8

  ==> Algorithm <==

  SCF Algorithm Type is DF.
  DIIS enabled.
  MOM disabled.
  Fractional occupation disabled.
  Guess Type is READ.
  Energy threshold   = 1.00e-08
  Density threshold  = 1.00e-08
  Integral threshold = 1.00e-12

  ==> Primary Basis <==

  Basis Set: CC-PVDZ
    Blend: CC-PVDZ
    Number of shells: 12
    Number of basis functions: 28
    Number of Cartesian functions: 30
    Spherical Harmonics?: true
    Max angular momentum: 2

  ==> DFT Potential <==

   => LibXC <=

    Version 6.2.2
    S. Lehtola, C. Steigemann, M. J.T. Oliveira, and M. A.L. Marques.,  SoftwareX 7, 1–5 (2018) (10.1016/j.softx.2017.11.002)

   => Composite Functional: B3LYP <= 

    B3LYP Hyb-GGA Exchange-Correlation Functional

    P. J. Stephens, F. J. Devlin, C. F. Chabalowski, and M. J. Frisch.,  J. Phys. Chem. 98, 11623 (1994) (10.1021/j100096a001)

    Deriv               =              1
    GGA                 =           TRUE
    Meta                =          FALSE

    Exchange Hybrid     =           TRUE
    MP2 Hybrid          =          FALSE

   => Exchange Functionals <=

    0.0800   Slater exchange
    0.7200         Becke 88

   => Exact (HF) Exchange <=

    0.2000               HF 

   => Correlation Functionals <=

    0.1900   Vosko, Wilk & Nusair (VWN5_RPA)
    0.8100   Lee, Yang & Parr

   => LibXC Density Thresholds  <==

    XC_HYB_GGA_XC_B3LYP:  1.00E-15 

   => Molecular Quadrature <=

    Radial Scheme          =       TREUTLER
    Pruning Scheme         =           NONE
    Nuclear Scheme         =       TREUTLER

    Blocking Scheme        =         OCTREE
    BS radius alpha        =              1
    Pruning alpha          =              1
    Radial Points          =             75
    Spherical Points       =            302
    Total Points           =          42020
    Total Blocks           =            376
    Max Points             =            256
    Max Functions          =             28
    Weights Tolerance      =       1.00E-15

   => Loading Basis Set <=

    Name: (CC-PVDZ AUX)
    Role: JKFIT
    Keyword: DF_BASIS_SCF
    atoms 1-2 entry F          line   271 file /Users/joseantoniorodriguesromero/anaconda3/share/psi4/basis/cc-pvdz-jkfit.gbs 

   => Loading Basis Set <=

    Name: CC-PVDZ
    Role: ORBITAL
    Keyword: BASIS
    atoms 1-2 entry F          line   228 file /Users/joseantoniorodriguesromero/anaconda3/share/psi4/basis/cc-pvdz.gbs 

  Reading orbitals from file /tmp/doublet_FF.default.74675.180.npy, no projection.

  ==> Integral Setup <==

  DFHelper Memory: AOs need 0.001 GiB; user supplied 0.333 GiB. 
  Using in-core AOs.

  ==> MemDFJK: Density-Fitted J/K Matrices <==

    J tasked:                   Yes
    K tasked:                   Yes
    wK tasked:                   No
    OpenMP threads:               1
    Memory [MiB]:               340
    Algorithm:                 Core
    Schwarz Cutoff:           1E-12
    Mask sparsity (%):       0.0000
    Fitting Condition:        1E-10

   => Auxiliary Basis Set <=

  Basis Set: (CC-PVDZ AUX)
    Blend: CC-PVDZ-JKFIT
    Number of shells: 48
    Number of basis functions: 140
    Number of Cartesian functions: 162
    Spherical Harmonics?: true
    Max angular momentum: 3

  Cached 100.0% of DFT collocation blocks in 0.034 [GiB].

  Minimum eigenvalue in the overlap matrix is 6.3214520898E-02.
  Reciprocal condition number of the overlap matrix is 2.6982246020E-02.
    Using symmetric orthogonalization.

  ==> Pre-Iterations <==

  SCF Guess: Orbitals guess was supplied from a previous computation.

   -------------------------------------------------------
    Irrep   Nso     Nmo     Nalpha   Nbeta   Ndocc  Nsocc
   -------------------------------------------------------
     Ag         7       7       3       3       3       0
     B1g        3       3       1       0       0       1
     B2g        1       1       0       0       0       0
     B3g        3       3       1       1       1       0
     Au         1       1       0       0       0       0
     B1u        3       3       1       1       1       0
     B2u        7       7       2       2       2       0
     B3u        3       3       1       1       1       0
   -------------------------------------------------------
    Total      28      28       9       8       8       1
   -------------------------------------------------------

  ==> Iterations <==

                           Total Energy        Delta E     RMS |[F,P]|

   @DF-UKS iter   0:  -198.94293673826814   -1.98943e+02   1.60468e-04 
   @DF-UKS iter   1:  -198.94335797466016   -4.21236e-04   3.64045e-05 DIIS
   @DF-UKS iter   2:  -198.94335801075769   -3.60975e-08   1.52838e-05 DIIS/DAMP=1%
   @DF-UKS iter   3:  -198.94335883584017   -8.25082e-07   1.73392e-07 DIIS/DAMP=1%
   @DF-UKS iter   4:  -198.94335793503203    9.00808e-07   1.08585e-07 DIIS/DAMP=1%
   @DF-UKS iter   5:  -198.94335805443839   -1.19406e-07   1.99435e-08 DIIS/DAMP=1%
   @DF-UKS iter   6:  -198.94335801961742    3.48210e-08   3.41837e-09 DIIS/DAMP=1%
   @DF-UKS iter   7:  -198.94335801896580    6.51625e-10   1.88557e-10 DIIS/DAMP=1%
  Energy and wave function converged.


  ==> Post-Iterations <==

   Electrons on quadrature grid:
      Nalpha   =    9.0000005640 ; deviation = 5.640e-07
      Nbeta    =    8.0000002953 ; deviation = 2.953e-07
      Ntotal   =   17.0000008594 ; deviation = 8.594e-07 

   @Spin Contamination Metric:   2.241726702E-03
   @S^2 Expected:                7.500000000E-01
   @S^2 Observed:                7.522417267E-01
   @S   Expected:                5.000000000E-01
   @S   Observed:                5.000000000E-01

    Orbital Energies [Eh]
    ---------------------

    Alpha Occupied:                                                       

       1Ag   -25.374038     1B2u  -25.374010     2Ag    -1.942079  
       2B2u   -1.604523     3Ag    -1.123670     1B3u   -1.105301  
       1B1u   -1.055267     1B1g   -0.947053     1B3g   -0.892709  

    Alpha Virtual:                                                        

       3B2u   -0.584032     2B3u    0.557667     2B1u    0.589951  
       4B2u    0.610743     2B1g    0.753806     2B3g    0.782499  
       4Ag     0.814586     5Ag     1.021267     5B2u    1.576661  
       6Ag     2.563114     3B3u    2.612722     3B1u    2.650680  
       1B2g    2.913811     7Ag     2.915575     6B2u    3.011422  
       1Au     3.011439     3B1g    3.343947     3B3g    3.384095  
       7B2u    4.288234  

    Beta Occupied:                                                        

       1Ag   -25.355710     1B2u  -25.355633     2Ag    -1.903607  
       2B2u   -1.552343     3Ag    -1.102795     1B1u   -1.039018  
       1B3u   -0.989045     1B3g   -0.873745  

    Beta Virtual:                                                         

       1B1g   -0.742525     3B2u   -0.560553     2B1u    0.598642  
       2B3u    0.614194     4B2u    0.620657     2B3g    0.790556  
       2B1g    0.804365     4Ag     0.826304     5Ag     1.038467  
       5B2u    1.597336     6Ag     2.588705     3B1u    2.657936  
       3B3u    2.661346     1B2g    2.962759     7Ag     2.965514  
       1Au     3.062612     6B2u    3.065340     3B3g    3.392477  
       3B1g    3.397796     7B2u    4.311993  

    Final Occupation by Irrep:
             Ag   B1g   B2g   B3g    Au   B1u   B2u   B3u 
    DOCC [     3,    0,    0,    1,    0,    1,    2,    1 ]
    SOCC [     0,    1,    0,    0,    0,    0,    0,    0 ]
    NA   [     3,    1,    0,    1,    0,    1,    2,    1 ]
    NB   [     3,    0,    0,    1,    0,    1,    2,    1 ]

  @DF-UKS Final Energy:  -198.94335801896580

   => Energetics <=

    Nuclear Repulsion Energy =             32.8335311968413563
    One-Electron Energy =                -334.1983225677935252
    Two-Electron Energy =                 118.8176748780434764
    DFT Exchange-Correlation Energy =     -16.3962415260571035
    Empirical Dispersion Energy =           0.0000000000000000
    VV10 Nonlocal Energy =                  0.0000000000000000
    Total Energy =                       -198.9433580189657960

  UHF NO Occupations:
  HONO-2 :    2B2u 1.9998476
  HONO-1 :    1B3u 1.9991571
  HONO-0 :    1B1g 1.0000000
  LUNO+0 :    2B3u 0.0008429
  LUNO+1 :    3B2u 0.0001524
  LUNO+2 :    4 Ag 0.0000848
  LUNO+3 :    2B1u 0.0000192


Computation Completed


Properties will be evaluated at   0.000000,   0.000000,   0.000000 [a0]

Properties computed using the SCF density matrix


 Multipole Moments:

 ------------------------------------------------------------------------------------
     Multipole            Electronic (a.u.)      Nuclear  (a.u.)        Total (a.u.)
 ------------------------------------------------------------------------------------

 L = 1.  Multiply by 2.5417464519 to convert [e a0] to [Debye]
 Dipole X            :          0.0000000            0.0000000            0.0000000
 Dipole Y            :          0.0000000            0.0000000            0.0000000
 Dipole Z            :          0.0000000            0.0000000            0.0000000
 Magnitude           :                                                    0.0000000

 ------------------------------------------------------------------------------------

*** tstop() called on Joses-MacBook-Pro-2.local at Thu Jul 17 14:24:41 2025
Module time:
	user time   =       3.05 seconds =       0.05 minutes
	system time =       2.34 seconds =       0.04 minutes
	total time  =          0 seconds =       0.00 minutes
Total time:
	user time   =      22.75 seconds =       0.38 minutes
	system time =      24.61 seconds =       0.41 minutes
	total time  =          4 seconds =       0.07 minutes

*** tstart() called on Joses-MacBook-Pro-2.local
*** at Thu Jul 17 14:24:41 2025


         ------------------------------------------------------------
                                   SCF GRAD                          
                          Rob Parrish, Justin Turney,                
                       Andy Simmonett, and Alex Sokolov              
         ------------------------------------------------------------

  ==> Geometry <==

    Molecular point group: d2h
    Full point group: D_inf_h

    Geometry (in Angstrom), charge = 1, multiplicity = 2:

       Center              X                  Y                   Z               Mass       
    ------------   -----------------  -----------------  -----------------  -----------------
         F           -0.000000000000     0.652737498859     0.000000000000    18.998403162730
         F            0.000000000000    -0.652737498859     0.000000000000    18.998403162730

  Nuclear repulsion =   32.833531196841356

  ==> Basis Set <==

  Basis Set: CC-PVDZ
    Blend: CC-PVDZ
    Number of shells: 12
    Number of basis functions: 28
    Number of Cartesian functions: 30
    Spherical Harmonics?: true
    Max angular momentum: 2

  ==> DFJKGrad: Density-Fitted SCF Gradients <==

    Gradient:                    1
    J tasked:                  Yes
    K tasked:                  Yes
    wK tasked:                  No
    OpenMP threads:              1
    Integrals threads:           1
    Memory [MiB]:              375
    Schwarz Cutoff:          1E-12
    Fitting Condition:       1E-10

   => Auxiliary Basis Set <=

  Basis Set: (CC-PVDZ AUX)
    Blend: CC-PVDZ-JKFIT
    Number of shells: 48
    Number of basis functions: 140
    Number of Cartesian functions: 162
    Spherical Harmonics?: true
    Max angular momentum: 3

  ==> DFT Potential <==

   => LibXC <=

    Version 6.2.2
    S. Lehtola, C. Steigemann, M. J.T. Oliveira, and M. A.L. Marques.,  SoftwareX 7, 1–5 (2018) (10.1016/j.softx.2017.11.002)

   => Composite Functional: B3LYP <= 

    B3LYP Hyb-GGA Exchange-Correlation Functional

    P. J. Stephens, F. J. Devlin, C. F. Chabalowski, and M. J. Frisch.,  J. Phys. Chem. 98, 11623 (1994) (10.1021/j100096a001)

    Deriv               =              1
    GGA                 =           TRUE
    Meta                =          FALSE

    Exchange Hybrid     =           TRUE
    MP2 Hybrid          =          FALSE

   => Exchange Functionals <=

    0.0800   Slater exchange
    0.7200         Becke 88

   => Exact (HF) Exchange <=

    0.2000               HF 

   => Correlation Functionals <=

    0.1900   Vosko, Wilk & Nusair (VWN5_RPA)
    0.8100   Lee, Yang & Parr

   => LibXC Density Thresholds  <==

    XC_HYB_GGA_XC_B3LYP:  1.00E-15 

   => Molecular Quadrature <=

    Radial Scheme          =       TREUTLER
    Pruning Scheme         =           NONE
    Nuclear Scheme         =       TREUTLER

    Blocking Scheme        =         OCTREE
    BS radius alpha        =              1
    Pruning alpha          =              1
    Radial Points          =             75
    Spherical Points       =            302
    Total Points           =          42020
    Total Blocks           =            376
    Max Points             =            256
    Max Functions          =             28
    Weights Tolerance      =       1.00E-15


  -Total Gradient:
     Atom            X                  Y                   Z
    ------   -----------------  -----------------  -----------------
       1        0.000000000000    -0.000264908695     0.000000000000
       2       -0.000000000000     0.000264908695     0.000000000000


*** tstop() called on Joses-MacBook-Pro-2.local at Thu Jul 17 14:24:41 2025
Module time:
	user time   =       0.67 seconds =       0.01 minutes
	system time =       1.09 seconds =       0.02 minutes
	total time  =          0 seconds =       0.00 minutes
Total time:
	user time   =      23.42 seconds =       0.39 minutes
	system time =      25.70 seconds =       0.43 minutes
	total time  =          4 seconds =       0.07 minutes

    			-----------------------------------------

    			 OPTKING 3.0: for geometry optimizations 

    			     By R.A. King, Bethel University     

    			        with contributions from          

    			    A.V. Copan, J. Cayton, A. Heide      

    			-----------------------------------------

    
	                            ===> Fragment 1 <== 

	 Z (Atomic Numbers)          Masses                          Geom                  
	       9.000000            18.998403         -0.00000000  1.23349510  0.00000000   
	       9.000000            18.998403          0.00000000 -1.23349510  0.00000000   

	 - Coordinate -           - BOHR/RAD -       - ANG/DEG -
	 R(1,2)           =         2.466990           1.305475


	        --- Internal Coordinate Step in ANG or DEG, aJ/ANG or AJ/DEG ---
	-------------------------------------------------------------------------------
	           Coordinate      Previous         Force          Change          New 
	           ----------      --------        ------          ------        ------
	               R(1,2)       1.30547        0.00218        0.00026       1.30573
	-------------------------------------------------------------------------------

	                                 ==> Convergence Check <==                                  
    
	Measures of convergence in internal coordinates in au.
    
	Criteria marked as inactive (o), active & met (*), and active & unmet ( ).

	----------------------------------------------------------------------------------------------
	   Step    Total Energy     Delta E     Max Force     RMS Force      Max Disp      RMS Disp   
	----------------------------------------------------------------------------------------------
	  Convergence Criteria     1.00e-06 *    3.00e-04 *             o    1.20e-03 *             o
	----------------------------------------------------------------------------------------------
	     6    -198.94335802   -7.32e-07 *    2.65e-04 *    2.65e-04 o    4.82e-04 *    4.82e-04 o  ~
	----------------------------------------------------------------------------------------------

Next Geometry in Ang 
	Fragment 1 (Ang)

	    F  -0.0000000000   0.6528651550   0.0000000000
	    F   0.0000000000  -0.6528651550   0.0000000000


    Final optimized geometry and variables:
    Molecular point group: d2h
    Full point group: D_inf_h

    Geometry (in Angstrom), charge = 1, multiplicity = 2:

    F           -0.000000000000     0.652737498859     0.000000000000
    F            0.000000000000    -0.652737498859     0.000000000000


    Psi4 stopped on: Thursday, 17 July 2025 02:24PM
    Psi4 wall time for execution: 0:00:05.30

*** Psi4 exiting successfully. Buy a developer a beer!
