
    -----------------------------------------------------------------------
          Psi4: An Open-Source Ab Initio Electronic Structure Package
                               Psi4 1.9.1 release

                         Git: Rev {} zzzzzzz 


    D. G. A. Smith, L. A. Burns, A. C. Simmonett, R. M. Parrish,
    M. C. Schieber, R. Galvelis, P. Kraus, H. Kruse, R. Di Remigio,
    A. Alenaizan, A. M. James, S. Lehtola, J. P. Misiewicz, M. Scheurer,
    R. A. Shaw, J. B. Schriber, Y. Xie, Z. L. Glick, D. A. Sirianni,
    J. S. O'Brien, J. M. Waldrop, A. Kumar, E. G. Hohenstein,
    B. P. Pritchard, B. R. Brooks, H. F. Schaefer III, A. Yu. Sokolov,
    K. Patkowski, A. E. DePrince III, U. Bozkaya, R. A. King,
    F. A. Evangelista, J. M. Turney, T. D. Crawford, C. D. Sherrill,
    J. Chem. Phys. 152(18) 184108 (2020). https://doi.org/10.1063/5.0006002

                            Additional Code Authors
    E. T. Seidl, C. L. Janssen, E. F. Valeev, M. L. Leininger,
    J. F. Gonthier, R. M. Richard, H. R. McAlexander, M. Saitow, X. Wang,
    P. Verma, M. H. Lechner, A. Jiang, S. Behnle, A. G. Heide,
    M. F. Herbst, and D. L. Poole

             Previous Authors, Complete List of Code Contributors,
                       and Citations for Specific Modules
    https://github.com/psi4/psi4/blob/master/codemeta.json
    https://github.com/psi4/psi4/graphs/contributors
    http://psicode.org/psi4manual/master/introduction.html#citing-psifour

    -----------------------------------------------------------------------


    Psi4 started on: Thursday, 17 July 2025 01:52PM

    Process ID: 74479
    Host:       Joses-MacBook-Pro-2.local
    PSIDATADIR: /Users/joseantoniorodriguesromero/anaconda3/share/psi4
    Memory:     500.0 MiB
    Threads:    1
    
  ==> Input File <==

--------------------------------------------------------------------------
molecule { 
1 2
N   0.00000        0.60000        0.00000
Na   0.00000       -0.60000        0.00000
}

set { 
basis              cc-pvdz
reference          uks
maxiter            500
geom_maxiter       500
DAMPING_PERCENTAGE 1
guess              SAP
}

optimize('b3lyp')
--------------------------------------------------------------------------

Scratch directory: /tmp/
gradient() will perform analytic gradient computation.
   => Libint2 <=

    Primary   basis highest AM E, G, H:  6, 6, 3
    Auxiliary basis highest AM E, G, H:  7, 7, 4
    Onebody   basis highest AM E, G, H:  -, -, -
    Solid Harmonics ordering:            Gaussian

*** tstart() called on Joses-MacBook-Pro-2.local
*** at Thu Jul 17 13:52:47 2025

   => Loading Basis Set <=

    Name: CC-PVDZ
    Role: ORBITAL
    Keyword: BASIS
    atoms 1 entry N          line   168 file /Users/joseantoniorodriguesromero/anaconda3/share/psi4/basis/cc-pvdz.gbs 
    atoms 2 entry NA         line   288 file /Users/joseantoniorodriguesromero/anaconda3/share/psi4/basis/cc-pvdz.gbs 


         ---------------------------------------------------------
                                   SCF
               by Justin Turney, Rob Parrish, Andy Simmonett
                          and Daniel G. A. Smith
                              UKS Reference
                        1 Threads,    500 MiB Core
         ---------------------------------------------------------

  ==> Geometry <==

    Molecular point group: c2v
    Full point group: C_inf_v

    Geometry (in Angstrom), charge = 1, multiplicity = 2:

       Center              X                  Y                   Z               Mass       
    ------------   -----------------  -----------------  -----------------  -----------------
         N            0.000000000000     0.000000000000     0.745758386961    14.003074004430
         NA           0.000000000000     0.000000000000    -0.454241613039    22.989769282000

  Running in c2v symmetry.

  Rotational constants: A = ************  B =      1.34522  C =      1.34522 [cm^-1]
  Rotational constants: A = ************  B =  40328.71860  C =  40328.71860 [MHz]
  Nuclear repulsion =   33.955537684658339

  Charge       = 1
  Multiplicity = 2
  Electrons    = 17
  Nalpha       = 9
  Nbeta        = 8

  ==> Algorithm <==

  SCF Algorithm Type is DF.
  DIIS enabled.
  MOM disabled.
  Fractional occupation disabled.
  Guess Type is SAP.
  Energy threshold   = 1.00e-08
  Density threshold  = 1.00e-08
  Integral threshold = 1.00e-12

  ==> Primary Basis <==

  Basis Set: CC-PVDZ
    Blend: CC-PVDZ
    Number of shells: 14
    Number of basis functions: 32
    Number of Cartesian functions: 34
    Spherical Harmonics?: true
    Max angular momentum: 2

  ==> DFT Potential <==

   => LibXC <=

    Version 6.2.2
    S. Lehtola, C. Steigemann, M. J.T. Oliveira, and M. A.L. Marques.,  SoftwareX 7, 1–5 (2018) (10.1016/j.softx.2017.11.002)

   => Composite Functional: B3LYP <= 

    B3LYP Hyb-GGA Exchange-Correlation Functional

    P. J. Stephens, F. J. Devlin, C. F. Chabalowski, and M. J. Frisch.,  J. Phys. Chem. 98, 11623 (1994) (10.1021/j100096a001)

    Deriv               =              1
    GGA                 =           TRUE
    Meta                =          FALSE

    Exchange Hybrid     =           TRUE
    MP2 Hybrid          =          FALSE

   => Exchange Functionals <=

    0.0800   Slater exchange
    0.7200         Becke 88

   => Exact (HF) Exchange <=

    0.2000               HF 

   => Correlation Functionals <=

    0.1900   Vosko, Wilk & Nusair (VWN5_RPA)
    0.8100   Lee, Yang & Parr

   => LibXC Density Thresholds  <==

    XC_HYB_GGA_XC_B3LYP:  1.00E-15 

   => Molecular Quadrature <=

    Radial Scheme          =       TREUTLER
    Pruning Scheme         =           NONE
    Nuclear Scheme         =       TREUTLER

    Blocking Scheme        =         OCTREE
    BS radius alpha        =              1
    Pruning alpha          =              1
    Radial Points          =             75
    Spherical Points       =            302
    Total Points           =          43704
    Total Blocks           =            419
    Max Points             =            253
    Max Functions          =             32
    Weights Tolerance      =       1.00E-15

   => Loading Basis Set <=

    Name: (CC-PVDZ AUX)
    Role: JKFIT
    Keyword: DF_BASIS_SCF
    atoms 1 entry N          line   171 file /Users/joseantoniorodriguesromero/anaconda3/share/psi4/basis/cc-pvdz-jkfit.gbs 
    atoms 2 entry NA         line   498 file /Users/joseantoniorodriguesromero/anaconda3/share/psi4/basis/def2-universal-jkfit.gbs 

  ==> Integral Setup <==

  DFHelper Memory: AOs need 0.002 GiB; user supplied 0.327 GiB. 
  Using in-core AOs.

  ==> MemDFJK: Density-Fitted J/K Matrices <==

    J tasked:                   Yes
    K tasked:                   Yes
    wK tasked:                   No
    OpenMP threads:               1
    Memory [MiB]:               335
    Algorithm:                 Core
    Schwarz Cutoff:           1E-12
    Mask sparsity (%):       0.0000
    Fitting Condition:        1E-10

   => Auxiliary Basis Set <=

  Basis Set: (CC-PVDZ AUX)
    Blend: CC-PVDZ-JKFIT + DEF2-UNIVERSAL-JKFIT
    Number of shells: 58
    Number of basis functions: 182
    Number of Cartesian functions: 218
    Spherical Harmonics?: true
    Max angular momentum: 4

  Cached 100.0% of DFT collocation blocks in 0.039 [GiB].

  Minimum eigenvalue in the overlap matrix is 1.2001686000E-02.
  Reciprocal condition number of the overlap matrix is 4.3985404675E-03.
    Using symmetric orthogonalization.

  ==> Pre-Iterations <==

  SCF Guess: Superposition of Atomic Potentials (doi:10.1021/acs.jctc.8b01089).

  ==> SAP guess <==

   => Molecular Quadrature <=

    Radial Scheme          =       TREUTLER
    Pruning Scheme         =           NONE
    Nuclear Scheme         =       TREUTLER

    Blocking Scheme        =         OCTREE
    BS radius alpha        =              1
    Pruning alpha          =              1
    Radial Points          =             75
    Spherical Points       =            302
    Total Points           =          43704
    Total Blocks           =            419
    Max Points             =            253
    Max Functions          =             32
    Weights Tolerance      =       1.00E-15

   -------------------------------------------------------
    Irrep   Nso     Nmo     Nalpha   Nbeta   Ndocc  Nsocc
   -------------------------------------------------------
     A1        16      16       5       5       5       0
     A2         2       2       0       0       0       0
     B1         7       7       2       1       1       1
     B2         7       7       2       2       2       0
   -------------------------------------------------------
    Total      32      32       9       8       8       1
   -------------------------------------------------------

  ==> Iterations <==

                           Total Energy        Delta E     RMS |[F,P]|

   @DF-UKS iter   1:  -216.14721593592776   -2.16147e+02   1.78861e-02 DIIS/ADIIS
   @DF-UKS iter   2:  -216.17216164284150   -2.49457e-02   1.07632e-02 DIIS/ADIIS/DAMP=1%
   @DF-UKS iter   3:  -216.18741795207245   -1.52563e-02   1.71359e-03 DIIS/ADIIS/DAMP=1%
   @DF-UKS iter   4:  -216.19203394303025   -4.61599e-03   1.78002e-04 DIIS/ADIIS/DAMP=1%
   @DF-UKS iter   5:  -216.19145425047697    5.79693e-04   6.22934e-05 DIIS/DAMP=1%
   @DF-UKS iter   6:  -216.19141928889152    3.49616e-05   1.97326e-05 DIIS/DAMP=1%
   @DF-UKS iter   7:  -216.19145470383469   -3.54149e-05   4.14826e-06 DIIS/DAMP=1%
   @DF-UKS iter   8:  -216.19144631992449    8.38391e-06   4.12273e-07 DIIS/DAMP=1%
   @DF-UKS iter   9:  -216.19144748310953   -1.16319e-06   3.66615e-08 DIIS/DAMP=1%
   @DF-UKS iter  10:  -216.19144734006920    1.43040e-07   2.50089e-09 DIIS/DAMP=1%
   @DF-UKS iter  11:  -216.19144735906275   -1.89935e-08   1.39971e-10 DIIS/DAMP=1%
   @DF-UKS iter  12:  -216.19144735800154    1.06121e-09   7.46482e-12 DIIS/DAMP=1%
  Energy and wave function converged.


  ==> Post-Iterations <==

   Electrons on quadrature grid:
      Nalpha   =    8.9999994167 ; deviation = -5.833e-07
      Nbeta    =    8.0000005822 ; deviation = 5.822e-07
      Ntotal   =   16.9999999989 ; deviation = -1.148e-09 

   @Spin Contamination Metric:   2.359657059E-03
   @S^2 Expected:                7.500000000E-01
   @S^2 Observed:                7.523596571E-01
   @S   Expected:                5.000000000E-01
   @S   Observed:                5.000000000E-01

    Orbital Energies [Eh]
    ---------------------

    Alpha Occupied:                                                       

       1A1   -38.993769     2A1   -14.750676     3A1    -2.745374  
       4A1    -1.748664     1B1    -1.637923     1B2    -1.630508  
       5A1    -0.978556     2B1    -0.672466     2B2    -0.605019  

    Alpha Virtual:                                                        

       6A1    -0.368041     7A1    -0.232044     3B1    -0.153987  
       3B2    -0.150552     8A1    -0.129425     9A1    -0.063832  
       4B1    -0.049779     4B2    -0.048537    10A1    -0.039448  
       1A2    -0.024618    11A1    -0.023765     5B1     0.020387  
       5B2     0.028655    12A1     0.062498    13A1     0.558038  
       6B1     0.620046     6B2     0.656406    14A1     1.011776  
       7B1     1.328369     7B2     1.377161    15A1     1.400204  
       2A2     1.401227    16A1     1.772370  

    Beta Occupied:                                                        

       1A1   -38.992515     2A1   -14.729594     3A1    -2.742289  
       4A1    -1.740825     1B1    -1.630439     1B2    -1.629562  
       5A1    -0.913221     2B2    -0.582495  

    Beta Virtual:                                                         

       2B1    -0.449180     6A1    -0.346786     7A1    -0.225477  
       3B2    -0.149953     3B1    -0.145305     8A1    -0.127132  
       9A1    -0.063125     4B1    -0.048798     4B2    -0.048745  
      10A1    -0.036801     1A2    -0.023252    11A1    -0.020926  
       5B2     0.030226     5B1     0.036286    12A1     0.067327  
      13A1     0.569240     6B2     0.666916     6B1     0.690970  
      14A1     1.037667     7B2     1.385764     7B1     1.402408  
       2A2     1.466636    15A1     1.475724    16A1     1.798472  

    Final Occupation by Irrep:
             A1    A2    B1    B2 
    DOCC [     5,    0,    1,    2 ]
    SOCC [     0,    0,    1,    0 ]
    NA   [     5,    0,    2,    2 ]
    NB   [     5,    0,    1,    2 ]

  @DF-UKS Final Energy:  -216.19144735800154

   => Energetics <=

    Nuclear Repulsion Energy =             33.9555376846583385
    One-Electron Energy =                -361.3410368365235854
    Two-Electron Energy =                 128.2639618206242460
    DFT Exchange-Correlation Energy =     -17.0699100267605530
    Empirical Dispersion Energy =           0.0000000000000000
    VV10 Nonlocal Energy =                  0.0000000000000000
    Total Energy =                       -216.1914473580015397

  UHF NO Occupations:
  HONO-2 :    2 B2 1.9998567
  HONO-1 :    5 A1 1.9989744
  HONO-0 :    2 B1 1.0000000
  LUNO+0 :    6 A1 0.0010256
  LUNO+1 :    3 B2 0.0001433
  LUNO+2 :    3 B1 0.0000065
  LUNO+3 :    7 A1 0.0000048


Computation Completed


Properties will be evaluated at   0.000000,   0.000000,   0.000000 [a0]

Properties computed using the SCF density matrix


 Multipole Moments:

 ------------------------------------------------------------------------------------
     Multipole            Electronic (a.u.)      Nuclear  (a.u.)        Total (a.u.)
 ------------------------------------------------------------------------------------

 L = 1.  Multiply by 2.5417464519 to convert [e a0] to [Debye]
 Dipole X            :          0.0000000            0.0000000            0.0000000
 Dipole Y            :          0.0000000            0.0000000            0.0000000
 Dipole Z            :         -1.6074437            0.4226391           -1.1848046
 Magnitude           :                                                    1.1848046

 ------------------------------------------------------------------------------------

*** tstop() called on Joses-MacBook-Pro-2.local at Thu Jul 17 13:52:48 2025
Module time:
	user time   =       4.21 seconds =       0.07 minutes
	system time =       7.15 seconds =       0.12 minutes
	total time  =          1 seconds =       0.02 minutes
Total time:
	user time   =       4.21 seconds =       0.07 minutes
	system time =       7.15 seconds =       0.12 minutes
	total time  =          1 seconds =       0.02 minutes

*** tstart() called on Joses-MacBook-Pro-2.local
*** at Thu Jul 17 13:52:48 2025


         ------------------------------------------------------------
                                   SCF GRAD                          
                          Rob Parrish, Justin Turney,                
                       Andy Simmonett, and Alex Sokolov              
         ------------------------------------------------------------

  ==> Geometry <==

    Molecular point group: c2v
    Full point group: C_inf_v

    Geometry (in Angstrom), charge = 1, multiplicity = 2:

       Center              X                  Y                   Z               Mass       
    ------------   -----------------  -----------------  -----------------  -----------------
         N            0.000000000000     0.000000000000     0.745758386961    14.003074004430
         NA           0.000000000000     0.000000000000    -0.454241613039    22.989769282000

  Nuclear repulsion =   33.955537684658339

  ==> Basis Set <==

  Basis Set: CC-PVDZ
    Blend: CC-PVDZ
    Number of shells: 14
    Number of basis functions: 32
    Number of Cartesian functions: 34
    Spherical Harmonics?: true
    Max angular momentum: 2

  ==> DFJKGrad: Density-Fitted SCF Gradients <==

    Gradient:                    1
    J tasked:                  Yes
    K tasked:                  Yes
    wK tasked:                  No
    OpenMP threads:              1
    Integrals threads:           1
    Memory [MiB]:              375
    Schwarz Cutoff:          1E-12
    Fitting Condition:       1E-10

   => Auxiliary Basis Set <=

  Basis Set: (CC-PVDZ AUX)
    Blend: CC-PVDZ-JKFIT + DEF2-UNIVERSAL-JKFIT
    Number of shells: 58
    Number of basis functions: 182
    Number of Cartesian functions: 218
    Spherical Harmonics?: true
    Max angular momentum: 4

  ==> DFT Potential <==

   => LibXC <=

    Version 6.2.2
    S. Lehtola, C. Steigemann, M. J.T. Oliveira, and M. A.L. Marques.,  SoftwareX 7, 1–5 (2018) (10.1016/j.softx.2017.11.002)

   => Composite Functional: B3LYP <= 

    B3LYP Hyb-GGA Exchange-Correlation Functional

    P. J. Stephens, F. J. Devlin, C. F. Chabalowski, and M. J. Frisch.,  J. Phys. Chem. 98, 11623 (1994) (10.1021/j100096a001)

    Deriv               =              1
    GGA                 =           TRUE
    Meta                =          FALSE

    Exchange Hybrid     =           TRUE
    MP2 Hybrid          =          FALSE

   => Exchange Functionals <=

    0.0800   Slater exchange
    0.7200         Becke 88

   => Exact (HF) Exchange <=

    0.2000               HF 

   => Correlation Functionals <=

    0.1900   Vosko, Wilk & Nusair (VWN5_RPA)
    0.8100   Lee, Yang & Parr

   => LibXC Density Thresholds  <==

    XC_HYB_GGA_XC_B3LYP:  1.00E-15 

   => Molecular Quadrature <=

    Radial Scheme          =       TREUTLER
    Pruning Scheme         =           NONE
    Nuclear Scheme         =       TREUTLER

    Blocking Scheme        =         OCTREE
    BS radius alpha        =              1
    Pruning alpha          =              1
    Radial Points          =             75
    Spherical Points       =            302
    Total Points           =          43704
    Total Blocks           =            419
    Max Points             =            253
    Max Functions          =             32
    Weights Tolerance      =       1.00E-15


  -Total Gradient:
     Atom            X                  Y                   Z
    ------   -----------------  -----------------  -----------------
       1       -0.000000000000    -0.000000000000    -0.743249021724
       2        0.000000000000     0.000000000000     0.743185625024


*** tstop() called on Joses-MacBook-Pro-2.local at Thu Jul 17 13:52:48 2025
Module time:
	user time   =       0.93 seconds =       0.02 minutes
	system time =       2.09 seconds =       0.03 minutes
	total time  =          0 seconds =       0.00 minutes
Total time:
	user time   =       5.14 seconds =       0.09 minutes
	system time =       9.26 seconds =       0.15 minutes
	total time  =          1 seconds =       0.02 minutes

    			-----------------------------------------

    			 OPTKING 3.0: for geometry optimizations 

    			     By R.A. King, Bethel University     

    			        with contributions from          

    			    A.V. Copan, J. Cayton, A. Heide      

    			-----------------------------------------

    
	                            ===> Fragment 1 <== 

	 Z (Atomic Numbers)          Masses                          Geom                  
	       7.000000            14.003074          0.00000000  0.00000000  1.40927911   
	      11.000000            22.989769          0.00000000  0.00000000 -0.85839224   

	 - Coordinate -           - BOHR/RAD -       - ANG/DEG -
	 R(1,2)           =         2.267671           1.200000


	        --- Internal Coordinate Step in ANG or DEG, aJ/ANG or AJ/DEG ---
	-------------------------------------------------------------------------------
	           Coordinate      Previous         Force          Change          New 
	           ----------      --------        ------          ------        ------
	               R(1,2)       1.20000        6.12316        0.09124       1.29124
	-------------------------------------------------------------------------------

	                                 ==> Convergence Check <==                                  
    
	Measures of convergence in internal coordinates in au.
    
	Criteria marked as inactive (o), active & met (*), and active & unmet ( ).

	----------------------------------------------------------------------------------------------
	   Step    Total Energy     Delta E     Max Force     RMS Force      Max Disp      RMS Disp   
	----------------------------------------------------------------------------------------------
	  Convergence Criteria     1.00e-06 *    3.00e-04 *             o    1.20e-03 *             o
	----------------------------------------------------------------------------------------------
	     1    -216.19144736   -2.16e+02      7.43e-01      7.43e-01 o    1.72e-01      1.72e-01 o  ~
	----------------------------------------------------------------------------------------------

Next Geometry in Ang 
	Fragment 1 (Ang)

	    N   0.0000000000   0.0000000000   0.7913802061
	   Na   0.0000000000   0.0000000000  -0.4998634321


    Structure for next step:
    Molecular point group: c2v
    Full point group: C_inf_v

    Geometry (in Angstrom), charge = 1, multiplicity = 2:

    N            0.000000000000     0.000000000000     0.802463143987
    NA           0.000000000000     0.000000000000    -0.488780494195


Scratch directory: /tmp/
gradient() will perform analytic gradient computation.
   => Libint2 <=

    Primary   basis highest AM E, G, H:  6, 6, 3
    Auxiliary basis highest AM E, G, H:  7, 7, 4
    Onebody   basis highest AM E, G, H:  -, -, -
    Solid Harmonics ordering:            Gaussian

*** tstart() called on Joses-MacBook-Pro-2.local
*** at Thu Jul 17 13:52:48 2025

   => Loading Basis Set <=

    Name: CC-PVDZ
    Role: ORBITAL
    Keyword: BASIS
    atoms 1 entry N          line   168 file /Users/joseantoniorodriguesromero/anaconda3/share/psi4/basis/cc-pvdz.gbs 
    atoms 2 entry NA         line   288 file /Users/joseantoniorodriguesromero/anaconda3/share/psi4/basis/cc-pvdz.gbs 


         ---------------------------------------------------------
                                   SCF
               by Justin Turney, Rob Parrish, Andy Simmonett
                          and Daniel G. A. Smith
                              UKS Reference
                        1 Threads,    500 MiB Core
         ---------------------------------------------------------

  ==> Geometry <==

    Molecular point group: c2v
    Full point group: C_inf_v

    Geometry (in Angstrom), charge = 1, multiplicity = 2:

       Center              X                  Y                   Z               Mass       
    ------------   -----------------  -----------------  -----------------  -----------------
         N            0.000000000000     0.000000000000     0.802463143987    14.003074004430
         NA           0.000000000000     0.000000000000    -0.488780494195    22.989769282000

  Running in c2v symmetry.

  Rotational constants: A = ************  B =      1.16182  C =      1.16182 [cm^-1]
  Rotational constants: A = ************  B =  34830.56549  C =  34830.56549 [MHz]
  Nuclear repulsion =   31.556124666732039

  Charge       = 1
  Multiplicity = 2
  Electrons    = 17
  Nalpha       = 9
  Nbeta        = 8

  ==> Algorithm <==

  SCF Algorithm Type is DF.
  DIIS enabled.
  MOM disabled.
  Fractional occupation disabled.
  Guess Type is READ.
  Energy threshold   = 1.00e-08
  Density threshold  = 1.00e-08
  Integral threshold = 1.00e-12

  ==> Primary Basis <==

  Basis Set: CC-PVDZ
    Blend: CC-PVDZ
    Number of shells: 14
    Number of basis functions: 32
    Number of Cartesian functions: 34
    Spherical Harmonics?: true
    Max angular momentum: 2

  ==> DFT Potential <==

   => LibXC <=

    Version 6.2.2
    S. Lehtola, C. Steigemann, M. J.T. Oliveira, and M. A.L. Marques.,  SoftwareX 7, 1–5 (2018) (10.1016/j.softx.2017.11.002)

   => Composite Functional: B3LYP <= 

    B3LYP Hyb-GGA Exchange-Correlation Functional

    P. J. Stephens, F. J. Devlin, C. F. Chabalowski, and M. J. Frisch.,  J. Phys. Chem. 98, 11623 (1994) (10.1021/j100096a001)

    Deriv               =              1
    GGA                 =           TRUE
    Meta                =          FALSE

    Exchange Hybrid     =           TRUE
    MP2 Hybrid          =          FALSE

   => Exchange Functionals <=

    0.0800   Slater exchange
    0.7200         Becke 88

   => Exact (HF) Exchange <=

    0.2000               HF 

   => Correlation Functionals <=

    0.1900   Vosko, Wilk & Nusair (VWN5_RPA)
    0.8100   Lee, Yang & Parr

   => LibXC Density Thresholds  <==

    XC_HYB_GGA_XC_B3LYP:  1.00E-15 

   => Molecular Quadrature <=

    Radial Scheme          =       TREUTLER
    Pruning Scheme         =           NONE
    Nuclear Scheme         =       TREUTLER

    Blocking Scheme        =         OCTREE
    BS radius alpha        =              1
    Pruning alpha          =              1
    Radial Points          =             75
    Spherical Points       =            302
    Total Points           =          43718
    Total Blocks           =            419
    Max Points             =            256
    Max Functions          =             32
    Weights Tolerance      =       1.00E-15

   => Loading Basis Set <=

    Name: (CC-PVDZ AUX)
    Role: JKFIT
    Keyword: DF_BASIS_SCF
    atoms 1 entry N          line   171 file /Users/joseantoniorodriguesromero/anaconda3/share/psi4/basis/cc-pvdz-jkfit.gbs 
    atoms 2 entry NA         line   498 file /Users/joseantoniorodriguesromero/anaconda3/share/psi4/basis/def2-universal-jkfit.gbs 

   => Loading Basis Set <=

    Name: CC-PVDZ
    Role: ORBITAL
    Keyword: BASIS
    atoms 1 entry N          line   168 file /Users/joseantoniorodriguesromero/anaconda3/share/psi4/basis/cc-pvdz.gbs 
    atoms 2 entry NA         line   288 file /Users/joseantoniorodriguesromero/anaconda3/share/psi4/basis/cc-pvdz.gbs 

  Reading orbitals from file /tmp/doublet_NNa.default.74479.180.npy, no projection.

  ==> Integral Setup <==

  DFHelper Memory: AOs need 0.002 GiB; user supplied 0.327 GiB. 
  Using in-core AOs.

  ==> MemDFJK: Density-Fitted J/K Matrices <==

    J tasked:                   Yes
    K tasked:                   Yes
    wK tasked:                   No
    OpenMP threads:               1
    Memory [MiB]:               335
    Algorithm:                 Core
    Schwarz Cutoff:           1E-12
    Mask sparsity (%):       0.0000
    Fitting Condition:        1E-10

   => Auxiliary Basis Set <=

  Basis Set: (CC-PVDZ AUX)
    Blend: CC-PVDZ-JKFIT + DEF2-UNIVERSAL-JKFIT
    Number of shells: 58
    Number of basis functions: 182
    Number of Cartesian functions: 218
    Spherical Harmonics?: true
    Max angular momentum: 4

  Cached 100.0% of DFT collocation blocks in 0.039 [GiB].

  Minimum eigenvalue in the overlap matrix is 1.1811228396E-02.
  Reciprocal condition number of the overlap matrix is 4.3237166807E-03.
    Using symmetric orthogonalization.

  ==> Pre-Iterations <==

  SCF Guess: Orbitals guess was supplied from a previous computation.

   -------------------------------------------------------
    Irrep   Nso     Nmo     Nalpha   Nbeta   Ndocc  Nsocc
   -------------------------------------------------------
     A1        16      16       5       5       5       0
     A2         2       2       0       0       0       0
     B1         7       7       2       1       1       1
     B2         7       7       2       2       2       0
   -------------------------------------------------------
    Total      32      32       9       8       8       1
   -------------------------------------------------------

  ==> Iterations <==

                           Total Energy        Delta E     RMS |[F,P]|

   @DF-UKS iter   0:  -216.26847412182661   -2.16268e+02   1.72448e-02 
   @DF-UKS iter   1:  -216.29830213933732   -2.98280e-02   3.59403e-03 DIIS/ADIIS
   @DF-UKS iter   2:  -216.29938654583256   -1.08441e-03   2.68933e-03 DIIS/ADIIS/DAMP=1%
   @DF-UKS iter   3:  -216.30084145813856   -1.45491e-03   4.73848e-05 DIIS/DAMP=1%
   @DF-UKS iter   4:  -216.30070569500467    1.35763e-04   3.04141e-05 DIIS/DAMP=1%
   @DF-UKS iter   5:  -216.30075247654995   -4.67815e-05   8.12792e-06 DIIS/DAMP=1%
   @DF-UKS iter   6:  -216.30073796648654    1.45101e-05   3.05458e-06 DIIS/DAMP=1%
   @DF-UKS iter   7:  -216.30073955577444   -1.58929e-06   1.66062e-07 DIIS/DAMP=1%
   @DF-UKS iter   8:  -216.30073926732828    2.88446e-07   2.41959e-08 DIIS/DAMP=1%
   @DF-UKS iter   9:  -216.30073934788300   -8.05547e-08   4.31975e-09 DIIS/DAMP=1%
   @DF-UKS iter  10:  -216.30073934599363    1.88936e-09   7.63757e-10 DIIS/DAMP=1%
  Energy and wave function converged.


  ==> Post-Iterations <==

   Electrons on quadrature grid:
      Nalpha   =    8.9999993752 ; deviation = -6.248e-07
      Nbeta    =    8.0000008445 ; deviation = 8.445e-07
      Ntotal   =   17.0000002197 ; deviation = 2.197e-07 

   @Spin Contamination Metric:   1.967980806E-03
   @S^2 Expected:                7.500000000E-01
   @S^2 Observed:                7.519679808E-01
   @S   Expected:                5.000000000E-01
   @S   Observed:                5.000000000E-01

    Orbital Energies [Eh]
    ---------------------

    Alpha Occupied:                                                       

       1A1   -38.925537     2A1   -14.748398     3A1    -2.675089  
       4A1    -1.669777     1B1    -1.581530     1B2    -1.575999  
       5A1    -1.003071     2B1    -0.665998     2B2    -0.598876  

    Alpha Virtual:                                                        

       6A1    -0.414572     7A1    -0.234724     3B1    -0.151174  
       3B2    -0.147902     8A1    -0.129977     9A1    -0.062430  
       4B1    -0.047825     4B2    -0.046378    10A1    -0.038730  
       1A2    -0.020163    11A1    -0.019355     5B1     0.023001  
       5B2     0.031285    12A1     0.064302    13A1     0.568877  
       6B1     0.617032     6B2     0.653628    14A1     1.026867  
       7B1     1.331152     7B2     1.379920    15A1     1.409725  
       2A2     1.411856    16A1     1.660225  

    Beta Occupied:                                                        

       1A1   -38.924780     2A1   -14.727676     3A1    -2.673279  
       4A1    -1.663549     1B1    -1.576568     1B2    -1.575489  
       5A1    -0.936387     2B2    -0.576779  

    Beta Virtual:                                                         

       2B1    -0.444006     6A1    -0.391203     7A1    -0.231156  
       3B2    -0.147280     3B1    -0.142687     8A1    -0.127603  
       9A1    -0.061853     4B1    -0.046510     4B2    -0.046041  
      10A1    -0.036733     1A2    -0.019121    11A1    -0.016711  
       5B2     0.032891     5B1     0.038937    12A1     0.069487  
      13A1     0.580045     6B2     0.664171     6B1     0.688756  
      14A1     1.054076     7B2     1.388878     7B1     1.407533  
       2A2     1.477473    15A1     1.486558    16A1     1.686492  

    Final Occupation by Irrep:
             A1    A2    B1    B2 
    DOCC [     5,    0,    1,    2 ]
    SOCC [     0,    0,    1,    0 ]
    NA   [     5,    0,    2,    2 ]
    NB   [     5,    0,    1,    2 ]

  @DF-UKS Final Energy:  -216.30073934599363

   => Energetics <=

    Nuclear Repulsion Energy =             31.5561246667320390
    One-Electron Energy =                -357.3977517670697353
    Two-Electron Energy =                 126.5919636191598983
    DFT Exchange-Correlation Energy =     -17.0510758648158607
    Empirical Dispersion Energy =           0.0000000000000000
    VV10 Nonlocal Energy =                  0.0000000000000000
    Total Energy =                       -216.3007393459936338

  UHF NO Occupations:
  HONO-2 :    2 B2 1.9998610
  HONO-1 :    5 A1 1.9991646
  HONO-0 :    2 B1 1.0000000
  LUNO+0 :    6 A1 0.0008354
  LUNO+1 :    3 B2 0.0001390
  LUNO+2 :    7 A1 0.0000059
  LUNO+3 :    3 B1 0.0000040


Computation Completed


Properties will be evaluated at   0.000000,   0.000000,   0.000000 [a0]

Properties computed using the SCF density matrix


 Multipole Moments:

 ------------------------------------------------------------------------------------
     Multipole            Electronic (a.u.)      Nuclear  (a.u.)        Total (a.u.)
 ------------------------------------------------------------------------------------

 L = 1.  Multiply by 2.5417464519 to convert [e a0] to [Debye]
 Dipole X            :          0.0000000            0.0000000            0.0000000
 Dipole Y            :          0.0000000            0.0000000            0.0000000
 Dipole Z            :         -1.5350842            0.4547750           -1.0803092
 Magnitude           :                                                    1.0803092

 ------------------------------------------------------------------------------------

*** tstop() called on Joses-MacBook-Pro-2.local at Thu Jul 17 13:52:49 2025
Module time:
	user time   =       2.61 seconds =       0.04 minutes
	system time =       6.07 seconds =       0.10 minutes
	total time  =          1 seconds =       0.02 minutes
Total time:
	user time   =       7.79 seconds =       0.13 minutes
	system time =      15.60 seconds =       0.26 minutes
	total time  =          2 seconds =       0.03 minutes

*** tstart() called on Joses-MacBook-Pro-2.local
*** at Thu Jul 17 13:52:49 2025


         ------------------------------------------------------------
                                   SCF GRAD                          
                          Rob Parrish, Justin Turney,                
                       Andy Simmonett, and Alex Sokolov              
         ------------------------------------------------------------

  ==> Geometry <==

    Molecular point group: c2v
    Full point group: C_inf_v

    Geometry (in Angstrom), charge = 1, multiplicity = 2:

       Center              X                  Y                   Z               Mass       
    ------------   -----------------  -----------------  -----------------  -----------------
         N            0.000000000000     0.000000000000     0.802463143987    14.003074004430
         NA           0.000000000000     0.000000000000    -0.488780494195    22.989769282000

  Nuclear repulsion =   31.556124666732039

  ==> Basis Set <==

  Basis Set: CC-PVDZ
    Blend: CC-PVDZ
    Number of shells: 14
    Number of basis functions: 32
    Number of Cartesian functions: 34
    Spherical Harmonics?: true
    Max angular momentum: 2

  ==> DFJKGrad: Density-Fitted SCF Gradients <==

    Gradient:                    1
    J tasked:                  Yes
    K tasked:                  Yes
    wK tasked:                  No
    OpenMP threads:              1
    Integrals threads:           1
    Memory [MiB]:              375
    Schwarz Cutoff:          1E-12
    Fitting Condition:       1E-10

   => Auxiliary Basis Set <=

  Basis Set: (CC-PVDZ AUX)
    Blend: CC-PVDZ-JKFIT + DEF2-UNIVERSAL-JKFIT
    Number of shells: 58
    Number of basis functions: 182
    Number of Cartesian functions: 218
    Spherical Harmonics?: true
    Max angular momentum: 4

  ==> DFT Potential <==

   => LibXC <=

    Version 6.2.2
    S. Lehtola, C. Steigemann, M. J.T. Oliveira, and M. A.L. Marques.,  SoftwareX 7, 1–5 (2018) (10.1016/j.softx.2017.11.002)

   => Composite Functional: B3LYP <= 

    B3LYP Hyb-GGA Exchange-Correlation Functional

    P. J. Stephens, F. J. Devlin, C. F. Chabalowski, and M. J. Frisch.,  J. Phys. Chem. 98, 11623 (1994) (10.1021/j100096a001)

    Deriv               =              1
    GGA                 =           TRUE
    Meta                =          FALSE

    Exchange Hybrid     =           TRUE
    MP2 Hybrid          =          FALSE

   => Exchange Functionals <=

    0.0800   Slater exchange
    0.7200         Becke 88

   => Exact (HF) Exchange <=

    0.2000               HF 

   => Correlation Functionals <=

    0.1900   Vosko, Wilk & Nusair (VWN5_RPA)
    0.8100   Lee, Yang & Parr

   => LibXC Density Thresholds  <==

    XC_HYB_GGA_XC_B3LYP:  1.00E-15 

   => Molecular Quadrature <=

    Radial Scheme          =       TREUTLER
    Pruning Scheme         =           NONE
    Nuclear Scheme         =       TREUTLER

    Blocking Scheme        =         OCTREE
    BS radius alpha        =              1
    Pruning alpha          =              1
    Radial Points          =             75
    Spherical Points       =            302
    Total Points           =          43718
    Total Blocks           =            419
    Max Points             =            256
    Max Functions          =             32
    Weights Tolerance      =       1.00E-15


  -Total Gradient:
     Atom            X                  Y                   Z
    ------   -----------------  -----------------  -----------------
       1        0.000000000000     0.000000000000    -0.536035097821
       2        0.000000000000     0.000000000000     0.536020175686


*** tstop() called on Joses-MacBook-Pro-2.local at Thu Jul 17 13:52:50 2025
Module time:
	user time   =       0.80 seconds =       0.01 minutes
	system time =       2.54 seconds =       0.04 minutes
	total time  =          1 seconds =       0.02 minutes
Total time:
	user time   =       8.59 seconds =       0.14 minutes
	system time =      18.14 seconds =       0.30 minutes
	total time  =          3 seconds =       0.05 minutes

    			-----------------------------------------

    			 OPTKING 3.0: for geometry optimizations 

    			     By R.A. King, Bethel University     

    			        with contributions from          

    			    A.V. Copan, J. Cayton, A. Heide      

    			-----------------------------------------

    
	                            ===> Fragment 1 <== 

	 Z (Atomic Numbers)          Masses                          Geom                  
	       7.000000            14.003074          0.00000000  0.00000000  1.51643557   
	      11.000000            22.989769          0.00000000  0.00000000 -0.92366127   

	 - Coordinate -           - BOHR/RAD -       - ANG/DEG -
	 R(1,2)           =         2.440097           1.291244


	        --- Internal Coordinate Step in ANG or DEG, aJ/ANG or AJ/DEG ---
	-------------------------------------------------------------------------------
	           Coordinate      Previous         Force          Change          New 
	           ----------      --------        ------          ------        ------
	               R(1,2)       1.29124        4.41618        0.12774       1.41899
	-------------------------------------------------------------------------------

	                                 ==> Convergence Check <==                                  
    
	Measures of convergence in internal coordinates in au.
    
	Criteria marked as inactive (o), active & met (*), and active & unmet ( ).

	----------------------------------------------------------------------------------------------
	   Step    Total Energy     Delta E     Max Force     RMS Force      Max Disp      RMS Disp   
	----------------------------------------------------------------------------------------------
	  Convergence Criteria     1.00e-06 *    3.00e-04 *             o    1.20e-03 *             o
	----------------------------------------------------------------------------------------------
	     2    -216.30073935   -1.09e-01      5.36e-01      5.36e-01 o    2.41e-01      2.41e-01 o  ~
	----------------------------------------------------------------------------------------------

Next Geometry in Ang 
	Fragment 1 (Ang)

	    N   0.0000000000   0.0000000000   0.8663345415
	   Na   0.0000000000   0.0000000000  -0.5526518917


    Structure for next step:
    Molecular point group: c2v
    Full point group: C_inf_v

    Geometry (in Angstrom), charge = 1, multiplicity = 2:

    N            0.000000000000     0.000000000000     0.881850861272
    NA           0.000000000000     0.000000000000    -0.537135571906


Scratch directory: /tmp/
gradient() will perform analytic gradient computation.
   => Libint2 <=

    Primary   basis highest AM E, G, H:  6, 6, 3
    Auxiliary basis highest AM E, G, H:  7, 7, 4
    Onebody   basis highest AM E, G, H:  -, -, -
    Solid Harmonics ordering:            Gaussian

*** tstart() called on Joses-MacBook-Pro-2.local
*** at Thu Jul 17 13:52:50 2025

   => Loading Basis Set <=

    Name: CC-PVDZ
    Role: ORBITAL
    Keyword: BASIS
    atoms 1 entry N          line   168 file /Users/joseantoniorodriguesromero/anaconda3/share/psi4/basis/cc-pvdz.gbs 
    atoms 2 entry NA         line   288 file /Users/joseantoniorodriguesromero/anaconda3/share/psi4/basis/cc-pvdz.gbs 


         ---------------------------------------------------------
                                   SCF
               by Justin Turney, Rob Parrish, Andy Simmonett
                          and Daniel G. A. Smith
                              UKS Reference
                        1 Threads,    500 MiB Core
         ---------------------------------------------------------

  ==> Geometry <==

    Molecular point group: c2v
    Full point group: C_inf_v

    Geometry (in Angstrom), charge = 1, multiplicity = 2:

       Center              X                  Y                   Z               Mass       
    ------------   -----------------  -----------------  -----------------  -----------------
         N            0.000000000000     0.000000000000     0.881850861272    14.003074004430
         NA           0.000000000000     0.000000000000    -0.537135571906    22.989769282000

  Running in c2v symmetry.

  Rotational constants: A = ************  B =      0.96205  C =      0.96205 [cm^-1]
  Rotational constants: A = ************  B =  28841.67168  C =  28841.67168 [MHz]
  Nuclear repulsion =   28.715316981815807

  Charge       = 1
  Multiplicity = 2
  Electrons    = 17
  Nalpha       = 9
  Nbeta        = 8

  ==> Algorithm <==

  SCF Algorithm Type is DF.
  DIIS enabled.
  MOM disabled.
  Fractional occupation disabled.
  Guess Type is READ.
  Energy threshold   = 1.00e-08
  Density threshold  = 1.00e-08
  Integral threshold = 1.00e-12

  ==> Primary Basis <==

  Basis Set: CC-PVDZ
    Blend: CC-PVDZ
    Number of shells: 14
    Number of basis functions: 32
    Number of Cartesian functions: 34
    Spherical Harmonics?: true
    Max angular momentum: 2

  ==> DFT Potential <==

   => LibXC <=

    Version 6.2.2
    S. Lehtola, C. Steigemann, M. J.T. Oliveira, and M. A.L. Marques.,  SoftwareX 7, 1–5 (2018) (10.1016/j.softx.2017.11.002)

   => Composite Functional: B3LYP <= 

    B3LYP Hyb-GGA Exchange-Correlation Functional

    P. J. Stephens, F. J. Devlin, C. F. Chabalowski, and M. J. Frisch.,  J. Phys. Chem. 98, 11623 (1994) (10.1021/j100096a001)

    Deriv               =              1
    GGA                 =           TRUE
    Meta                =          FALSE

    Exchange Hybrid     =           TRUE
    MP2 Hybrid          =          FALSE

   => Exchange Functionals <=

    0.0800   Slater exchange
    0.7200         Becke 88

   => Exact (HF) Exchange <=

    0.2000               HF 

   => Correlation Functionals <=

    0.1900   Vosko, Wilk & Nusair (VWN5_RPA)
    0.8100   Lee, Yang & Parr

   => LibXC Density Thresholds  <==

    XC_HYB_GGA_XC_B3LYP:  1.00E-15 

   => Molecular Quadrature <=

    Radial Scheme          =       TREUTLER
    Pruning Scheme         =           NONE
    Nuclear Scheme         =       TREUTLER

    Blocking Scheme        =         OCTREE
    BS radius alpha        =              1
    Pruning alpha          =              1
    Radial Points          =             75
    Spherical Points       =            302
    Total Points           =          43731
    Total Blocks           =            418
    Max Points             =            256
    Max Functions          =             32
    Weights Tolerance      =       1.00E-15

   => Loading Basis Set <=

    Name: (CC-PVDZ AUX)
    Role: JKFIT
    Keyword: DF_BASIS_SCF
    atoms 1 entry N          line   171 file /Users/joseantoniorodriguesromero/anaconda3/share/psi4/basis/cc-pvdz-jkfit.gbs 
    atoms 2 entry NA         line   498 file /Users/joseantoniorodriguesromero/anaconda3/share/psi4/basis/def2-universal-jkfit.gbs 

   => Loading Basis Set <=

    Name: CC-PVDZ
    Role: ORBITAL
    Keyword: BASIS
    atoms 1 entry N          line   168 file /Users/joseantoniorodriguesromero/anaconda3/share/psi4/basis/cc-pvdz.gbs 
    atoms 2 entry NA         line   288 file /Users/joseantoniorodriguesromero/anaconda3/share/psi4/basis/cc-pvdz.gbs 

  Reading orbitals from file /tmp/doublet_NNa.default.74479.180.npy, no projection.

  ==> Integral Setup <==

  DFHelper Memory: AOs need 0.002 GiB; user supplied 0.327 GiB. 
  Using in-core AOs.

  ==> MemDFJK: Density-Fitted J/K Matrices <==

    J tasked:                   Yes
    K tasked:                   Yes
    wK tasked:                   No
    OpenMP threads:               1
    Memory [MiB]:               335
    Algorithm:                 Core
    Schwarz Cutoff:           1E-12
    Mask sparsity (%):       0.0000
    Fitting Condition:        1E-10

   => Auxiliary Basis Set <=

  Basis Set: (CC-PVDZ AUX)
    Blend: CC-PVDZ-JKFIT + DEF2-UNIVERSAL-JKFIT
    Number of shells: 58
    Number of basis functions: 182
    Number of Cartesian functions: 218
    Spherical Harmonics?: true
    Max angular momentum: 4

  Cached 100.0% of DFT collocation blocks in 0.039 [GiB].

  Minimum eigenvalue in the overlap matrix is 1.1694268935E-02.
  Reciprocal condition number of the overlap matrix is 4.2731580071E-03.
    Using symmetric orthogonalization.

  ==> Pre-Iterations <==

  SCF Guess: Orbitals guess was supplied from a previous computation.

   -------------------------------------------------------
    Irrep   Nso     Nmo     Nalpha   Nbeta   Ndocc  Nsocc
   -------------------------------------------------------
     A1        16      16       5       5       5       0
     A2         2       2       0       0       0       0
     B1         7       7       2       1       1       1
     B2         7       7       2       2       2       0
   -------------------------------------------------------
    Total      32      32       9       8       8       1
   -------------------------------------------------------

  ==> Iterations <==

                           Total Energy        Delta E     RMS |[F,P]|

   @DF-UKS iter   0:  -216.38522243553166   -2.16385e+02   1.87150e-02 
   @DF-UKS iter   1:  -216.40211700143340   -1.68946e-02   3.46506e-03 DIIS/ADIIS
   @DF-UKS iter   2:  -216.40322736031740   -1.11036e-03   2.54645e-03 DIIS/ADIIS/DAMP=1%
   @DF-UKS iter   3:  -216.40478314987959   -1.55579e-03   4.06678e-05 DIIS/DAMP=1%
   @DF-UKS iter   4:  -216.40448077846386    3.02371e-04   2.39028e-05 DIIS/DAMP=1%
   @DF-UKS iter   5:  -216.40450111706900   -2.03386e-05   1.08506e-05 DIIS/DAMP=1%
   @DF-UKS iter   6:  -216.40448802797007    1.30891e-05   4.68276e-06 DIIS/DAMP=1%
   @DF-UKS iter   7:  -216.40449067716426   -2.64919e-06   4.77421e-07 DIIS/DAMP=1%
   @DF-UKS iter   8:  -216.40449144973942   -7.72575e-07   2.14232e-08 DIIS/DAMP=1%
   @DF-UKS iter   9:  -216.40449140950702    4.02324e-08   1.33463e-09 DIIS/DAMP=1%
   @DF-UKS iter  10:  -216.40449142119581   -1.16888e-08   1.28319e-10 DIIS/DAMP=1%
   @DF-UKS iter  11:  -216.40449142164519   -4.49376e-10   2.22001e-11 DIIS/DAMP=1%
  Energy and wave function converged.


  ==> Post-Iterations <==

   Electrons on quadrature grid:
      Nalpha   =    8.9999989337 ; deviation = -1.066e-06
      Nbeta    =    8.0000002170 ; deviation = 2.170e-07
      Ntotal   =   16.9999991506 ; deviation = -8.494e-07 

   @Spin Contamination Metric:   1.644010423E-03
   @S^2 Expected:                7.500000000E-01
   @S^2 Observed:                7.516440104E-01
   @S   Expected:                5.000000000E-01
   @S   Observed:                5.000000000E-01

    Orbital Energies [Eh]
    ---------------------

    Alpha Occupied:                                                       

       1A1   -38.861177     2A1   -14.747780     3A1    -2.609047  
       4A1    -1.586675     1B1    -1.526657     1B2    -1.522946  
       5A1    -1.027167     2B1    -0.656597     2B2    -0.589882  

    Alpha Virtual:                                                        

       6A1    -0.457294     7A1    -0.233648     3B1    -0.148751  
       3B2    -0.145648     8A1    -0.130439     9A1    -0.060224  
       4B1    -0.046245     4B2    -0.044647    10A1    -0.036662  
       1A2    -0.014732    11A1    -0.013989     5B1     0.025114  
       5B2     0.033276    12A1     0.066811    13A1     0.574810  
       6B1     0.606347     6B2     0.643158    14A1     1.043343  
       7B1     1.346151     7B2     1.394805    15A1     1.417168  
       2A2     1.422946    16A1     1.541773  

    Beta Occupied:                                                        

       1A1   -38.860841     2A1   -14.727322     3A1    -2.608294  
       4A1    -1.582706     1B1    -1.523950     1B2    -1.522794  
       5A1    -0.959309     2B2    -0.568053  

    Beta Virtual:                                                         

       2B1    -0.435649     6A1    -0.433371     7A1    -0.231478  
       3B2    -0.145141     3B1    -0.140608     8A1    -0.127943  
       9A1    -0.059891     4B1    -0.045229     4B2    -0.044702  
      10A1    -0.035112     1A2    -0.014094    11A1    -0.011729  
       5B2     0.034887     5B1     0.040930    12A1     0.072257  
      13A1     0.586230     6B2     0.653784     6B1     0.679048  
      14A1     1.072188     7B2     1.404018     7B1     1.424572  
       2A2     1.488879    15A1     1.497598    16A1     1.565770  

    Final Occupation by Irrep:
             A1    A2    B1    B2 
    DOCC [     5,    0,    1,    2 ]
    SOCC [     0,    0,    1,    0 ]
    NA   [     5,    0,    2,    2 ]
    NB   [     5,    0,    1,    2 ]

  @DF-UKS Final Energy:  -216.40449142164519

   => Energetics <=

    Nuclear Repulsion Energy =             28.7153169818158069
    One-Electron Energy =                -352.5562562849632968
    Two-Electron Energy =                 124.4640361210516630
    DFT Exchange-Correlation Energy =     -17.0275882395493667
    Empirical Dispersion Energy =           0.0000000000000000
    VV10 Nonlocal Energy =                  0.0000000000000000
    Total Energy =                       -216.4044914216451900

  UHF NO Occupations:
  HONO-2 :    2 B2 1.9998601
  HONO-1 :    5 A1 1.9993266
  HONO-0 :    2 B1 1.0000000
  LUNO+0 :    6 A1 0.0006734
  LUNO+1 :    3 B2 0.0001399
  LUNO+2 :    7 A1 0.0000069
  LUNO+3 :    3 B1 0.0000019


Computation Completed


Properties will be evaluated at   0.000000,   0.000000,   0.000000 [a0]

Properties computed using the SCF density matrix


 Multipole Moments:

 ------------------------------------------------------------------------------------
     Multipole            Electronic (a.u.)      Nuclear  (a.u.)        Total (a.u.)
 ------------------------------------------------------------------------------------

 L = 1.  Multiply by 2.5417464519 to convert [e a0] to [Debye]
 Dipole X            :          0.0000000            0.0000000            0.0000000
 Dipole Y            :          0.0000000            0.0000000            0.0000000
 Dipole Z            :         -1.4829184            0.4997659           -0.9831525
 Magnitude           :                                                    0.9831525

 ------------------------------------------------------------------------------------

*** tstop() called on Joses-MacBook-Pro-2.local at Thu Jul 17 13:52:51 2025
Module time:
	user time   =       2.76 seconds =       0.05 minutes
	system time =       6.47 seconds =       0.11 minutes
	total time  =          1 seconds =       0.02 minutes
Total time:
	user time   =      11.44 seconds =       0.19 minutes
	system time =      24.87 seconds =       0.41 minutes
	total time  =          4 seconds =       0.07 minutes

*** tstart() called on Joses-MacBook-Pro-2.local
*** at Thu Jul 17 13:52:51 2025


         ------------------------------------------------------------
                                   SCF GRAD                          
                          Rob Parrish, Justin Turney,                
                       Andy Simmonett, and Alex Sokolov              
         ------------------------------------------------------------

  ==> Geometry <==

    Molecular point group: c2v
    Full point group: C_inf_v

    Geometry (in Angstrom), charge = 1, multiplicity = 2:

       Center              X                  Y                   Z               Mass       
    ------------   -----------------  -----------------  -----------------  -----------------
         N            0.000000000000     0.000000000000     0.881850861272    14.003074004430
         NA           0.000000000000     0.000000000000    -0.537135571906    22.989769282000

  Nuclear repulsion =   28.715316981815807

  ==> Basis Set <==

  Basis Set: CC-PVDZ
    Blend: CC-PVDZ
    Number of shells: 14
    Number of basis functions: 32
    Number of Cartesian functions: 34
    Spherical Harmonics?: true
    Max angular momentum: 2

  ==> DFJKGrad: Density-Fitted SCF Gradients <==

    Gradient:                    1
    J tasked:                  Yes
    K tasked:                  Yes
    wK tasked:                  No
    OpenMP threads:              1
    Integrals threads:           1
    Memory [MiB]:              375
    Schwarz Cutoff:          1E-12
    Fitting Condition:       1E-10

   => Auxiliary Basis Set <=

  Basis Set: (CC-PVDZ AUX)
    Blend: CC-PVDZ-JKFIT + DEF2-UNIVERSAL-JKFIT
    Number of shells: 58
    Number of basis functions: 182
    Number of Cartesian functions: 218
    Spherical Harmonics?: true
    Max angular momentum: 4

  ==> DFT Potential <==

   => LibXC <=

    Version 6.2.2
    S. Lehtola, C. Steigemann, M. J.T. Oliveira, and M. A.L. Marques.,  SoftwareX 7, 1–5 (2018) (10.1016/j.softx.2017.11.002)

   => Composite Functional: B3LYP <= 

    B3LYP Hyb-GGA Exchange-Correlation Functional

    P. J. Stephens, F. J. Devlin, C. F. Chabalowski, and M. J. Frisch.,  J. Phys. Chem. 98, 11623 (1994) (10.1021/j100096a001)

    Deriv               =              1
    GGA                 =           TRUE
    Meta                =          FALSE

    Exchange Hybrid     =           TRUE
    MP2 Hybrid          =          FALSE

   => Exchange Functionals <=

    0.0800   Slater exchange
    0.7200         Becke 88

   => Exact (HF) Exchange <=

    0.2000               HF 

   => Correlation Functionals <=

    0.1900   Vosko, Wilk & Nusair (VWN5_RPA)
    0.8100   Lee, Yang & Parr

   => LibXC Density Thresholds  <==

    XC_HYB_GGA_XC_B3LYP:  1.00E-15 

   => Molecular Quadrature <=

    Radial Scheme          =       TREUTLER
    Pruning Scheme         =           NONE
    Nuclear Scheme         =       TREUTLER

    Blocking Scheme        =         OCTREE
    BS radius alpha        =              1
    Pruning alpha          =              1
    Radial Points          =             75
    Spherical Points       =            302
    Total Points           =          43731
    Total Blocks           =            418
    Max Points             =            256
    Max Functions          =             32
    Weights Tolerance      =       1.00E-15


  -Total Gradient:
     Atom            X                  Y                   Z
    ------   -----------------  -----------------  -----------------
       1       -0.000000000000    -0.000000000000    -0.338112390561
       2        0.000000000000     0.000000000000     0.338062860228


*** tstop() called on Joses-MacBook-Pro-2.local at Thu Jul 17 13:52:51 2025
Module time:
	user time   =       0.84 seconds =       0.01 minutes
	system time =       2.36 seconds =       0.04 minutes
	total time  =          0 seconds =       0.00 minutes
Total time:
	user time   =      12.28 seconds =       0.20 minutes
	system time =      27.24 seconds =       0.45 minutes
	total time  =          4 seconds =       0.07 minutes

    			-----------------------------------------

    			 OPTKING 3.0: for geometry optimizations 

    			     By R.A. King, Bethel University     

    			        with contributions from          

    			    A.V. Copan, J. Cayton, A. Heide      

    			-----------------------------------------

    
	                            ===> Fragment 1 <== 

	 Z (Atomic Numbers)          Masses                          Geom                  
	       7.000000            14.003074          0.00000000  0.00000000  1.66645661   
	      11.000000            22.989769          0.00000000  0.00000000 -1.01503912   

	 - Coordinate -           - BOHR/RAD -       - ANG/DEG -
	 R(1,2)           =         2.681496           1.418986


	        --- Internal Coordinate Step in ANG or DEG, aJ/ANG or AJ/DEG ---
	-------------------------------------------------------------------------------
	           Coordinate      Previous         Force          Change          New 
	           ----------      --------        ------          ------        ------
	               R(1,2)       1.41899        2.78541        0.16498       1.58397
	-------------------------------------------------------------------------------

	                                 ==> Convergence Check <==                                  
    
	Measures of convergence in internal coordinates in au.
    
	Criteria marked as inactive (o), active & met (*), and active & unmet ( ).

	----------------------------------------------------------------------------------------------
	   Step    Total Energy     Delta E     Max Force     RMS Force      Max Disp      RMS Disp   
	----------------------------------------------------------------------------------------------
	  Convergence Criteria     1.00e-06 *    3.00e-04 *             o    1.20e-03 *             o
	----------------------------------------------------------------------------------------------
	     3    -216.40449142   -1.04e-01      3.38e-01      3.38e-01 o    3.12e-01      3.12e-01 o  ~
	----------------------------------------------------------------------------------------------

Next Geometry in Ang 
	Fragment 1 (Ang)

	    N   0.0000000000   0.0000000000   0.9643429391
	   Na   0.0000000000   0.0000000000  -0.6196276497


    Structure for next step:
    Molecular point group: c2v
    Full point group: C_inf_v

    Geometry (in Angstrom), charge = 1, multiplicity = 2:

    N            0.000000000000     0.000000000000     0.984382792720
    NA           0.000000000000     0.000000000000    -0.599587796035


Scratch directory: /tmp/
gradient() will perform analytic gradient computation.
   => Libint2 <=

    Primary   basis highest AM E, G, H:  6, 6, 3
    Auxiliary basis highest AM E, G, H:  7, 7, 4
    Onebody   basis highest AM E, G, H:  -, -, -
    Solid Harmonics ordering:            Gaussian

*** tstart() called on Joses-MacBook-Pro-2.local
*** at Thu Jul 17 13:52:51 2025

   => Loading Basis Set <=

    Name: CC-PVDZ
    Role: ORBITAL
    Keyword: BASIS
    atoms 1 entry N          line   168 file /Users/joseantoniorodriguesromero/anaconda3/share/psi4/basis/cc-pvdz.gbs 
    atoms 2 entry NA         line   288 file /Users/joseantoniorodriguesromero/anaconda3/share/psi4/basis/cc-pvdz.gbs 


         ---------------------------------------------------------
                                   SCF
               by Justin Turney, Rob Parrish, Andy Simmonett
                          and Daniel G. A. Smith
                              UKS Reference
                        1 Threads,    500 MiB Core
         ---------------------------------------------------------

  ==> Geometry <==

    Molecular point group: c2v
    Full point group: C_inf_v

    Geometry (in Angstrom), charge = 1, multiplicity = 2:

       Center              X                  Y                   Z               Mass       
    ------------   -----------------  -----------------  -----------------  -----------------
         N            0.000000000000     0.000000000000     0.984382792720    14.003074004430
         NA           0.000000000000     0.000000000000    -0.599587796035    22.989769282000

  Running in c2v symmetry.

  Rotational constants: A = ************  B =      0.77208  C =      0.77208 [cm^-1]
  Rotational constants: A = ************  B =  23146.35920  C =  23146.35920 [MHz]
  Nuclear repulsion =   25.724369827852144

  Charge       = 1
  Multiplicity = 2
  Electrons    = 17
  Nalpha       = 9
  Nbeta        = 8

  ==> Algorithm <==

  SCF Algorithm Type is DF.
  DIIS enabled.
  MOM disabled.
  Fractional occupation disabled.
  Guess Type is READ.
  Energy threshold   = 1.00e-08
  Density threshold  = 1.00e-08
  Integral threshold = 1.00e-12

  ==> Primary Basis <==

  Basis Set: CC-PVDZ
    Blend: CC-PVDZ
    Number of shells: 14
    Number of basis functions: 32
    Number of Cartesian functions: 34
    Spherical Harmonics?: true
    Max angular momentum: 2

  ==> DFT Potential <==

   => LibXC <=

    Version 6.2.2
    S. Lehtola, C. Steigemann, M. J.T. Oliveira, and M. A.L. Marques.,  SoftwareX 7, 1–5 (2018) (10.1016/j.softx.2017.11.002)

   => Composite Functional: B3LYP <= 

    B3LYP Hyb-GGA Exchange-Correlation Functional

    P. J. Stephens, F. J. Devlin, C. F. Chabalowski, and M. J. Frisch.,  J. Phys. Chem. 98, 11623 (1994) (10.1021/j100096a001)

    Deriv               =              1
    GGA                 =           TRUE
    Meta                =          FALSE

    Exchange Hybrid     =           TRUE
    MP2 Hybrid          =          FALSE

   => Exchange Functionals <=

    0.0800   Slater exchange
    0.7200         Becke 88

   => Exact (HF) Exchange <=

    0.2000               HF 

   => Correlation Functionals <=

    0.1900   Vosko, Wilk & Nusair (VWN5_RPA)
    0.8100   Lee, Yang & Parr

   => LibXC Density Thresholds  <==

    XC_HYB_GGA_XC_B3LYP:  1.00E-15 

   => Molecular Quadrature <=

    Radial Scheme          =       TREUTLER
    Pruning Scheme         =           NONE
    Nuclear Scheme         =       TREUTLER

    Blocking Scheme        =         OCTREE
    BS radius alpha        =              1
    Pruning alpha          =              1
    Radial Points          =             75
    Spherical Points       =            302
    Total Points           =          43755
    Total Blocks           =            421
    Max Points             =            256
    Max Functions          =             32
    Weights Tolerance      =       1.00E-15

   => Loading Basis Set <=

    Name: (CC-PVDZ AUX)
    Role: JKFIT
    Keyword: DF_BASIS_SCF
    atoms 1 entry N          line   171 file /Users/joseantoniorodriguesromero/anaconda3/share/psi4/basis/cc-pvdz-jkfit.gbs 
    atoms 2 entry NA         line   498 file /Users/joseantoniorodriguesromero/anaconda3/share/psi4/basis/def2-universal-jkfit.gbs 

   => Loading Basis Set <=

    Name: CC-PVDZ
    Role: ORBITAL
    Keyword: BASIS
    atoms 1 entry N          line   168 file /Users/joseantoniorodriguesromero/anaconda3/share/psi4/basis/cc-pvdz.gbs 
    atoms 2 entry NA         line   288 file /Users/joseantoniorodriguesromero/anaconda3/share/psi4/basis/cc-pvdz.gbs 

  Reading orbitals from file /tmp/doublet_NNa.default.74479.180.npy, no projection.

  ==> Integral Setup <==

  DFHelper Memory: AOs need 0.002 GiB; user supplied 0.327 GiB. 
  Using in-core AOs.

  ==> MemDFJK: Density-Fitted J/K Matrices <==

    J tasked:                   Yes
    K tasked:                   Yes
    wK tasked:                   No
    OpenMP threads:               1
    Memory [MiB]:               335
    Algorithm:                 Core
    Schwarz Cutoff:           1E-12
    Mask sparsity (%):       0.0000
    Fitting Condition:        1E-10

   => Auxiliary Basis Set <=

  Basis Set: (CC-PVDZ AUX)
    Blend: CC-PVDZ-JKFIT + DEF2-UNIVERSAL-JKFIT
    Number of shells: 58
    Number of basis functions: 182
    Number of Cartesian functions: 218
    Spherical Harmonics?: true
    Max angular momentum: 4

  Cached 100.0% of DFT collocation blocks in 0.039 [GiB].

  Minimum eigenvalue in the overlap matrix is 1.1785958766E-02.
  Reciprocal condition number of the overlap matrix is 4.3004205418E-03.
    Using symmetric orthogonalization.

  ==> Pre-Iterations <==

  SCF Guess: Orbitals guess was supplied from a previous computation.

   -------------------------------------------------------
    Irrep   Nso     Nmo     Nalpha   Nbeta   Ndocc  Nsocc
   -------------------------------------------------------
     A1        16      16       5       5       5       0
     A2         2       2       0       0       0       0
     B1         7       7       2       1       1       1
     B2         7       7       2       2       2       0
   -------------------------------------------------------
    Total      32      32       9       8       8       1
   -------------------------------------------------------

  ==> Iterations <==

                           Total Energy        Delta E     RMS |[F,P]|

   @DF-UKS iter   0:  -216.47955461397441   -2.16480e+02   1.72315e-02 
   @DF-UKS iter   1:  -216.48209974353273   -2.54513e-03   2.58360e-03 DIIS/ADIIS
   @DF-UKS iter   2:  -216.48275621036947   -6.56467e-04   1.89441e-03 DIIS/ADIIS/DAMP=1%
   @DF-UKS iter   3:  -216.48391488395373   -1.15867e-03   4.33694e-05 DIIS/DAMP=1%
   @DF-UKS iter   4:  -216.48347568975078    4.39194e-04   1.86023e-05 DIIS/DAMP=1%
   @DF-UKS iter   5:  -216.48346400339642    1.16864e-05   1.05708e-05 DIIS/DAMP=1%
   @DF-UKS iter   6:  -216.48346957289590   -5.56950e-06   3.90626e-06 DIIS/DAMP=1%
   @DF-UKS iter   7:  -216.48346521979880    4.35310e-06   4.45977e-07 DIIS/DAMP=1%
   @DF-UKS iter   8:  -216.48346672478883   -1.50499e-06   1.65999e-08 DIIS/DAMP=1%
   @DF-UKS iter   9:  -216.48346660477986    1.20009e-07   2.03515e-09 DIIS/DAMP=1%
   @DF-UKS iter  10:  -216.48346660694025   -2.16039e-09   3.36414e-10 DIIS/DAMP=1%
  Energy and wave function converged.


  ==> Post-Iterations <==

   Electrons on quadrature grid:
      Nalpha   =    9.0000022094 ; deviation = 2.209e-06
      Nbeta    =    8.0000006826 ; deviation = 6.826e-07
      Ntotal   =   17.0000028920 ; deviation = 2.892e-06 

   @Spin Contamination Metric:   1.601303245E-03
   @S^2 Expected:                7.500000000E-01
   @S^2 Observed:                7.516013032E-01
   @S   Expected:                5.000000000E-01
   @S   Observed:                5.000000000E-01

    Orbital Energies [Eh]
    ---------------------

    Alpha Occupied:                                                       

       1A1   -38.816428     2A1   -14.745261     3A1    -2.561434  
       4A1    -1.519666     1B1    -1.486025     1B2    -1.483730  
       5A1    -1.040685     2B1    -0.643167     2B2    -0.576882  

    Alpha Virtual:                                                        

       6A1    -0.483099     7A1    -0.232200     3B1    -0.147546  
       3B2    -0.144780     8A1    -0.130382     9A1    -0.058939  
       4B1    -0.045920     4B2    -0.044607    10A1    -0.034343  
       1A2    -0.009137    11A1    -0.008464     5B1     0.025271  
       5B2     0.033047    12A1     0.069651    13A1     0.566909  
       6B1     0.588794     6B2     0.625870    14A1     1.041843  
       7B1     1.373536    15A1     1.415240     7B2     1.421990  
       2A2     1.435182    16A1     1.474546  

    Beta Occupied:                                                        

       1A1   -38.816327     2A1   -14.724901     3A1    -2.561245  
       4A1    -1.517857     1B1    -1.484814     1B2    -1.483752  
       5A1    -0.971994     2B2    -0.555087  

    Beta Virtual:                                                         

       6A1    -0.459002     2B1    -0.422911     7A1    -0.230703  
       3B2    -0.144358     3B1    -0.139803     8A1    -0.127814  
       9A1    -0.058930     4B1    -0.045074     4B2    -0.044678  
      10A1    -0.033100     1A2    -0.008951    11A1    -0.006723  
       5B2     0.034614     5B1     0.040646    12A1     0.075207  
      13A1     0.578928     6B2     0.636677     6B1     0.662698  
      14A1     1.072585     7B2     1.431253     7B1     1.453119  
      15A1     1.481546     2A2     1.501473    16A1     1.512886  

    Final Occupation by Irrep:
             A1    A2    B1    B2 
    DOCC [     5,    0,    1,    2 ]
    SOCC [     0,    0,    1,    0 ]
    NA   [     5,    0,    2,    2 ]
    NB   [     5,    0,    1,    2 ]

  @DF-UKS Final Energy:  -216.48346660694025

   => Energetics <=

    Nuclear Repulsion Energy =             25.7243698278521435
    One-Electron Energy =                -347.2411815828661474
    Two-Electron Energy =                 122.0350571552670971
    DFT Exchange-Correlation Energy =     -17.0017120071933441
    Empirical Dispersion Energy =           0.0000000000000000
    VV10 Nonlocal Energy =                  0.0000000000000000
    Total Energy =                       -216.4834666069402545

  UHF NO Occupations:
  HONO-2 :    2 B2 1.9998509
  HONO-1 :    5 A1 1.9993539
  HONO-0 :    2 B1 1.0000000
  LUNO+0 :    6 A1 0.0006461
  LUNO+1 :    3 B2 0.0001491
  LUNO+2 :    7 A1 0.0000048
  LUNO+3 :    3 B1 0.0000007


Computation Completed


Properties will be evaluated at   0.000000,   0.000000,   0.000000 [a0]

Properties computed using the SCF density matrix


 Multipole Moments:

 ------------------------------------------------------------------------------------
     Multipole            Electronic (a.u.)      Nuclear  (a.u.)        Total (a.u.)
 ------------------------------------------------------------------------------------

 L = 1.  Multiply by 2.5417464519 to convert [e a0] to [Debye]
 Dipole X            :          0.0000000            0.0000000            0.0000000
 Dipole Y            :          0.0000000            0.0000000            0.0000000
 Dipole Z            :         -1.5009328            0.5578732           -0.9430596
 Magnitude           :                                                    0.9430596

 ------------------------------------------------------------------------------------

*** tstop() called on Joses-MacBook-Pro-2.local at Thu Jul 17 13:52:52 2025
Module time:
	user time   =       2.72 seconds =       0.05 minutes
	system time =       6.53 seconds =       0.11 minutes
	total time  =          1 seconds =       0.02 minutes
Total time:
	user time   =      15.16 seconds =       0.25 minutes
	system time =      33.89 seconds =       0.56 minutes
	total time  =          5 seconds =       0.08 minutes

*** tstart() called on Joses-MacBook-Pro-2.local
*** at Thu Jul 17 13:52:52 2025


         ------------------------------------------------------------
                                   SCF GRAD                          
                          Rob Parrish, Justin Turney,                
                       Andy Simmonett, and Alex Sokolov              
         ------------------------------------------------------------

  ==> Geometry <==

    Molecular point group: c2v
    Full point group: C_inf_v

    Geometry (in Angstrom), charge = 1, multiplicity = 2:

       Center              X                  Y                   Z               Mass       
    ------------   -----------------  -----------------  -----------------  -----------------
         N            0.000000000000     0.000000000000     0.984382792720    14.003074004430
         NA           0.000000000000     0.000000000000    -0.599587796035    22.989769282000

  Nuclear repulsion =   25.724369827852144

  ==> Basis Set <==

  Basis Set: CC-PVDZ
    Blend: CC-PVDZ
    Number of shells: 14
    Number of basis functions: 32
    Number of Cartesian functions: 34
    Spherical Harmonics?: true
    Max angular momentum: 2

  ==> DFJKGrad: Density-Fitted SCF Gradients <==

    Gradient:                    1
    J tasked:                  Yes
    K tasked:                  Yes
    wK tasked:                  No
    OpenMP threads:              1
    Integrals threads:           1
    Memory [MiB]:              375
    Schwarz Cutoff:          1E-12
    Fitting Condition:       1E-10

   => Auxiliary Basis Set <=

  Basis Set: (CC-PVDZ AUX)
    Blend: CC-PVDZ-JKFIT + DEF2-UNIVERSAL-JKFIT
    Number of shells: 58
    Number of basis functions: 182
    Number of Cartesian functions: 218
    Spherical Harmonics?: true
    Max angular momentum: 4

  ==> DFT Potential <==

   => LibXC <=

    Version 6.2.2
    S. Lehtola, C. Steigemann, M. J.T. Oliveira, and M. A.L. Marques.,  SoftwareX 7, 1–5 (2018) (10.1016/j.softx.2017.11.002)

   => Composite Functional: B3LYP <= 

    B3LYP Hyb-GGA Exchange-Correlation Functional

    P. J. Stephens, F. J. Devlin, C. F. Chabalowski, and M. J. Frisch.,  J. Phys. Chem. 98, 11623 (1994) (10.1021/j100096a001)

    Deriv               =              1
    GGA                 =           TRUE
    Meta                =          FALSE

    Exchange Hybrid     =           TRUE
    MP2 Hybrid          =          FALSE

   => Exchange Functionals <=

    0.0800   Slater exchange
    0.7200         Becke 88

   => Exact (HF) Exchange <=

    0.2000               HF 

   => Correlation Functionals <=

    0.1900   Vosko, Wilk & Nusair (VWN5_RPA)
    0.8100   Lee, Yang & Parr

   => LibXC Density Thresholds  <==

    XC_HYB_GGA_XC_B3LYP:  1.00E-15 

   => Molecular Quadrature <=

    Radial Scheme          =       TREUTLER
    Pruning Scheme         =           NONE
    Nuclear Scheme         =       TREUTLER

    Blocking Scheme        =         OCTREE
    BS radius alpha        =              1
    Pruning alpha          =              1
    Radial Points          =             75
    Spherical Points       =            302
    Total Points           =          43755
    Total Blocks           =            421
    Max Points             =            256
    Max Functions          =             32
    Weights Tolerance      =       1.00E-15


  -Total Gradient:
     Atom            X                  Y                   Z
    ------   -----------------  -----------------  -----------------
       1        0.000000000000    -0.000000000000    -0.183420960423
       2        0.000000000000     0.000000000000     0.183385254844


*** tstop() called on Joses-MacBook-Pro-2.local at Thu Jul 17 13:52:52 2025
Module time:
	user time   =       0.63 seconds =       0.01 minutes
	system time =       2.78 seconds =       0.05 minutes
	total time  =          0 seconds =       0.00 minutes
Total time:
	user time   =      15.79 seconds =       0.26 minutes
	system time =      36.69 seconds =       0.61 minutes
	total time  =          5 seconds =       0.08 minutes

    			-----------------------------------------

    			 OPTKING 3.0: for geometry optimizations 

    			     By R.A. King, Bethel University     

    			        with contributions from          

    			    A.V. Copan, J. Cayton, A. Heide      

    			-----------------------------------------

    
	                            ===> Fragment 1 <== 

	 Z (Atomic Numbers)          Masses                          Geom                  
	       7.000000            14.003074          0.00000000  0.00000000  1.86021388   
	      11.000000            22.989769          0.00000000  0.00000000 -1.13305672   

	 - Coordinate -           - BOHR/RAD -       - ANG/DEG -
	 R(1,2)           =         2.993271           1.583971


	        --- Internal Coordinate Step in ANG or DEG, aJ/ANG or AJ/DEG ---
	-------------------------------------------------------------------------------
	           Coordinate      Previous         Force          Change          New 
	           ----------      --------        ------          ------        ------
	               R(1,2)       1.58397        1.51101        0.17437       1.75835
	-------------------------------------------------------------------------------

	                                 ==> Convergence Check <==                                  
    
	Measures of convergence in internal coordinates in au.
    
	Criteria marked as inactive (o), active & met (*), and active & unmet ( ).

	----------------------------------------------------------------------------------------------
	   Step    Total Energy     Delta E     Max Force     RMS Force      Max Disp      RMS Disp   
	----------------------------------------------------------------------------------------------
	  Convergence Criteria     1.00e-06 *    3.00e-04 *             o    1.20e-03 *             o
	----------------------------------------------------------------------------------------------
	     4    -216.48346661   -7.90e-02      1.83e-01      1.83e-01 o    3.30e-01      3.30e-01 o  ~
	----------------------------------------------------------------------------------------------

Next Geometry in Ang 
	Fragment 1 (Ang)

	    N   0.0000000000   0.0000000000   1.0715700092
	   Na   0.0000000000   0.0000000000  -0.6867750125


    Structure for next step:
    Molecular point group: c2v
    Full point group: C_inf_v

    Geometry (in Angstrom), charge = 1, multiplicity = 2:

    N            0.000000000000     0.000000000000     1.092750455945
    NA           0.000000000000     0.000000000000    -0.665594565795


Scratch directory: /tmp/
gradient() will perform analytic gradient computation.
   => Libint2 <=

    Primary   basis highest AM E, G, H:  6, 6, 3
    Auxiliary basis highest AM E, G, H:  7, 7, 4
    Onebody   basis highest AM E, G, H:  -, -, -
    Solid Harmonics ordering:            Gaussian

*** tstart() called on Joses-MacBook-Pro-2.local
*** at Thu Jul 17 13:52:52 2025

   => Loading Basis Set <=

    Name: CC-PVDZ
    Role: ORBITAL
    Keyword: BASIS
    atoms 1 entry N          line   168 file /Users/joseantoniorodriguesromero/anaconda3/share/psi4/basis/cc-pvdz.gbs 
    atoms 2 entry NA         line   288 file /Users/joseantoniorodriguesromero/anaconda3/share/psi4/basis/cc-pvdz.gbs 


         ---------------------------------------------------------
                                   SCF
               by Justin Turney, Rob Parrish, Andy Simmonett
                          and Daniel G. A. Smith
                              UKS Reference
                        1 Threads,    500 MiB Core
         ---------------------------------------------------------

  ==> Geometry <==

    Molecular point group: c2v
    Full point group: C_inf_v

    Geometry (in Angstrom), charge = 1, multiplicity = 2:

       Center              X                  Y                   Z               Mass       
    ------------   -----------------  -----------------  -----------------  -----------------
         N            0.000000000000     0.000000000000     1.092750455945    14.003074004430
         NA           0.000000000000     0.000000000000    -0.665594565795    22.989769282000

  Running in c2v symmetry.

  Rotational constants: A = ************  B =      0.62654  C =      0.62654 [cm^-1]
  Rotational constants: A = ************  B =  18783.16280  C =  18783.16280 [MHz]
  Nuclear repulsion =   23.173293476420323

  Charge       = 1
  Multiplicity = 2
  Electrons    = 17
  Nalpha       = 9
  Nbeta        = 8

  ==> Algorithm <==

  SCF Algorithm Type is DF.
  DIIS enabled.
  MOM disabled.
  Fractional occupation disabled.
  Guess Type is READ.
  Energy threshold   = 1.00e-08
  Density threshold  = 1.00e-08
  Integral threshold = 1.00e-12

  ==> Primary Basis <==

  Basis Set: CC-PVDZ
    Blend: CC-PVDZ
    Number of shells: 14
    Number of basis functions: 32
    Number of Cartesian functions: 34
    Spherical Harmonics?: true
    Max angular momentum: 2

  ==> DFT Potential <==

   => LibXC <=

    Version 6.2.2
    S. Lehtola, C. Steigemann, M. J.T. Oliveira, and M. A.L. Marques.,  SoftwareX 7, 1–5 (2018) (10.1016/j.softx.2017.11.002)

   => Composite Functional: B3LYP <= 

[...]

	----------------------------------------------------------------------------------------------
	   Step    Total Energy     Delta E     Max Force     RMS Force      Max Disp      RMS Disp   
	----------------------------------------------------------------------------------------------
	  Convergence Criteria     1.00e-06 *    3.00e-04 *             o    1.20e-03 *             o
	----------------------------------------------------------------------------------------------
	    16    -216.57425931   -2.42e-05      8.36e-05 *    8.36e-05 o    3.66e-01      3.66e-01 o  ~
	----------------------------------------------------------------------------------------------

Next Geometry in Ang 
	Fragment 1 (Ang)

	    N   0.0000000000   0.0000000000   2.2919231266
	   Na   0.0000000000   0.0000000000  -1.4338543730


    Structure for next step:
    Molecular point group: c2v
    Full point group: C_inf_v

    Geometry (in Angstrom), charge = 1, multiplicity = 2:

    N            0.000000000000     0.000000000000     2.315441515273
    NA           0.000000000000     0.000000000000    -1.410335984393


Scratch directory: /tmp/
gradient() will perform analytic gradient computation.
   => Libint2 <=

    Primary   basis highest AM E, G, H:  6, 6, 3
    Auxiliary basis highest AM E, G, H:  7, 7, 4
    Onebody   basis highest AM E, G, H:  -, -, -
    Solid Harmonics ordering:            Gaussian

*** tstart() called on Joses-MacBook-Pro-2.local
*** at Thu Jul 17 13:53:07 2025

   => Loading Basis Set <=

    Name: CC-PVDZ
    Role: ORBITAL
    Keyword: BASIS
    atoms 1 entry N          line   168 file /Users/joseantoniorodriguesromero/anaconda3/share/psi4/basis/cc-pvdz.gbs 
    atoms 2 entry NA         line   288 file /Users/joseantoniorodriguesromero/anaconda3/share/psi4/basis/cc-pvdz.gbs 


         ---------------------------------------------------------
                                   SCF
               by Justin Turney, Rob Parrish, Andy Simmonett
                          and Daniel G. A. Smith
                              UKS Reference
                        1 Threads,    500 MiB Core
         ---------------------------------------------------------

  ==> Geometry <==

    Molecular point group: c2v
    Full point group: C_inf_v

    Geometry (in Angstrom), charge = 1, multiplicity = 2:

       Center              X                  Y                   Z               Mass       
    ------------   -----------------  -----------------  -----------------  -----------------
         N            0.000000000000     0.000000000000     2.315441515273    14.003074004430
         NA           0.000000000000     0.000000000000    -1.410335984393    22.989769282000

  Running in c2v symmetry.

  Rotational constants: A = ************  B =      0.13955  C =      0.13955 [cm^-1]
  Rotational constants: A = ************  B =   4183.53189  C =   4183.53189 [MHz]
  Nuclear repulsion =   10.936414003585833

  Charge       = 1
  Multiplicity = 2
  Electrons    = 17
  Nalpha       = 9
  Nbeta        = 8

  ==> Algorithm <==

  SCF Algorithm Type is DF.
  DIIS enabled.
  MOM disabled.
  Fractional occupation disabled.
  Guess Type is READ.
  Energy threshold   = 1.00e-08
  Density threshold  = 1.00e-08
  Integral threshold = 1.00e-12

  ==> Primary Basis <==

  Basis Set: CC-PVDZ
    Blend: CC-PVDZ
    Number of shells: 14
    Number of basis functions: 32
    Number of Cartesian functions: 34
    Spherical Harmonics?: true
    Max angular momentum: 2

  ==> DFT Potential <==

   => LibXC <=

    Version 6.2.2
    S. Lehtola, C. Steigemann, M. J.T. Oliveira, and M. A.L. Marques.,  SoftwareX 7, 1–5 (2018) (10.1016/j.softx.2017.11.002)

   => Composite Functional: B3LYP <= 

    B3LYP Hyb-GGA Exchange-Correlation Functional

    P. J. Stephens, F. J. Devlin, C. F. Chabalowski, and M. J. Frisch.,  J. Phys. Chem. 98, 11623 (1994) (10.1021/j100096a001)

    Deriv               =              1
    GGA                 =           TRUE
    Meta                =          FALSE

    Exchange Hybrid     =           TRUE
    MP2 Hybrid          =          FALSE

   => Exchange Functionals <=

    0.0800   Slater exchange
    0.7200         Becke 88

   => Exact (HF) Exchange <=

    0.2000               HF 

   => Correlation Functionals <=

    0.1900   Vosko, Wilk & Nusair (VWN5_RPA)
    0.8100   Lee, Yang & Parr

   => LibXC Density Thresholds  <==

    XC_HYB_GGA_XC_B3LYP:  1.00E-15 

   => Molecular Quadrature <=

    Radial Scheme          =       TREUTLER
    Pruning Scheme         =           NONE
    Nuclear Scheme         =       TREUTLER

    Blocking Scheme        =         OCTREE
    BS radius alpha        =              1
    Pruning alpha          =              1
    Radial Points          =             75
    Spherical Points       =            302
    Total Points           =          43900
    Total Blocks           =            432
    Max Points             =            256
    Max Functions          =             32
    Weights Tolerance      =       1.00E-15

   => Loading Basis Set <=

    Name: (CC-PVDZ AUX)
    Role: JKFIT
    Keyword: DF_BASIS_SCF
    atoms 1 entry N          line   171 file /Users/joseantoniorodriguesromero/anaconda3/share/psi4/basis/cc-pvdz-jkfit.gbs 
    atoms 2 entry NA         line   498 file /Users/joseantoniorodriguesromero/anaconda3/share/psi4/basis/def2-universal-jkfit.gbs 

   => Loading Basis Set <=

    Name: CC-PVDZ
    Role: ORBITAL
    Keyword: BASIS
    atoms 1 entry N          line   168 file /Users/joseantoniorodriguesromero/anaconda3/share/psi4/basis/cc-pvdz.gbs 
    atoms 2 entry NA         line   288 file /Users/joseantoniorodriguesromero/anaconda3/share/psi4/basis/cc-pvdz.gbs 

  Reading orbitals from file /tmp/doublet_NNa.default.74479.180.npy, no projection.

  ==> Integral Setup <==

  DFHelper Memory: AOs need 0.002 GiB; user supplied 0.331 GiB. 
  Using in-core AOs.

  ==> MemDFJK: Density-Fitted J/K Matrices <==

    J tasked:                   Yes
    K tasked:                   Yes
    wK tasked:                   No
    OpenMP threads:               1
    Memory [MiB]:               338
    Algorithm:                 Core
    Schwarz Cutoff:           1E-12
    Mask sparsity (%):       0.0000
    Fitting Condition:        1E-10

   => Auxiliary Basis Set <=

  Basis Set: (CC-PVDZ AUX)
    Blend: CC-PVDZ-JKFIT + DEF2-UNIVERSAL-JKFIT
    Number of shells: 58
    Number of basis functions: 182
    Number of Cartesian functions: 218
    Spherical Harmonics?: true
    Max angular momentum: 4

  Cached 100.0% of DFT collocation blocks in 0.036 [GiB].

  Minimum eigenvalue in the overlap matrix is 4.1710164665E-02.
  Reciprocal condition number of the overlap matrix is 1.7708889607E-02.
    Using symmetric orthogonalization.

  ==> Pre-Iterations <==

  SCF Guess: Orbitals guess was supplied from a previous computation.

   -------------------------------------------------------
    Irrep   Nso     Nmo     Nalpha   Nbeta   Ndocc  Nsocc
   -------------------------------------------------------
     A1        16      16       5       5       5       0
     A2         2       2       0       0       0       0
     B1         7       7       2       1       1       1
     B2         7       7       2       2       2       0
   -------------------------------------------------------
    Total      32      32       9       8       8       1
   -------------------------------------------------------

  ==> Iterations <==

                           Total Energy        Delta E     RMS |[F,P]|

   @DF-UKS iter   0:  -216.56892691281828   -2.16569e+02   4.05080e-04 
   @DF-UKS iter   1:  -216.57427529875616   -5.34839e-03   2.24916e-04 DIIS/ADIIS
   @DF-UKS iter   2:  -216.57428089445426   -5.59570e-06   1.53025e-04 DIIS/ADIIS/DAMP=1%
   @DF-UKS iter   3:  -216.57423989451851    4.09999e-05   1.78472e-06 DIIS/DAMP=1%
   @DF-UKS iter   4:  -216.57428506025678   -4.51657e-05   1.26533e-06 DIIS/DAMP=1%
   @DF-UKS iter   5:  -216.57428567173821   -6.11481e-07   3.89956e-07 DIIS/DAMP=1%
   @DF-UKS iter   6:  -216.57428545380199    2.17936e-07   2.14086e-07 DIIS/DAMP=1%
   @DF-UKS iter   7:  -216.57428566471035   -2.10908e-07   6.57384e-08 DIIS/DAMP=1%
   @DF-UKS iter   8:  -216.57428557900303    8.57073e-08   6.01037e-09 DIIS/DAMP=1%
   @DF-UKS iter   9:  -216.57428559997950   -2.09765e-08   1.89041e-10 DIIS/DAMP=1%
   @DF-UKS iter  10:  -216.57428559841571    1.56379e-09   2.02315e-11 DIIS/DAMP=1%
  Energy and wave function converged.


  ==> Post-Iterations <==

   Electrons on quadrature grid:
      Nalpha   =    8.9999987536 ; deviation = -1.246e-06
      Nbeta    =    7.9999987957 ; deviation = -1.204e-06
      Ntotal   =   16.9999975493 ; deviation = -2.451e-06 

   @Spin Contamination Metric:   1.569735259E-03
   @S^2 Expected:                7.500000000E-01
   @S^2 Observed:                7.515697353E-01
   @S   Expected:                5.000000000E-01
   @S   Observed:                5.000000000E-01

    Orbital Energies [Eh]
    ---------------------

    Alpha Occupied:                                                       

       1A1   -38.775670     2A1   -14.603107     3A1    -2.512821  
       4A1    -1.444108     1B1    -1.443927     1B2    -1.443888  
       5A1    -0.900643     2B1    -0.486784     2B2    -0.420392  

    Alpha Virtual:                                                        

       6A1    -0.359314     7A1    -0.255314     3B2    -0.151477  
       3B1    -0.150213     8A1    -0.146502     9A1    -0.070444  
      10A1    -0.050544     4B2    -0.050298     4B1    -0.048851  
       5B2     0.006198     5B1     0.006708     1A2     0.009959  
      11A1     0.010178    12A1     0.014967     6B1     0.526910  
       6B2     0.568658    13A1     0.596189    14A1     0.760622  
       7B1     1.535049    15A1     1.546322     2A2     1.577091  
       7B2     1.584260    16A1     1.603362  

    Beta Occupied:                                                        

       1A1   -38.775670     2A1   -14.583128     3A1    -2.512821  
       4A1    -1.444109     1B1    -1.443926     1B2    -1.443889  
       5A1    -0.830919     2B2    -0.398835  

    Beta Virtual:                                                         

       6A1    -0.337906     2B1    -0.265565     7A1    -0.254224  
       3B2    -0.151700     3B1    -0.148681     8A1    -0.145246  
       9A1    -0.069700     4B2    -0.050641    10A1    -0.050122  
       4B1    -0.047516     5B2     0.005980     5B1     0.008320  
       1A2     0.009590    11A1     0.010399    12A1     0.016340  
       6B2     0.581053    13A1     0.611269     6B1     0.613237  
      14A1     0.793144     7B2     1.593235    15A1     1.599908  
       7B1     1.616485     2A2     1.643947    16A1     1.654786  

    Final Occupation by Irrep:
             A1    A2    B1    B2 
    DOCC [     5,    0,    1,    2 ]
    SOCC [     0,    0,    1,    0 ]
    NA   [     5,    0,    2,    2 ]
    NB   [     5,    0,    1,    2 ]

  @DF-UKS Final Energy:  -216.57428559841571

   => Energetics <=

    Nuclear Repulsion Energy =             10.9364140035858330
    One-Electron Energy =                -319.4005725379527689
    Two-Electron Energy =                 108.8484608868156158
    DFT Exchange-Correlation Energy =     -16.9585879508643558
    Empirical Dispersion Energy =           0.0000000000000000
    VV10 Nonlocal Energy =                  0.0000000000000000
    Total Energy =                       -216.5742855984157131

  UHF NO Occupations:
  HONO-2 :    2 B2 1.9998972
  HONO-1 :    5 A1 1.9993177
  HONO-0 :    2 B1 1.0000000
  LUNO+0 :    6 A1 0.0006823
  LUNO+1 :    3 B2 0.0001028
  LUNO+2 :    7 A1 0.0000001
  LUNO+3 :    8 A1 0.0000000


Computation Completed


Properties will be evaluated at   0.000000,   0.000000,   0.000000 [a0]

Properties computed using the SCF density matrix


 Multipole Moments:

 ------------------------------------------------------------------------------------
     Multipole            Electronic (a.u.)      Nuclear  (a.u.)        Total (a.u.)
 ------------------------------------------------------------------------------------

 L = 1.  Multiply by 2.5417464519 to convert [e a0] to [Debye]
 Dipole X            :          0.0000000            0.0000000            0.0000000
 Dipole Y            :          0.0000000            0.0000000            0.0000000
 Dipole Z            :         -3.8495756            1.3122160           -2.5373596
 Magnitude           :                                                    2.5373596

 ------------------------------------------------------------------------------------

*** tstop() called on Joses-MacBook-Pro-2.local at Thu Jul 17 13:53:08 2025
Module time:
	user time   =       2.54 seconds =       0.04 minutes
	system time =       4.74 seconds =       0.08 minutes
	total time  =          1 seconds =       0.02 minutes
Total time:
	user time   =      63.07 seconds =       1.05 minutes
	system time =     135.93 seconds =       2.27 minutes
	total time  =         21 seconds =       0.35 minutes

*** tstart() called on Joses-MacBook-Pro-2.local
*** at Thu Jul 17 13:53:08 2025


         ------------------------------------------------------------
                                   SCF GRAD                          
                          Rob Parrish, Justin Turney,                
                       Andy Simmonett, and Alex Sokolov              
         ------------------------------------------------------------

  ==> Geometry <==

    Molecular point group: c2v
    Full point group: C_inf_v

    Geometry (in Angstrom), charge = 1, multiplicity = 2:

       Center              X                  Y                   Z               Mass       
    ------------   -----------------  -----------------  -----------------  -----------------
         N            0.000000000000     0.000000000000     2.315441515273    14.003074004430
         NA           0.000000000000     0.000000000000    -1.410335984393    22.989769282000

  Nuclear repulsion =   10.936414003585833

  ==> Basis Set <==

  Basis Set: CC-PVDZ
    Blend: CC-PVDZ
    Number of shells: 14
    Number of basis functions: 32
    Number of Cartesian functions: 34
    Spherical Harmonics?: true
    Max angular momentum: 2

  ==> DFJKGrad: Density-Fitted SCF Gradients <==

    Gradient:                    1
    J tasked:                  Yes
    K tasked:                  Yes
    wK tasked:                  No
    OpenMP threads:              1
    Integrals threads:           1
    Memory [MiB]:              375
    Schwarz Cutoff:          1E-12
    Fitting Condition:       1E-10

   => Auxiliary Basis Set <=

  Basis Set: (CC-PVDZ AUX)
    Blend: CC-PVDZ-JKFIT + DEF2-UNIVERSAL-JKFIT
    Number of shells: 58
    Number of basis functions: 182
    Number of Cartesian functions: 218
    Spherical Harmonics?: true
    Max angular momentum: 4

  ==> DFT Potential <==

   => LibXC <=

    Version 6.2.2
    S. Lehtola, C. Steigemann, M. J.T. Oliveira, and M. A.L. Marques.,  SoftwareX 7, 1–5 (2018) (10.1016/j.softx.2017.11.002)

   => Composite Functional: B3LYP <= 

    B3LYP Hyb-GGA Exchange-Correlation Functional

    P. J. Stephens, F. J. Devlin, C. F. Chabalowski, and M. J. Frisch.,  J. Phys. Chem. 98, 11623 (1994) (10.1021/j100096a001)

    Deriv               =              1
    GGA                 =           TRUE
    Meta                =          FALSE

    Exchange Hybrid     =           TRUE
    MP2 Hybrid          =          FALSE

   => Exchange Functionals <=

    0.0800   Slater exchange
    0.7200         Becke 88

   => Exact (HF) Exchange <=

    0.2000               HF 

   => Correlation Functionals <=

    0.1900   Vosko, Wilk & Nusair (VWN5_RPA)
    0.8100   Lee, Yang & Parr

   => LibXC Density Thresholds  <==

    XC_HYB_GGA_XC_B3LYP:  1.00E-15 

   => Molecular Quadrature <=

    Radial Scheme          =       TREUTLER
    Pruning Scheme         =           NONE
    Nuclear Scheme         =       TREUTLER

    Blocking Scheme        =         OCTREE
    BS radius alpha        =              1
    Pruning alpha          =              1
    Radial Points          =             75
    Spherical Points       =            302
    Total Points           =          43900
    Total Blocks           =            432
    Max Points             =            256
    Max Functions          =             32
    Weights Tolerance      =       1.00E-15


  -Total Gradient:
     Atom            X                  Y                   Z
    ------   -----------------  -----------------  -----------------
       1       -0.000000000000    -0.000000000000    -0.000074550771
       2        0.000000000000     0.000000000000     0.000093092154


*** tstop() called on Joses-MacBook-Pro-2.local at Thu Jul 17 13:53:08 2025
Module time:
	user time   =       1.16 seconds =       0.02 minutes
	system time =       1.50 seconds =       0.03 minutes
	total time  =          0 seconds =       0.00 minutes
Total time:
	user time   =      64.24 seconds =       1.07 minutes
	system time =     137.44 seconds =       2.29 minutes
	total time  =         21 seconds =       0.35 minutes

    			-----------------------------------------

    			 OPTKING 3.0: for geometry optimizations 

    			     By R.A. King, Bethel University     

    			        with contributions from          

    			    A.V. Copan, J. Cayton, A. Heide      

    			-----------------------------------------

    
	                            ===> Fragment 1 <== 

	 Z (Atomic Numbers)          Masses                          Geom                  
	       7.000000            14.003074          0.00000000  0.00000000  4.37555032   
	      11.000000            22.989769          0.00000000  0.00000000 -2.66514876   

	 - Coordinate -           - BOHR/RAD -       - ANG/DEG -
	 R(1,2)           =         7.040699           3.725777


	        --- Internal Coordinate Step in ANG or DEG, aJ/ANG or AJ/DEG ---
	-------------------------------------------------------------------------------
	           Coordinate      Previous         Force          Change          New 
	           ----------      --------        ------          ------        ------
	               R(1,2)       3.72578        0.00069        0.00028       3.72606
	-------------------------------------------------------------------------------

	                                 ==> Convergence Check <==                                  
    
	Measures of convergence in internal coordinates in au.
    
	Criteria marked as inactive (o), active & met (*), and active & unmet ( ).

	----------------------------------------------------------------------------------------------
	   Step    Total Energy     Delta E     Max Force     RMS Force      Max Disp      RMS Disp   
	----------------------------------------------------------------------------------------------
	  Convergence Criteria     1.00e-06 *    3.00e-04 *             o    1.20e-03 *             o
	----------------------------------------------------------------------------------------------
	    17    -216.57428560   -2.63e-05      8.38e-05 *    8.38e-05 o    5.38e-04 *    5.38e-04 o  ~
	----------------------------------------------------------------------------------------------

Next Geometry in Ang 
	Fragment 1 (Ang)

	    N   0.0000000000   0.0000000000   2.3155839623
	   Na   0.0000000000   0.0000000000  -1.4104784314


    Final optimized geometry and variables:
    Molecular point group: c2v
    Full point group: C_inf_v

    Geometry (in Angstrom), charge = 1, multiplicity = 2:

    N            0.000000000000     0.000000000000     2.315441515273
    NA           0.000000000000     0.000000000000    -1.410335984393


    Psi4 stopped on: Thursday, 17 July 2025 01:53PM
    Psi4 wall time for execution: 0:00:22.16

*** Psi4 exiting successfully. Buy a developer a beer!
