
    -----------------------------------------------------------------------
          Psi4: An Open-Source Ab Initio Electronic Structure Package
                               Psi4 1.9.1 release

                         Git: Rev {} zzzzzzz 


    D. G. A. Smith, L. A. Burns, A. C. Simmonett, R. M. Parrish,
    M. C. Schieber, R. Galvelis, P. Kraus, H. Kruse, R. Di Remigio,
    A. Alenaizan, A. M. James, S. Lehtola, J. P. Misiewicz, M. Scheurer,
    R. A. Shaw, J. B. Schriber, Y. Xie, Z. L. Glick, D. A. Sirianni,
    J. S. O'Brien, J. M. Waldrop, A. Kumar, E. G. Hohenstein,
    B. P. Pritchard, B. R. Brooks, H. F. Schaefer III, A. Yu. Sokolov,
    K. Patkowski, A. E. DePrince III, U. Bozkaya, R. A. King,
    F. A. Evangelista, J. M. Turney, T. D. Crawford, C. D. Sherrill,
    J. Chem. Phys. 152(18) 184108 (2020). https://doi.org/10.1063/5.0006002

                            Additional Code Authors
    E. T. Seidl, C. L. Janssen, E. F. Valeev, M. L. Leininger,
    J. F. Gonthier, R. M. Richard, H. R. McAlexander, M. Saitow, X. Wang,
    P. Verma, M. H. Lechner, A. Jiang, S. Behnle, A. G. Heide,
    M. F. Herbst, and D. L. Poole

             Previous Authors, Complete List of Code Contributors,
                       and Citations for Specific Modules
    https://github.com/psi4/psi4/blob/master/codemeta.json
    https://github.com/psi4/psi4/graphs/contributors
    http://psicode.org/psi4manual/master/introduction.html#citing-psifour

    -----------------------------------------------------------------------


    Psi4 started on: Thursday, 17 July 2025 03:12PM

    Process ID: 75156
    Host:       Joses-MacBook-Pro-2.local
    PSIDATADIR: /Users/joseantoniorodriguesromero/anaconda3/share/psi4
    Memory:     500.0 MiB
    Threads:    1
    
  ==> Input File <==

--------------------------------------------------------------------------
molecule { 
1 2
Mg   0.00000        0.60000        0.00000
Ar   0.00000       -0.60000        0.00000
}

set { 
basis              cc-pvdz
reference          uks
maxiter            500
geom_maxiter       500
DAMPING_PERCENTAGE 1
guess              SAP
}

optimize('b3lyp')
--------------------------------------------------------------------------

Scratch directory: /tmp/
gradient() will perform analytic gradient computation.
   => Libint2 <=

    Primary   basis highest AM E, G, H:  6, 6, 3
    Auxiliary basis highest AM E, G, H:  7, 7, 4
    Onebody   basis highest AM E, G, H:  -, -, -
    Solid Harmonics ordering:            Gaussian

*** tstart() called on Joses-MacBook-Pro-2.local
*** at Thu Jul 17 15:12:31 2025

   => Loading Basis Set <=

    Name: CC-PVDZ
    Role: ORBITAL
    Keyword: BASIS
    atoms 1 entry MG         line   353 file /Users/joseantoniorodriguesromero/anaconda3/share/psi4/basis/cc-pvdz.gbs 
    atoms 2 entry AR         line   718 file /Users/joseantoniorodriguesromero/anaconda3/share/psi4/basis/cc-pvdz.gbs 


         ---------------------------------------------------------
                                   SCF
               by Justin Turney, Rob Parrish, Andy Simmonett
                          and Daniel G. A. Smith
                              UKS Reference
                        1 Threads,    500 MiB Core
         ---------------------------------------------------------

  ==> Geometry <==

    Molecular point group: c2v
    Full point group: C_inf_v

    Geometry (in Angstrom), charge = 1, multiplicity = 2:

       Center              X                  Y                   Z               Mass       
    ------------   -----------------  -----------------  -----------------  -----------------
         MG           0.000000000000     0.000000000000     0.749910725614    23.985041697000
         AR           0.000000000000     0.000000000000    -0.450089274386    39.962383123700

  Running in c2v symmetry.

  Rotational constants: A = ************  B =      0.78103  C =      0.78103 [cm^-1]
  Rotational constants: A = ************  B =  23414.55511  C =  23414.55511 [MHz]
  Nuclear repulsion =   95.251897920600015

  Charge       = 1
  Multiplicity = 2
  Electrons    = 29
  Nalpha       = 15
  Nbeta        = 14

  ==> Algorithm <==

  SCF Algorithm Type is DF.
  DIIS enabled.
  MOM disabled.
  Fractional occupation disabled.
  Guess Type is SAP.
  Energy threshold   = 1.00e-08
  Density threshold  = 1.00e-08
  Integral threshold = 1.00e-12

  ==> Primary Basis <==

  Basis Set: CC-PVDZ
    Blend: CC-PVDZ
    Number of shells: 16
    Number of basis functions: 36
    Number of Cartesian functions: 38
    Spherical Harmonics?: true
    Max angular momentum: 2

  ==> DFT Potential <==

   => LibXC <=

    Version 6.2.2
    S. Lehtola, C. Steigemann, M. J.T. Oliveira, and M. A.L. Marques.,  SoftwareX 7, 1–5 (2018) (10.1016/j.softx.2017.11.002)

   => Composite Functional: B3LYP <= 

    B3LYP Hyb-GGA Exchange-Correlation Functional

    P. J. Stephens, F. J. Devlin, C. F. Chabalowski, and M. J. Frisch.,  J. Phys. Chem. 98, 11623 (1994) (10.1021/j100096a001)

    Deriv               =              1
    GGA                 =           TRUE
    Meta                =          FALSE

    Exchange Hybrid     =           TRUE
    MP2 Hybrid          =          FALSE

   => Exchange Functionals <=

    0.0800   Slater exchange
    0.7200         Becke 88

   => Exact (HF) Exchange <=

    0.2000               HF 

   => Correlation Functionals <=

    0.1900   Vosko, Wilk & Nusair (VWN5_RPA)
    0.8100   Lee, Yang & Parr

   => LibXC Density Thresholds  <==

    XC_HYB_GGA_XC_B3LYP:  1.00E-15 

   => Molecular Quadrature <=

    Radial Scheme          =       TREUTLER
    Pruning Scheme         =           NONE
    Nuclear Scheme         =       TREUTLER

    Blocking Scheme        =         OCTREE
    BS radius alpha        =              1
    Pruning alpha          =              1
    Radial Points          =             75
    Spherical Points       =            302
    Total Points           =          42910
    Total Blocks           =            415
    Max Points             =            255
    Max Functions          =             36
    Weights Tolerance      =       1.00E-15

   => Loading Basis Set <=

    Name: (CC-PVDZ AUX)
    Role: JKFIT
    Keyword: DF_BASIS_SCF
    atoms 1 entry MG         line   576 file /Users/joseantoniorodriguesromero/anaconda3/share/psi4/basis/def2-universal-jkfit.gbs 
    atoms 2 entry AR         line   741 file /Users/joseantoniorodriguesromero/anaconda3/share/psi4/basis/cc-pvdz-jkfit.gbs 

  ==> Integral Setup <==

  DFHelper Memory: AOs need 0.003 GiB; user supplied 0.324 GiB. 
  Using in-core AOs.

  ==> MemDFJK: Density-Fitted J/K Matrices <==

    J tasked:                   Yes
    K tasked:                   Yes
    wK tasked:                   No
    OpenMP threads:               1
    Memory [MiB]:               331
    Algorithm:                 Core
    Schwarz Cutoff:           1E-12
    Mask sparsity (%):       0.0000
    Fitting Condition:        1E-10

   => Auxiliary Basis Set <=

  Basis Set: (CC-PVDZ AUX)
    Blend: CC-PVDZ-JKFIT + DEF2-UNIVERSAL-JKFIT
    Number of shells: 70
    Number of basis functions: 224
    Number of Cartesian functions: 267
    Spherical Harmonics?: true
    Max angular momentum: 4

  Cached 100.0% of DFT collocation blocks in 0.042 [GiB].

  Minimum eigenvalue in the overlap matrix is 2.3717648760E-03.
  Reciprocal condition number of the overlap matrix is 7.9128504827E-04.
    Using symmetric orthogonalization.

  ==> Pre-Iterations <==

  SCF Guess: Superposition of Atomic Potentials (doi:10.1021/acs.jctc.8b01089).

  ==> SAP guess <==

   => Molecular Quadrature <=

    Radial Scheme          =       TREUTLER
    Pruning Scheme         =           NONE
    Nuclear Scheme         =       TREUTLER

    Blocking Scheme        =         OCTREE
    BS radius alpha        =              1
    Pruning alpha          =              1
    Radial Points          =             75
    Spherical Points       =            302
    Total Points           =          42910
    Total Blocks           =            415
    Max Points             =            255
    Max Functions          =             36
    Weights Tolerance      =       1.00E-15

   -------------------------------------------------------
    Irrep   Nso     Nmo     Nalpha   Nbeta   Ndocc  Nsocc
   -------------------------------------------------------
     A1        18      18       9       8       8       1
     A2         2       2       0       0       0       0
     B1         8       8       3       3       3       0
     B2         8       8       3       3       3       0
   -------------------------------------------------------
    Total      36      36      15      14      14       1
   -------------------------------------------------------

  ==> Iterations <==

                           Total Energy        Delta E     RMS |[F,P]|

   @DF-UKS iter   1:  -726.02050444876988   -7.26021e+02   1.50510e-02 ADIIS/DIIS
   @DF-UKS iter   2:  -726.05017533148009   -2.96709e-02   1.07313e-02 ADIIS/DIIS/DAMP=1%
   @DF-UKS iter   3:  -726.06019127063246   -1.00159e-02   7.24387e-04 ADIIS/DIIS/DAMP=1%
   @DF-UKS iter   4:  -726.07667274053540   -1.64815e-02   1.16779e-04 ADIIS/DIIS/DAMP=1%
   @DF-UKS iter   5:  -726.07541283647708    1.25990e-03   3.83603e-05 DIIS/DAMP=1%
   @DF-UKS iter   6:  -726.07561382143194   -2.00985e-04   6.16024e-06 DIIS/DAMP=1%
   @DF-UKS iter   7:  -726.07559492958342    1.88918e-05   5.05206e-07 DIIS/DAMP=1%
   @DF-UKS iter   8:  -726.07559323024930    1.69933e-06   7.82721e-08 DIIS/DAMP=1%
   @DF-UKS iter   9:  -726.07559271466471    5.15585e-07   5.06757e-09 DIIS/DAMP=1%
   @DF-UKS iter  10:  -726.07559277565326   -6.09886e-08   4.29348e-10 DIIS/DAMP=1%
   @DF-UKS iter  11:  -726.07559277469807    9.55197e-10   3.95227e-11 DIIS/DAMP=1%
  Energy and wave function converged.


  ==> Post-Iterations <==

   Electrons on quadrature grid:
      Nalpha   =   14.9999990066 ; deviation = -9.934e-07
      Nbeta    =   13.9999989717 ; deviation = -1.028e-06
      Ntotal   =   28.9999979783 ; deviation = -2.022e-06 

   @Spin Contamination Metric:   1.745213949E-04
   @S^2 Expected:                7.500000000E-01
   @S^2 Observed:                7.501745214E-01
   @S   Expected:                5.000000000E-01
   @S   Observed:                5.000000000E-01

    Orbital Energies [Eh]
    ---------------------

    Alpha Occupied:                                                       

       1A1  -115.445436     2A1   -47.200020     3A1   -11.545810  
       4A1    -9.102384     1B1    -9.080589     1B2    -9.080589  
       5A1    -3.626272     6A1    -2.426884     2B1    -2.305369  
       2B2    -2.305369     7A1    -1.330169     3B2    -0.861817  
       3B1    -0.861817     8A1    -0.720403     9A1    -0.398428  

    Alpha Virtual:                                                        

       4B2    -0.230034     4B1    -0.230034    10A1    -0.189499  
       5B2    -0.076035     5B1    -0.076035    11A1    -0.065059  
      12A1    -0.042462     1A2    -0.042461    13A1    -0.001218  
       6B1     0.088665     6B2     0.088665    14A1     0.288579  
       7B1     0.297482     7B2     0.297482    15A1     0.384554  
      16A1     0.514904     2A2     0.514908     8B2     0.706200  
       8B1     0.706200    17A1     0.785153    18A1     1.288272  

    Beta Occupied:                                                        

       1A1  -115.444136     2A1   -47.197033     3A1   -11.544327  
       4A1    -9.099860     1B1    -9.079673     1B2    -9.079673  
       5A1    -3.622666     6A1    -2.415923     2B1    -2.302636  
       2B2    -2.302636     7A1    -1.326179     3B2    -0.859628  
       3B1    -0.859628     8A1    -0.713118  

    Beta Virtual:                                                         

       9A1    -0.306415     4B2    -0.197203     4B1    -0.197203  
      10A1    -0.173133     5B2    -0.067366     5B1    -0.067366  
      11A1    -0.046801    12A1    -0.019247     1A2    -0.019246  
      13A1     0.018762     6B1     0.117278     6B2     0.117278  
       7B1     0.307201     7B2     0.307201    14A1     0.312202  
      15A1     0.387376    16A1     0.522541     2A2     0.522545  
       8B2     0.714450     8B1     0.714450    17A1     0.792482  
      18A1     1.293086  

    Final Occupation by Irrep:
             A1    A2    B1    B2 
    DOCC [     8,    0,    3,    3 ]
    SOCC [     1,    0,    0,    0 ]
    NA   [     9,    0,    3,    3 ]
    NB   [     8,    0,    3,    3 ]

  @DF-UKS Final Energy:  -726.07559277469807

   => Energetics <=

    Nuclear Repulsion Energy =             95.2518979206000154
    One-Electron Energy =               -1183.2158037287895240
    Two-Electron Energy =                 400.2870542682126143
    DFT Exchange-Correlation Energy =     -38.3987412347211432
    Empirical Dispersion Energy =           0.0000000000000000
    VV10 Nonlocal Energy =                  0.0000000000000000
    Total Energy =                       -726.0755927746980660

  UHF NO Occupations:
  HONO-2 :    3 B1 1.9999903
  HONO-1 :    8 A1 1.9999352
  HONO-0 :    9 A1 1.0000000
  LUNO+0 :   10 A1 0.0000648
  LUNO+1 :    4 B1 0.0000097
  LUNO+2 :    4 B2 0.0000097
  LUNO+3 :   11 A1 0.0000021


Computation Completed


Properties will be evaluated at   0.000000,   0.000000,   0.000000 [a0]

Properties computed using the SCF density matrix


 Multipole Moments:

 ------------------------------------------------------------------------------------
     Multipole            Electronic (a.u.)      Nuclear  (a.u.)        Total (a.u.)
 ------------------------------------------------------------------------------------

 L = 1.  Multiply by 2.5417464519 to convert [e a0] to [Debye]
 Dipole X            :          0.0000000            0.0000000            0.0000000
 Dipole Y            :          0.0000000            0.0000000            0.0000000
 Dipole Z            :         -1.5165225            1.6956924            0.1791699
 Magnitude           :                                                    0.1791699

 ------------------------------------------------------------------------------------

*** tstop() called on Joses-MacBook-Pro-2.local at Thu Jul 17 15:12:33 2025
Module time:
	user time   =      19.07 seconds =       0.32 minutes
	system time =       1.24 seconds =       0.02 minutes
	total time  =          2 seconds =       0.03 minutes
Total time:
	user time   =      19.07 seconds =       0.32 minutes
	system time =       1.24 seconds =       0.02 minutes
	total time  =          2 seconds =       0.03 minutes

*** tstart() called on Joses-MacBook-Pro-2.local
*** at Thu Jul 17 15:12:33 2025


         ------------------------------------------------------------
                                   SCF GRAD                          
                          Rob Parrish, Justin Turney,                
                       Andy Simmonett, and Alex Sokolov              
         ------------------------------------------------------------

  ==> Geometry <==

    Molecular point group: c2v
    Full point group: C_inf_v

    Geometry (in Angstrom), charge = 1, multiplicity = 2:

       Center              X                  Y                   Z               Mass       
    ------------   -----------------  -----------------  -----------------  -----------------
         MG           0.000000000000     0.000000000000     0.749910725614    23.985041697000
         AR           0.000000000000     0.000000000000    -0.450089274386    39.962383123700

  Nuclear repulsion =   95.251897920600015

  ==> Basis Set <==

  Basis Set: CC-PVDZ
    Blend: CC-PVDZ
    Number of shells: 16
    Number of basis functions: 36
    Number of Cartesian functions: 38
    Spherical Harmonics?: true
    Max angular momentum: 2

  ==> DFJKGrad: Density-Fitted SCF Gradients <==

    Gradient:                    1
    J tasked:                  Yes
    K tasked:                  Yes
    wK tasked:                  No
    OpenMP threads:              1
    Integrals threads:           1
    Memory [MiB]:              375
    Schwarz Cutoff:          1E-12
    Fitting Condition:       1E-10

   => Auxiliary Basis Set <=

  Basis Set: (CC-PVDZ AUX)
    Blend: CC-PVDZ-JKFIT + DEF2-UNIVERSAL-JKFIT
    Number of shells: 70
    Number of basis functions: 224
    Number of Cartesian functions: 267
    Spherical Harmonics?: true
    Max angular momentum: 4

  ==> DFT Potential <==

   => LibXC <=

    Version 6.2.2
    S. Lehtola, C. Steigemann, M. J.T. Oliveira, and M. A.L. Marques.,  SoftwareX 7, 1–5 (2018) (10.1016/j.softx.2017.11.002)

   => Composite Functional: B3LYP <= 

    B3LYP Hyb-GGA Exchange-Correlation Functional

    P. J. Stephens, F. J. Devlin, C. F. Chabalowski, and M. J. Frisch.,  J. Phys. Chem. 98, 11623 (1994) (10.1021/j100096a001)

    Deriv               =              1
    GGA                 =           TRUE
    Meta                =          FALSE

    Exchange Hybrid     =           TRUE
    MP2 Hybrid          =          FALSE

   => Exchange Functionals <=

    0.0800   Slater exchange
    0.7200         Becke 88

   => Exact (HF) Exchange <=

    0.2000               HF 

   => Correlation Functionals <=

    0.1900   Vosko, Wilk & Nusair (VWN5_RPA)
    0.8100   Lee, Yang & Parr

   => LibXC Density Thresholds  <==

    XC_HYB_GGA_XC_B3LYP:  1.00E-15 

   => Molecular Quadrature <=

    Radial Scheme          =       TREUTLER
    Pruning Scheme         =           NONE
    Nuclear Scheme         =       TREUTLER

    Blocking Scheme        =         OCTREE
    BS radius alpha        =              1
    Pruning alpha          =              1
    Radial Points          =             75
    Spherical Points       =            302
    Total Points           =          42910
    Total Blocks           =            415
    Max Points             =            255
    Max Functions          =             36
    Weights Tolerance      =       1.00E-15


  -Total Gradient:
     Atom            X                  Y                   Z
    ------   -----------------  -----------------  -----------------
       1       -0.000000000000     0.000000000000    -2.604605617684
       2       -0.000000000000    -0.000000000000     2.604533809355


*** tstop() called on Joses-MacBook-Pro-2.local at Thu Jul 17 15:12:33 2025
Module time:
	user time   =       2.66 seconds =       0.04 minutes
	system time =       1.18 seconds =       0.02 minutes
	total time  =          0 seconds =       0.00 minutes
Total time:
	user time   =      21.73 seconds =       0.36 minutes
	system time =       2.42 seconds =       0.04 minutes
	total time  =          2 seconds =       0.03 minutes

    			-----------------------------------------

    			 OPTKING 3.0: for geometry optimizations 

    			     By R.A. King, Bethel University     

    			        with contributions from          

    			    A.V. Copan, J. Cayton, A. Heide      

    			-----------------------------------------

    
	                            ===> Fragment 1 <== 

	 Z (Atomic Numbers)          Masses                          Geom                  
	      12.000000            23.985042          0.00000000  0.00000000  1.41712589   
	      18.000000            39.962383          0.00000000  0.00000000 -0.85054546   

	 - Coordinate -           - BOHR/RAD -       - ANG/DEG -
	 R(1,2)           =         2.267671           1.200000


	        --- Internal Coordinate Step in ANG or DEG, aJ/ANG or AJ/DEG ---
	-------------------------------------------------------------------------------
	           Coordinate      Previous         Force          Change          New 
	           ----------      --------        ------          ------        ------
	               R(1,2)       1.20000       21.45833        0.00633       1.20633
	-------------------------------------------------------------------------------

	                                 ==> Convergence Check <==                                  
    
	Measures of convergence in internal coordinates in au.
    
	Criteria marked as inactive (o), active & met (*), and active & unmet ( ).

	----------------------------------------------------------------------------------------------
	   Step    Total Energy     Delta E     Max Force     RMS Force      Max Disp      RMS Disp   
	----------------------------------------------------------------------------------------------
	  Convergence Criteria     1.00e-06 *    3.00e-04 *             o    1.20e-03 *             o
	----------------------------------------------------------------------------------------------
	     1    -726.07559277   -7.26e+02      2.60e+00      2.60e+00 o    1.20e-02      1.20e-02 o  ~
	----------------------------------------------------------------------------------------------

Next Geometry in Ang 
	Fragment 1 (Ang)

	   Mg   0.0000000000   0.0000000000   0.7530740463
	   Ar   0.0000000000   0.0000000000  -0.4532525950


    Structure for next step:
    Molecular point group: c2v
    Full point group: C_inf_v

    Geometry (in Angstrom), charge = 1, multiplicity = 2:

    MG           0.000000000000     0.000000000000     0.753864405745
    AR           0.000000000000     0.000000000000    -0.452462235540


Scratch directory: /tmp/
gradient() will perform analytic gradient computation.
   => Libint2 <=

    Primary   basis highest AM E, G, H:  6, 6, 3
    Auxiliary basis highest AM E, G, H:  7, 7, 4
    Onebody   basis highest AM E, G, H:  -, -, -
    Solid Harmonics ordering:            Gaussian

*** tstart() called on Joses-MacBook-Pro-2.local
*** at Thu Jul 17 15:12:33 2025

   => Loading Basis Set <=

    Name: CC-PVDZ
    Role: ORBITAL
    Keyword: BASIS
    atoms 1 entry MG         line   353 file /Users/joseantoniorodriguesromero/anaconda3/share/psi4/basis/cc-pvdz.gbs 
    atoms 2 entry AR         line   718 file /Users/joseantoniorodriguesromero/anaconda3/share/psi4/basis/cc-pvdz.gbs 


         ---------------------------------------------------------
                                   SCF
               by Justin Turney, Rob Parrish, Andy Simmonett
                          and Daniel G. A. Smith
                              UKS Reference
                        1 Threads,    500 MiB Core
         ---------------------------------------------------------

  ==> Geometry <==

    Molecular point group: c2v
    Full point group: C_inf_v

    Geometry (in Angstrom), charge = 1, multiplicity = 2:

       Center              X                  Y                   Z               Mass       
    ------------   -----------------  -----------------  -----------------  -----------------
         MG           0.000000000000     0.000000000000     0.753864405745    23.985041697000
         AR           0.000000000000     0.000000000000    -0.452462235540    39.962383123700

  Running in c2v symmetry.

  Rotational constants: A = ************  B =      0.77285  C =      0.77285 [cm^-1]
  Rotational constants: A = ************  B =  23169.60149  C =  23169.60149 [MHz]
  Nuclear repulsion =   94.752344508403624

  Charge       = 1
  Multiplicity = 2
  Electrons    = 29
  Nalpha       = 15
  Nbeta        = 14

  ==> Algorithm <==

  SCF Algorithm Type is DF.
  DIIS enabled.
  MOM disabled.
  Fractional occupation disabled.
  Guess Type is READ.
  Energy threshold   = 1.00e-08
  Density threshold  = 1.00e-08
  Integral threshold = 1.00e-12

  ==> Primary Basis <==

  Basis Set: CC-PVDZ
    Blend: CC-PVDZ
    Number of shells: 16
    Number of basis functions: 36
    Number of Cartesian functions: 38
    Spherical Harmonics?: true
    Max angular momentum: 2

  ==> DFT Potential <==

   => LibXC <=

    Version 6.2.2
    S. Lehtola, C. Steigemann, M. J.T. Oliveira, and M. A.L. Marques.,  SoftwareX 7, 1–5 (2018) (10.1016/j.softx.2017.11.002)

   => Composite Functional: B3LYP <= 

    B3LYP Hyb-GGA Exchange-Correlation Functional

    P. J. Stephens, F. J. Devlin, C. F. Chabalowski, and M. J. Frisch.,  J. Phys. Chem. 98, 11623 (1994) (10.1021/j100096a001)

    Deriv               =              1
    GGA                 =           TRUE
    Meta                =          FALSE

    Exchange Hybrid     =           TRUE
    MP2 Hybrid          =          FALSE

   => Exchange Functionals <=

    0.0800   Slater exchange
    0.7200         Becke 88

   => Exact (HF) Exchange <=

    0.2000               HF 

   => Correlation Functionals <=

    0.1900   Vosko, Wilk & Nusair (VWN5_RPA)
    0.8100   Lee, Yang & Parr

   => LibXC Density Thresholds  <==

    XC_HYB_GGA_XC_B3LYP:  1.00E-15 

   => Molecular Quadrature <=

    Radial Scheme          =       TREUTLER
    Pruning Scheme         =           NONE
    Nuclear Scheme         =       TREUTLER

    Blocking Scheme        =         OCTREE
    BS radius alpha        =              1
    Pruning alpha          =              1
    Radial Points          =             75
    Spherical Points       =            302
    Total Points           =          42910
    Total Blocks           =            416
    Max Points             =            255
    Max Functions          =             36
    Weights Tolerance      =       1.00E-15

   => Loading Basis Set <=

    Name: (CC-PVDZ AUX)
    Role: JKFIT
    Keyword: DF_BASIS_SCF
    atoms 1 entry MG         line   576 file /Users/joseantoniorodriguesromero/anaconda3/share/psi4/basis/def2-universal-jkfit.gbs 
    atoms 2 entry AR         line   741 file /Users/joseantoniorodriguesromero/anaconda3/share/psi4/basis/cc-pvdz-jkfit.gbs 

   => Loading Basis Set <=

    Name: CC-PVDZ
    Role: ORBITAL
    Keyword: BASIS
    atoms 1 entry MG         line   353 file /Users/joseantoniorodriguesromero/anaconda3/share/psi4/basis/cc-pvdz.gbs 
    atoms 2 entry AR         line   718 file /Users/joseantoniorodriguesromero/anaconda3/share/psi4/basis/cc-pvdz.gbs 

  Reading orbitals from file /tmp/doublet_MgAr.default.75156.180.npy, no projection.

  ==> Integral Setup <==

  DFHelper Memory: AOs need 0.003 GiB; user supplied 0.324 GiB. 
  Using in-core AOs.

  ==> MemDFJK: Density-Fitted J/K Matrices <==

    J tasked:                   Yes
    K tasked:                   Yes
    wK tasked:                   No
    OpenMP threads:               1
    Memory [MiB]:               331
    Algorithm:                 Core
    Schwarz Cutoff:           1E-12
    Mask sparsity (%):       0.0000
    Fitting Condition:        1E-10

   => Auxiliary Basis Set <=

  Basis Set: (CC-PVDZ AUX)
    Blend: CC-PVDZ-JKFIT + DEF2-UNIVERSAL-JKFIT
    Number of shells: 70
    Number of basis functions: 224
    Number of Cartesian functions: 267
    Spherical Harmonics?: true
    Max angular momentum: 4

  Cached 100.0% of DFT collocation blocks in 0.042 [GiB].

  Minimum eigenvalue in the overlap matrix is 2.3586638100E-03.
  Reciprocal condition number of the overlap matrix is 7.8692728946E-04.
    Using symmetric orthogonalization.

  ==> Pre-Iterations <==

  SCF Guess: Orbitals guess was supplied from a previous computation.

   -------------------------------------------------------
    Irrep   Nso     Nmo     Nalpha   Nbeta   Ndocc  Nsocc
   -------------------------------------------------------
     A1        18      18       9       8       8       1
     A2         2       2       0       0       0       0
     B1         8       8       3       3       3       0
     B2         8       8       3       3       3       0
   -------------------------------------------------------
    Total      36      36      15      14      14       1
   -------------------------------------------------------

  ==> Iterations <==

                           Total Energy        Delta E     RMS |[F,P]|

   @DF-UKS iter   0:  -726.10729018240909   -7.26107e+02   2.53322e-03 
   @DF-UKS iter   1:  -726.10636072336547    9.29459e-04   3.34442e-04 ADIIS/DIIS
   @DF-UKS iter   2:  -726.10637573538429   -1.50120e-05   2.56958e-04 ADIIS/DIIS/DAMP=1%
   @DF-UKS iter   3:  -726.10675173828918   -3.76003e-04   9.27639e-06 DIIS/DAMP=1%
   @DF-UKS iter   4:  -726.10639903234801    3.52706e-04   3.03676e-06 DIIS/DAMP=1%
   @DF-UKS iter   5:  -726.10639264645863    6.38589e-06   7.09148e-07 DIIS/DAMP=1%
   @DF-UKS iter   6:  -726.10639061118195    2.03528e-06   7.22125e-08 DIIS/DAMP=1%
   @DF-UKS iter   7:  -726.10639016044695    4.50735e-07   8.71920e-09 DIIS/DAMP=1%
   @DF-UKS iter   8:  -726.10639019900668   -3.85597e-08   9.65717e-10 DIIS/DAMP=1%
   @DF-UKS iter   9:  -726.10639021246016   -1.34535e-08   9.44146e-11 DIIS/DAMP=1%
   @DF-UKS iter  10:  -726.10639021084432    1.61583e-09   8.71639e-12 DIIS/DAMP=1%
  Energy and wave function converged.


  ==> Post-Iterations <==

   Electrons on quadrature grid:
      Nalpha   =   14.9999994791 ; deviation = -5.209e-07
      Nbeta    =   13.9999994403 ; deviation = -5.597e-07
      Ntotal   =   28.9999989194 ; deviation = -1.081e-06 

   @Spin Contamination Metric:   1.704031808E-04
   @S^2 Expected:                7.500000000E-01
   @S^2 Observed:                7.501704032E-01
   @S   Expected:                5.000000000E-01
   @S   Observed:                5.000000000E-01

    Orbital Energies [Eh]
    ---------------------

    Alpha Occupied:                                                       

       1A1  -115.442599     2A1   -47.194482     3A1   -11.542460  
       4A1    -9.098711     1B1    -9.077593     1B2    -9.077593  
       5A1    -3.618338     6A1    -2.419284     2B1    -2.299521  
       2B2    -2.299521     7A1    -1.330570     3B1    -0.859999  
       3B2    -0.859999     8A1    -0.723018     9A1    -0.398461  

    Alpha Virtual:                                                        

       4B1    -0.229858     4B2    -0.229858    10A1    -0.189399  
       5B2    -0.075811     5B1    -0.075811    11A1    -0.064930  
      12A1    -0.040914     1A2    -0.040913    13A1    -0.001324  
       6B1     0.088567     6B2     0.088567    14A1     0.287761  
       7B2     0.298366     7B1     0.298366    15A1     0.383837  
      16A1     0.515258     2A2     0.515261     8B1     0.707544  
       8B2     0.707544    17A1     0.781428    18A1     1.291804  

    Beta Occupied:                                                        

       1A1  -115.441322     2A1   -47.191514     3A1   -11.541004  
       4A1    -9.096230     1B1    -9.076693     1B2    -9.076693  
       5A1    -3.614728     6A1    -2.408465     2B1    -2.296785  
       2B2    -2.296785     7A1    -1.326631     3B1    -0.857853  
       3B2    -0.857853     8A1    -0.715900  

    Beta Virtual:                                                         

       9A1    -0.306401     4B1    -0.196930     4B2    -0.196930  
      10A1    -0.173016     5B2    -0.067119     5B1    -0.067119  
      11A1    -0.046590    12A1    -0.017452     1A2    -0.017451  
      13A1     0.018639     6B1     0.117379     6B2     0.117379  
       7B2     0.307911     7B1     0.307911    14A1     0.311387  
      15A1     0.386562    16A1     0.522825     2A2     0.522829  
       8B1     0.715815     8B2     0.715815    17A1     0.788809  
      18A1     1.296554  

    Final Occupation by Irrep:
             A1    A2    B1    B2 
    DOCC [     8,    0,    3,    3 ]
    SOCC [     1,    0,    0,    0 ]
    NA   [     9,    0,    3,    3 ]
    NB   [     8,    0,    3,    3 ]

  @DF-UKS Final Energy:  -726.10639021084432

   => Energetics <=

    Nuclear Repulsion Energy =             94.7523445084036240
    One-Electron Energy =               -1182.3785537966400625
    Two-Electron Energy =                 399.9149605100213307
    DFT Exchange-Correlation Energy =     -38.3951414326292451
    Empirical Dispersion Energy =           0.0000000000000000
    VV10 Nonlocal Energy =                  0.0000000000000000
    Total Energy =                       -726.1063902108443244

  UHF NO Occupations:
  HONO-2 :    3 B2 1.9999900
  HONO-1 :    8 A1 1.9999377
  HONO-0 :    9 A1 1.0000000
  LUNO+0 :   10 A1 0.0000623
  LUNO+1 :    4 B1 0.0000100
  LUNO+2 :    4 B2 0.0000100
  LUNO+3 :   11 A1 0.0000020


Computation Completed


Properties will be evaluated at   0.000000,   0.000000,   0.000000 [a0]

Properties computed using the SCF density matrix


 Multipole Moments:

 ------------------------------------------------------------------------------------
     Multipole            Electronic (a.u.)      Nuclear  (a.u.)        Total (a.u.)
 ------------------------------------------------------------------------------------

 L = 1.  Multiply by 2.5417464519 to convert [e a0] to [Debye]
 Dipole X            :          0.0000000            0.0000000            0.0000000
 Dipole Y            :          0.0000000            0.0000000            0.0000000
 Dipole Z            :         -1.5240387            1.7046324            0.1805937
 Magnitude           :                                                    0.1805937

 ------------------------------------------------------------------------------------

*** tstop() called on Joses-MacBook-Pro-2.local at Thu Jul 17 15:12:34 2025
Module time:
	user time   =       8.73 seconds =       0.15 minutes
	system time =       2.12 seconds =       0.04 minutes
	total time  =          1 seconds =       0.02 minutes
Total time:
	user time   =      30.69 seconds =       0.51 minutes
	system time =       4.59 seconds =       0.08 minutes
	total time  =          3 seconds =       0.05 minutes

*** tstart() called on Joses-MacBook-Pro-2.local
*** at Thu Jul 17 15:12:34 2025


         ------------------------------------------------------------
                                   SCF GRAD                          
                          Rob Parrish, Justin Turney,                
                       Andy Simmonett, and Alex Sokolov              
         ------------------------------------------------------------

  ==> Geometry <==

    Molecular point group: c2v
    Full point group: C_inf_v

    Geometry (in Angstrom), charge = 1, multiplicity = 2:

       Center              X                  Y                   Z               Mass       
    ------------   -----------------  -----------------  -----------------  -----------------
         MG           0.000000000000     0.000000000000     0.753864405745    23.985041697000
         AR           0.000000000000     0.000000000000    -0.452462235540    39.962383123700

  Nuclear repulsion =   94.752344508403624

  ==> Basis Set <==

  Basis Set: CC-PVDZ
    Blend: CC-PVDZ
    Number of shells: 16
    Number of basis functions: 36
    Number of Cartesian functions: 38
    Spherical Harmonics?: true
    Max angular momentum: 2

  ==> DFJKGrad: Density-Fitted SCF Gradients <==

    Gradient:                    1
    J tasked:                  Yes
    K tasked:                  Yes
    wK tasked:                  No
    OpenMP threads:              1
    Integrals threads:           1
    Memory [MiB]:              375
    Schwarz Cutoff:          1E-12
    Fitting Condition:       1E-10

   => Auxiliary Basis Set <=

  Basis Set: (CC-PVDZ AUX)
    Blend: CC-PVDZ-JKFIT + DEF2-UNIVERSAL-JKFIT
    Number of shells: 70
    Number of basis functions: 224
    Number of Cartesian functions: 267
    Spherical Harmonics?: true
    Max angular momentum: 4

  ==> DFT Potential <==

   => LibXC <=

    Version 6.2.2
    S. Lehtola, C. Steigemann, M. J.T. Oliveira, and M. A.L. Marques.,  SoftwareX 7, 1–5 (2018) (10.1016/j.softx.2017.11.002)

   => Composite Functional: B3LYP <= 

    B3LYP Hyb-GGA Exchange-Correlation Functional

    P. J. Stephens, F. J. Devlin, C. F. Chabalowski, and M. J. Frisch.,  J. Phys. Chem. 98, 11623 (1994) (10.1021/j100096a001)

    Deriv               =              1
    GGA                 =           TRUE
    Meta                =          FALSE

    Exchange Hybrid     =           TRUE
    MP2 Hybrid          =          FALSE

   => Exchange Functionals <=

    0.0800   Slater exchange
    0.7200         Becke 88

   => Exact (HF) Exchange <=

    0.2000               HF 

   => Correlation Functionals <=

    0.1900   Vosko, Wilk & Nusair (VWN5_RPA)
    0.8100   Lee, Yang & Parr

   => LibXC Density Thresholds  <==

    XC_HYB_GGA_XC_B3LYP:  1.00E-15 

   => Molecular Quadrature <=

    Radial Scheme          =       TREUTLER
    Pruning Scheme         =           NONE
    Nuclear Scheme         =       TREUTLER

    Blocking Scheme        =         OCTREE
    BS radius alpha        =              1
    Pruning alpha          =              1
    Radial Points          =             75
    Spherical Points       =            302
    Total Points           =          42910
    Total Blocks           =            416
    Max Points             =            255
    Max Functions          =             36
    Weights Tolerance      =       1.00E-15


  -Total Gradient:
     Atom            X                  Y                   Z
    ------   -----------------  -----------------  -----------------
       1        0.000000000000     0.000000000000    -2.547326349242
       2        0.000000000000     0.000000000000     2.547235227527


*** tstop() called on Joses-MacBook-Pro-2.local at Thu Jul 17 15:12:34 2025
Module time:
	user time   =       2.59 seconds =       0.04 minutes
	system time =       1.49 seconds =       0.02 minutes
	total time  =          0 seconds =       0.00 minutes
Total time:
	user time   =      33.28 seconds =       0.55 minutes
	system time =       6.08 seconds =       0.10 minutes
	total time  =          3 seconds =       0.05 minutes

    			-----------------------------------------

    			 OPTKING 3.0: for geometry optimizations 

    			     By R.A. King, Bethel University     

    			        with contributions from          

    			    A.V. Copan, J. Cayton, A. Heide      

    			-----------------------------------------

    
	                            ===> Fragment 1 <== 

	 Z (Atomic Numbers)          Masses                          Geom                  
	      12.000000            23.985042          0.00000000  0.00000000  1.42459726   
	      18.000000            39.962383          0.00000000  0.00000000 -0.85502971   

	 - Coordinate -           - BOHR/RAD -       - ANG/DEG -
	 R(1,2)           =         2.279627           1.206327


	        --- Internal Coordinate Step in ANG or DEG, aJ/ANG or AJ/DEG ---
	-------------------------------------------------------------------------------
	           Coordinate      Previous         Force          Change          New 
	           ----------      --------        ------          ------        ------
	               R(1,2)       1.20633       20.98634        0.01237       1.21870
	-------------------------------------------------------------------------------

	                                 ==> Convergence Check <==                                  
    
	Measures of convergence in internal coordinates in au.
    
	Criteria marked as inactive (o), active & met (*), and active & unmet ( ).

	----------------------------------------------------------------------------------------------
	   Step    Total Energy     Delta E     Max Force     RMS Force      Max Disp      RMS Disp   
	----------------------------------------------------------------------------------------------
	  Convergence Criteria     1.00e-06 *    3.00e-04 *             o    1.20e-03 *             o
	----------------------------------------------------------------------------------------------
	     2    -726.10639021   -3.08e-02      2.55e+00      2.55e+00 o    2.34e-02      2.34e-02 o  ~
	----------------------------------------------------------------------------------------------

Next Geometry in Ang 
	Fragment 1 (Ang)

	   Mg   0.0000000000   0.0000000000   0.7600493921
	   Ar   0.0000000000   0.0000000000  -0.4586472219


    Structure for next step:
    Molecular point group: c2v
    Full point group: C_inf_v

    Geometry (in Angstrom), charge = 1, multiplicity = 2:

    MG           0.000000000000     0.000000000000     0.761594718483
    AR           0.000000000000     0.000000000000    -0.457101895612


Scratch directory: /tmp/
gradient() will perform analytic gradient computation.
   => Libint2 <=

    Primary   basis highest AM E, G, H:  6, 6, 3
    Auxiliary basis highest AM E, G, H:  7, 7, 4
    Onebody   basis highest AM E, G, H:  -, -, -
    Solid Harmonics ordering:            Gaussian

*** tstart() called on Joses-MacBook-Pro-2.local
*** at Thu Jul 17 15:12:34 2025

   => Loading Basis Set <=

    Name: CC-PVDZ
    Role: ORBITAL
    Keyword: BASIS
    atoms 1 entry MG         line   353 file /Users/joseantoniorodriguesromero/anaconda3/share/psi4/basis/cc-pvdz.gbs 
    atoms 2 entry AR         line   718 file /Users/joseantoniorodriguesromero/anaconda3/share/psi4/basis/cc-pvdz.gbs 


         ---------------------------------------------------------
                                   SCF
               by Justin Turney, Rob Parrish, Andy Simmonett
                          and Daniel G. A. Smith
                              UKS Reference
                        1 Threads,    500 MiB Core
         ---------------------------------------------------------

  ==> Geometry <==

    Molecular point group: c2v
    Full point group: C_inf_v

    Geometry (in Angstrom), charge = 1, multiplicity = 2:

       Center              X                  Y                   Z               Mass       
    ------------   -----------------  -----------------  -----------------  -----------------
         MG           0.000000000000     0.000000000000     0.761594718483    23.985041697000
         AR           0.000000000000     0.000000000000    -0.457101895612    39.962383123700

  Running in c2v symmetry.

  Rotational constants: A = ************  B =      0.75725  C =      0.75725 [cm^-1]
  Rotational constants: A = ************  B =  22701.63796  C =  22701.63796 [MHz]
  Nuclear repulsion =   93.790592492573211

  Charge       = 1
  Multiplicity = 2
  Electrons    = 29
  Nalpha       = 15
  Nbeta        = 14

  ==> Algorithm <==

  SCF Algorithm Type is DF.
  DIIS enabled.
  MOM disabled.
  Fractional occupation disabled.
  Guess Type is READ.
  Energy threshold   = 1.00e-08
  Density threshold  = 1.00e-08
  Integral threshold = 1.00e-12

  ==> Primary Basis <==

  Basis Set: CC-PVDZ
    Blend: CC-PVDZ
    Number of shells: 16
    Number of basis functions: 36
    Number of Cartesian functions: 38
    Spherical Harmonics?: true
    Max angular momentum: 2

  ==> DFT Potential <==

   => LibXC <=

    Version 6.2.2
    S. Lehtola, C. Steigemann, M. J.T. Oliveira, and M. A.L. Marques.,  SoftwareX 7, 1–5 (2018) (10.1016/j.softx.2017.11.002)

   => Composite Functional: B3LYP <= 

    B3LYP Hyb-GGA Exchange-Correlation Functional

    P. J. Stephens, F. J. Devlin, C. F. Chabalowski, and M. J. Frisch.,  J. Phys. Chem. 98, 11623 (1994) (10.1021/j100096a001)

    Deriv               =              1
    GGA                 =           TRUE
    Meta                =          FALSE

    Exchange Hybrid     =           TRUE
    MP2 Hybrid          =          FALSE

   => Exchange Functionals <=

    0.0800   Slater exchange
    0.7200         Becke 88

   => Exact (HF) Exchange <=

    0.2000               HF 

   => Correlation Functionals <=

    0.1900   Vosko, Wilk & Nusair (VWN5_RPA)
    0.8100   Lee, Yang & Parr

   => LibXC Density Thresholds  <==

    XC_HYB_GGA_XC_B3LYP:  1.00E-15 

   => Molecular Quadrature <=

    Radial Scheme          =       TREUTLER
    Pruning Scheme         =           NONE
    Nuclear Scheme         =       TREUTLER

    Blocking Scheme        =         OCTREE
    BS radius alpha        =              1
    Pruning alpha          =              1
    Radial Points          =             75
    Spherical Points       =            302
    Total Points           =          42914
    Total Blocks           =            417
    Max Points             =            255
    Max Functions          =             36
    Weights Tolerance      =       1.00E-15

   => Loading Basis Set <=

    Name: (CC-PVDZ AUX)
    Role: JKFIT
    Keyword: DF_BASIS_SCF
    atoms 1 entry MG         line   576 file /Users/joseantoniorodriguesromero/anaconda3/share/psi4/basis/def2-universal-jkfit.gbs 
    atoms 2 entry AR         line   741 file /Users/joseantoniorodriguesromero/anaconda3/share/psi4/basis/cc-pvdz-jkfit.gbs 

   => Loading Basis Set <=

    Name: CC-PVDZ
    Role: ORBITAL
    Keyword: BASIS
    atoms 1 entry MG         line   353 file /Users/joseantoniorodriguesromero/anaconda3/share/psi4/basis/cc-pvdz.gbs 
    atoms 2 entry AR         line   718 file /Users/joseantoniorodriguesromero/anaconda3/share/psi4/basis/cc-pvdz.gbs 

  Reading orbitals from file /tmp/doublet_MgAr.default.75156.180.npy, no projection.

  ==> Integral Setup <==

  DFHelper Memory: AOs need 0.003 GiB; user supplied 0.324 GiB. 
  Using in-core AOs.

  ==> MemDFJK: Density-Fitted J/K Matrices <==

    J tasked:                   Yes
    K tasked:                   Yes
    wK tasked:                   No
    OpenMP threads:               1
    Memory [MiB]:               331
    Algorithm:                 Core
    Schwarz Cutoff:           1E-12
    Mask sparsity (%):       0.0000
    Fitting Condition:        1E-10

   => Auxiliary Basis Set <=

  Basis Set: (CC-PVDZ AUX)
    Blend: CC-PVDZ-JKFIT + DEF2-UNIVERSAL-JKFIT
    Number of shells: 70
    Number of basis functions: 224
    Number of Cartesian functions: 267
    Spherical Harmonics?: true
    Max angular momentum: 4

  Cached 100.0% of DFT collocation blocks in 0.042 [GiB].

  Minimum eigenvalue in the overlap matrix is 2.3334336615E-03.
  Reciprocal condition number of the overlap matrix is 7.7854142676E-04.
    Using symmetric orthogonalization.

  ==> Pre-Iterations <==

  SCF Guess: Orbitals guess was supplied from a previous computation.

   -------------------------------------------------------
    Irrep   Nso     Nmo     Nalpha   Nbeta   Ndocc  Nsocc
   -------------------------------------------------------
     A1        18      18       9       8       8       1
     A2         2       2       0       0       0       0
     B1         8       8       3       3       3       0
     B2         8       8       3       3       3       0
   -------------------------------------------------------
    Total      36      36      15      14      14       1
   -------------------------------------------------------

  ==> Iterations <==

                           Total Energy        Delta E     RMS |[F,P]|

   @DF-UKS iter   0:  -726.16656331518550   -7.26167e+02   4.85357e-03 
   @DF-UKS iter   1:  -726.16454580027255    2.01751e-03   6.47912e-04 ADIIS/DIIS
   @DF-UKS iter   2:  -726.16460206579620   -5.62655e-05   4.94567e-04 ADIIS/DIIS/DAMP=1%
   @DF-UKS iter   3:  -726.16534792701907   -7.45861e-04   1.75569e-05 DIIS/DAMP=1%
   @DF-UKS iter   4:  -726.16467248521622    6.75442e-04   5.79565e-06 DIIS/DAMP=1%
   @DF-UKS iter   5:  -726.16466016589482    1.23193e-05   1.36144e-06 DIIS/DAMP=1%
   @DF-UKS iter   6:  -726.16465648242058    3.68347e-06   1.40320e-07 DIIS/DAMP=1%
   @DF-UKS iter   7:  -726.16465556422952    9.18191e-07   1.62560e-08 DIIS/DAMP=1%
   @DF-UKS iter   8:  -726.16465564478062   -8.05511e-08   1.83195e-09 DIIS/DAMP=1%
   @DF-UKS iter   9:  -726.16465566960130   -2.48207e-08   1.82766e-10 DIIS/DAMP=1%
   @DF-UKS iter  10:  -726.16465566656200    3.03930e-09   1.78655e-11 DIIS/DAMP=1%
  Energy and wave function converged.


  ==> Post-Iterations <==

   Electrons on quadrature grid:
      Nalpha   =   15.0000004352 ; deviation = 4.352e-07
      Nbeta    =   14.0000003890 ; deviation = 3.890e-07
      Ntotal   =   29.0000008242 ; deviation = 8.242e-07 

   @Spin Contamination Metric:   1.630543859E-04
   @S^2 Expected:                7.500000000E-01
   @S^2 Observed:                7.501630544E-01
   @S   Expected:                5.000000000E-01
   @S   Observed:                5.000000000E-01

    Orbital Energies [Eh]
    ---------------------

    Alpha Occupied:                                                       

       1A1  -115.437517     2A1   -47.184348     3A1   -11.536332  
       4A1    -9.091973     1B2    -9.072126     1B1    -9.072126  
       5A1    -3.603572     6A1    -2.404885     2B2    -2.288638  
       2B1    -2.288638     7A1    -1.331421     3B1    -0.856558  
       3B2    -0.856558     8A1    -0.728075     9A1    -0.398498  

    Alpha Virtual:                                                        

       4B2    -0.229545     4B1    -0.229545    10A1    -0.189200  
       5B2    -0.075377     5B1    -0.075377    11A1    -0.064684  
      12A1    -0.037948     1A2    -0.037947    13A1    -0.001425  
       6B2     0.088357     6B1     0.088357    14A1     0.286290  
       7B1     0.300025     7B2     0.300025    15A1     0.382383  
      16A1     0.515864     2A2     0.515867     8B2     0.710086  
       8B1     0.710086    17A1     0.774271    18A1     1.298458  

    Beta Occupied:                                                        

       1A1  -115.436282     2A1   -47.181415     3A1   -11.534927  
       4A1    -9.089574     1B2    -9.071260     1B1    -9.071260  
       5A1    -3.599953     6A1    -2.394343     2B2    -2.285896  
       2B1    -2.285896     7A1    -1.327575     3B1    -0.854492  
       3B2    -0.854492     8A1    -0.721265  

    Beta Virtual:                                                         

       9A1    -0.306353     4B2    -0.196444     4B1    -0.196444  
      10A1    -0.172788     5B2    -0.066645     5B1    -0.066645  
      11A1    -0.046191    12A1    -0.014018     1A2    -0.014016  
      13A1     0.018527     6B2     0.117550     6B1     0.117550  
       7B1     0.309235     7B2     0.309235    14A1     0.309897  
      15A1     0.384940    16A1     0.523295     2A2     0.523299  
       8B2     0.718396     8B1     0.718396    17A1     0.781766  
      18A1     1.303089  

    Final Occupation by Irrep:
             A1    A2    B1    B2 
    DOCC [     8,    0,    3,    3 ]
    SOCC [     1,    0,    0,    0 ]
    NA   [     9,    0,    3,    3 ]
    NB   [     8,    0,    3,    3 ]

  @DF-UKS Final Energy:  -726.16465566656200

   => Energetics <=

    Nuclear Repulsion Energy =             93.7905924925732108
    One-Electron Energy =               -1180.7570860682833427
    Two-Electron Energy =                 399.1897755259947189
    DFT Exchange-Correlation Energy =     -38.3879376168467132
    Empirical Dispersion Energy =           0.0000000000000000
    VV10 Nonlocal Energy =                  0.0000000000000000
    Total Energy =                       -726.1646556665619983

  UHF NO Occupations:
  HONO-2 :    3 B2 1.9999895
  HONO-1 :    8 A1 1.9999422
  HONO-0 :    9 A1 1.0000000
  LUNO+0 :   10 A1 0.0000578
  LUNO+1 :    4 B2 0.0000105
  LUNO+2 :    4 B1 0.0000105
  LUNO+3 :   11 A1 0.0000019


Computation Completed


Properties will be evaluated at   0.000000,   0.000000,   0.000000 [a0]

Properties computed using the SCF density matrix


 Multipole Moments:

 ------------------------------------------------------------------------------------
     Multipole            Electronic (a.u.)      Nuclear  (a.u.)        Total (a.u.)
 ------------------------------------------------------------------------------------

 L = 1.  Multiply by 2.5417464519 to convert [e a0] to [Debye]
 Dipole X            :          0.0000000            0.0000000            0.0000000
 Dipole Y            :          0.0000000            0.0000000            0.0000000
 Dipole Z            :         -1.5388794            1.7221121            0.1832327
 Magnitude           :                                                    0.1832327

 ------------------------------------------------------------------------------------

*** tstop() called on Joses-MacBook-Pro-2.local at Thu Jul 17 15:12:35 2025
Module time:
	user time   =       8.64 seconds =       0.14 minutes
	system time =       2.11 seconds =       0.04 minutes
	total time  =          1 seconds =       0.02 minutes
Total time:
	user time   =      42.23 seconds =       0.70 minutes
	system time =       8.19 seconds =       0.14 minutes
	total time  =          4 seconds =       0.07 minutes

*** tstart() called on Joses-MacBook-Pro-2.local
*** at Thu Jul 17 15:12:35 2025


         ------------------------------------------------------------
                                   SCF GRAD                          
                          Rob Parrish, Justin Turney,                
                       Andy Simmonett, and Alex Sokolov              
         ------------------------------------------------------------

  ==> Geometry <==

    Molecular point group: c2v
    Full point group: C_inf_v

    Geometry (in Angstrom), charge = 1, multiplicity = 2:

       Center              X                  Y                   Z               Mass       
    ------------   -----------------  -----------------  -----------------  -----------------
         MG           0.000000000000     0.000000000000     0.761594718483    23.985041697000
         AR           0.000000000000     0.000000000000    -0.457101895612    39.962383123700

  Nuclear repulsion =   93.790592492573211

  ==> Basis Set <==

  Basis Set: CC-PVDZ
    Blend: CC-PVDZ
    Number of shells: 16
    Number of basis functions: 36
    Number of Cartesian functions: 38
    Spherical Harmonics?: true
    Max angular momentum: 2

  ==> DFJKGrad: Density-Fitted SCF Gradients <==

    Gradient:                    1
    J tasked:                  Yes
    K tasked:                  Yes
    wK tasked:                  No
    OpenMP threads:              1
    Integrals threads:           1
    Memory [MiB]:              375
    Schwarz Cutoff:          1E-12
    Fitting Condition:       1E-10

   => Auxiliary Basis Set <=

  Basis Set: (CC-PVDZ AUX)
    Blend: CC-PVDZ-JKFIT + DEF2-UNIVERSAL-JKFIT
    Number of shells: 70
    Number of basis functions: 224
    Number of Cartesian functions: 267
    Spherical Harmonics?: true
    Max angular momentum: 4

  ==> DFT Potential <==

   => LibXC <=

    Version 6.2.2
    S. Lehtola, C. Steigemann, M. J.T. Oliveira, and M. A.L. Marques.,  SoftwareX 7, 1–5 (2018) (10.1016/j.softx.2017.11.002)

   => Composite Functional: B3LYP <= 

    B3LYP Hyb-GGA Exchange-Correlation Functional

    P. J. Stephens, F. J. Devlin, C. F. Chabalowski, and M. J. Frisch.,  J. Phys. Chem. 98, 11623 (1994) (10.1021/j100096a001)

    Deriv               =              1
    GGA                 =           TRUE
    Meta                =          FALSE

    Exchange Hybrid     =           TRUE
    MP2 Hybrid          =          FALSE

   => Exchange Functionals <=

    0.0800   Slater exchange
    0.7200         Becke 88

   => Exact (HF) Exchange <=

    0.2000               HF 

   => Correlation Functionals <=

    0.1900   Vosko, Wilk & Nusair (VWN5_RPA)
    0.8100   Lee, Yang & Parr

   => LibXC Density Thresholds  <==

    XC_HYB_GGA_XC_B3LYP:  1.00E-15 

   => Molecular Quadrature <=

    Radial Scheme          =       TREUTLER
    Pruning Scheme         =           NONE
    Nuclear Scheme         =       TREUTLER

    Blocking Scheme        =         OCTREE
    BS radius alpha        =              1
    Pruning alpha          =              1
    Radial Points          =             75
    Spherical Points       =            302
    Total Points           =          42914
    Total Blocks           =            417
    Max Points             =            255
    Max Functions          =             36
    Weights Tolerance      =       1.00E-15


  -Total Gradient:
     Atom            X                  Y                   Z
    ------   -----------------  -----------------  -----------------
       1        0.000000000000    -0.000000000000    -2.438239358478
       2        0.000000000000    -0.000000000000     2.438110397112


*** tstop() called on Joses-MacBook-Pro-2.local at Thu Jul 17 15:12:36 2025
Module time:
	user time   =       2.66 seconds =       0.04 minutes
	system time =       1.55 seconds =       0.03 minutes
	total time  =          1 seconds =       0.02 minutes
Total time:
	user time   =      44.89 seconds =       0.75 minutes
	system time =       9.74 seconds =       0.16 minutes
	total time  =          5 seconds =       0.08 minutes

    			-----------------------------------------

    			 OPTKING 3.0: for geometry optimizations 

    			     By R.A. King, Bethel University     

    			        with contributions from          

    			    A.V. Copan, J. Cayton, A. Heide      

    			-----------------------------------------

    
	                            ===> Fragment 1 <== 

	 Z (Atomic Numbers)          Masses                          Geom                  
	      12.000000            23.985042          0.00000000  0.00000000  1.43920544   
	      18.000000            39.962383          0.00000000  0.00000000 -0.86379739   

	 - Coordinate -           - BOHR/RAD -       - ANG/DEG -
	 R(1,2)           =         2.303003           1.218697


	        --- Internal Coordinate Step in ANG or DEG, aJ/ANG or AJ/DEG ---
	-------------------------------------------------------------------------------
	           Coordinate      Previous         Force          Change          New 
	           ----------      --------        ------          ------        ------
	               R(1,2)       1.21870       20.08745        0.04701       1.26571
	-------------------------------------------------------------------------------

	                                 ==> Convergence Check <==                                  
    
	Measures of convergence in internal coordinates in au.
    
	Criteria marked as inactive (o), active & met (*), and active & unmet ( ).

	----------------------------------------------------------------------------------------------
	   Step    Total Energy     Delta E     Max Force     RMS Force      Max Disp      RMS Disp   
	----------------------------------------------------------------------------------------------
	  Convergence Criteria     1.00e-06 *    3.00e-04 *             o    1.20e-03 *             o
	----------------------------------------------------------------------------------------------
	     3    -726.16465567   -5.83e-02      2.44e+00      2.44e+00 o    8.88e-02      8.88e-02 o  ~
	----------------------------------------------------------------------------------------------

Next Geometry in Ang 
	Fragment 1 (Ang)

	   Mg   0.0000000000   0.0000000000   0.7851009393
	   Ar   0.0000000000   0.0000000000  -0.4806081165


    Structure for next step:
    Molecular point group: c2v
    Full point group: C_inf_v

    Geometry (in Angstrom), charge = 1, multiplicity = 2:

    MG           0.000000000000     0.000000000000     0.790973997061
    AR           0.000000000000     0.000000000000    -0.474735058768


Scratch directory: /tmp/
gradient() will perform analytic gradient computation.
   => Libint2 <=

    Primary   basis highest AM E, G, H:  6, 6, 3
    Auxiliary basis highest AM E, G, H:  7, 7, 4
    Onebody   basis highest AM E, G, H:  -, -, -
    Solid Harmonics ordering:            Gaussian

*** tstart() called on Joses-MacBook-Pro-2.local
*** at Thu Jul 17 15:12:36 2025

   => Loading Basis Set <=

    Name: CC-PVDZ
    Role: ORBITAL
    Keyword: BASIS
    atoms 1 entry MG         line   353 file /Users/joseantoniorodriguesromero/anaconda3/share/psi4/basis/cc-pvdz.gbs 
    atoms 2 entry AR         line   718 file /Users/joseantoniorodriguesromero/anaconda3/share/psi4/basis/cc-pvdz.gbs 


         ---------------------------------------------------------
                                   SCF
               by Justin Turney, Rob Parrish, Andy Simmonett
                          and Daniel G. A. Smith
                              UKS Reference
                        1 Threads,    500 MiB Core
         ---------------------------------------------------------

  ==> Geometry <==

    Molecular point group: c2v
    Full point group: C_inf_v

    Geometry (in Angstrom), charge = 1, multiplicity = 2:

       Center              X                  Y                   Z               Mass       
    ------------   -----------------  -----------------  -----------------  -----------------
         MG           0.000000000000     0.000000000000     0.790973997061    23.985041697000
         AR           0.000000000000     0.000000000000    -0.474735058768    39.962383123700

  Running in c2v symmetry.

  Rotational constants: A = ************  B =      0.70204  C =      0.70204 [cm^-1]
  Rotational constants: A = ************  B =  21046.53605  C =  21046.53605 [MHz]
  Nuclear repulsion =   90.306912934162099

  Charge       = 1
  Multiplicity = 2
  Electrons    = 29
  Nalpha       = 15
  Nbeta        = 14

  ==> Algorithm <==

  SCF Algorithm Type is DF.
  DIIS enabled.
  MOM disabled.
  Fractional occupation disabled.
  Guess Type is READ.
  Energy threshold   = 1.00e-08
  Density threshold  = 1.00e-08
  Integral threshold = 1.00e-12

  ==> Primary Basis <==

  Basis Set: CC-PVDZ
    Blend: CC-PVDZ
    Number of shells: 16
    Number of basis functions: 36
    Number of Cartesian functions: 38
    Spherical Harmonics?: true
    Max angular momentum: 2

  ==> DFT Potential <==

   => LibXC <=

    Version 6.2.2
    S. Lehtola, C. Steigemann, M. J.T. Oliveira, and M. A.L. Marques.,  SoftwareX 7, 1–5 (2018) (10.1016/j.softx.2017.11.002)

   => Composite Functional: B3LYP <= 

    B3LYP Hyb-GGA Exchange-Correlation Functional

    P. J. Stephens, F. J. Devlin, C. F. Chabalowski, and M. J. Frisch.,  J. Phys. Chem. 98, 11623 (1994) (10.1021/j100096a001)

    Deriv               =              1
    GGA                 =           TRUE
    Meta                =          FALSE

    Exchange Hybrid     =           TRUE
    MP2 Hybrid          =          FALSE

   => Exchange Functionals <=

    0.0800   Slater exchange
    0.7200         Becke 88

   => Exact (HF) Exchange <=

    0.2000               HF 

   => Correlation Functionals <=

    0.1900   Vosko, Wilk & Nusair (VWN5_RPA)
    0.8100   Lee, Yang & Parr

   => LibXC Density Thresholds  <==

    XC_HYB_GGA_XC_B3LYP:  1.00E-15 

   => Molecular Quadrature <=

    Radial Scheme          =       TREUTLER
    Pruning Scheme         =           NONE
    Nuclear Scheme         =       TREUTLER

    Blocking Scheme        =         OCTREE
    BS radius alpha        =              1
    Pruning alpha          =              1
    Radial Points          =             75
    Spherical Points       =            302
    Total Points           =          42922
    Total Blocks           =            415
    Max Points             =            254
    Max Functions          =             36
    Weights Tolerance      =       1.00E-15

   => Loading Basis Set <=

    Name: (CC-PVDZ AUX)
    Role: JKFIT
    Keyword: DF_BASIS_SCF
    atoms 1 entry MG         line   576 file /Users/joseantoniorodriguesromero/anaconda3/share/psi4/basis/def2-universal-jkfit.gbs 
    atoms 2 entry AR         line   741 file /Users/joseantoniorodriguesromero/anaconda3/share/psi4/basis/cc-pvdz-jkfit.gbs 

   => Loading Basis Set <=

    Name: CC-PVDZ
    Role: ORBITAL
    Keyword: BASIS
    atoms 1 entry MG         line   353 file /Users/joseantoniorodriguesromero/anaconda3/share/psi4/basis/cc-pvdz.gbs 
    atoms 2 entry AR         line   718 file /Users/joseantoniorodriguesromero/anaconda3/share/psi4/basis/cc-pvdz.gbs 

  Reading orbitals from file /tmp/doublet_MgAr.default.75156.180.npy, no projection.

  ==> Integral Setup <==

  DFHelper Memory: AOs need 0.003 GiB; user supplied 0.324 GiB. 
  Using in-core AOs.

  ==> MemDFJK: Density-Fitted J/K Matrices <==

    J tasked:                   Yes
    K tasked:                   Yes
    wK tasked:                   No
    OpenMP threads:               1
    Memory [MiB]:               331
    Algorithm:                 Core
    Schwarz Cutoff:           1E-12
    Mask sparsity (%):       0.0000
    Fitting Condition:        1E-10

   => Auxiliary Basis Set <=

  Basis Set: (CC-PVDZ AUX)
    Blend: CC-PVDZ-JKFIT + DEF2-UNIVERSAL-JKFIT
    Number of shells: 70
    Number of basis functions: 224
    Number of Cartesian functions: 267
    Spherical Harmonics?: true
    Max angular momentum: 4

  Cached 100.0% of DFT collocation blocks in 0.042 [GiB].

  Minimum eigenvalue in the overlap matrix is 2.2438996984E-03.
  Reciprocal condition number of the overlap matrix is 7.4885986827E-04.
    Using symmetric orthogonalization.

  ==> Pre-Iterations <==

  SCF Guess: Orbitals guess was supplied from a previous computation.

   -------------------------------------------------------
    Irrep   Nso     Nmo     Nalpha   Nbeta   Ndocc  Nsocc
   -------------------------------------------------------
     A1        18      18       9       8       8       1
     A2         2       2       0       0       0       0
     B1         8       8       3       3       3       0
     B2         8       8       3       3       3       0
   -------------------------------------------------------
    Total      36      36      15      14      14       1
   -------------------------------------------------------

  ==> Iterations <==

                           Total Energy        Delta E     RMS |[F,P]|

   @DF-UKS iter   0:  -726.37621008735903   -7.26376e+02   1.72725e-02 
   @DF-UKS iter   1:  -726.36247431193704    1.37358e-02   2.41522e-03 ADIIS/DIIS
   @DF-UKS iter   2:  -726.36325715378848   -7.82842e-04   1.79750e-03 ADIIS/DIIS/DAMP=1%
   @DF-UKS iter   3:  -726.36642310501816   -3.16595e-03   6.14213e-05 DIIS/DAMP=1%
   @DF-UKS iter   4:  -726.36402599029225    2.39711e-03   2.01582e-05 DIIS/DAMP=1%
   @DF-UKS iter   5:  -726.36397907413857    4.69162e-05   4.90114e-06 DIIS/DAMP=1%
   @DF-UKS iter   6:  -726.36396827134899    1.08028e-05   5.18773e-07 DIIS/DAMP=1%
   @DF-UKS iter   7:  -726.36396452287363    3.74848e-06   5.29019e-08 DIIS/DAMP=1%
   @DF-UKS iter   8:  -726.36396487944182   -3.56568e-07   6.20479e-09 DIIS/DAMP=1%
   @DF-UKS iter   9:  -726.36396495643532   -7.69935e-08   6.33577e-10 DIIS/DAMP=1%
   @DF-UKS iter  10:  -726.36396494665189    9.78343e-09   7.47219e-11 DIIS/DAMP=1%
  Energy and wave function converged.


  ==> Post-Iterations <==

   Electrons on quadrature grid:
      Nalpha   =   15.0000025711 ; deviation = 2.571e-06
      Nbeta    =   14.0000025301 ; deviation = 2.530e-06
      Ntotal   =   29.0000051012 ; deviation = 5.101e-06 

   @Spin Contamination Metric:   1.417882930E-04
   @S^2 Expected:                7.500000000E-01
   @S^2 Observed:                7.501417883E-01
   @S   Expected:                5.000000000E-01
   @S   Observed:                5.000000000E-01

    Orbital Energies [Eh]
    ---------------------

    Alpha Occupied:                                                       

       1A1  -115.423124     2A1   -47.153443     3A1   -11.517509  
       4A1    -9.071135     1B2    -9.055525     1B1    -9.055525  
       5A1    -3.555713     6A1    -2.355632     2B2    -2.253394  
       2B1    -2.253394     7A1    -1.335165     3B2    -0.844692  
       3B1    -0.844692     8A1    -0.746277     9A1    -0.398418  

    Alpha Virtual:                                                        

       4B1    -0.228705     4B2    -0.228705    10A1    -0.188428  
       5B1    -0.073761     5B2    -0.073761    11A1    -0.063827  
      12A1    -0.027345     1A2    -0.027345    13A1    -0.000642  
       6B1     0.087337     6B2     0.087337    14A1     0.282592  
       7B1     0.305551     7B2     0.305551    15A1     0.376042  
      16A1     0.517302     2A2     0.517304     8B1     0.718648  
       8B2     0.718648    17A1     0.748149    18A1     1.320365  

    Beta Occupied:                                                        

       1A1  -115.422037     2A1   -47.150625     3A1   -11.516276  
       4A1    -9.069018     1B2    -9.054768     1B1    -9.054768  
       5A1    -3.552035     6A1    -2.346113     2B2    -2.250631  
       2B1    -2.250631     7A1    -1.331612     3B2    -0.842882  
       3B1    -0.842882     8A1    -0.740437  

    Beta Virtual:                                                         

       9A1    -0.306015     4B1    -0.195154     4B2    -0.195154  
      10A1    -0.171910     5B1    -0.064909     5B2    -0.064909  
      11A1    -0.044877    12A1    -0.001820     1A2    -0.001816  
      13A1     0.019499     6B2     0.117877     6B1     0.117877  
      14A1     0.305868     7B1     0.313557     7B2     0.313557  
      15A1     0.378186    16A1     0.524213     2A2     0.524217  
       8B1     0.727081     8B2     0.727081    17A1     0.756201  
      18A1     1.324608  

    Final Occupation by Irrep:
             A1    A2    B1    B2 
    DOCC [     8,    0,    3,    3 ]
    SOCC [     1,    0,    0,    0 ]
    NA   [     9,    0,    3,    3 ]
    NB   [     8,    0,    3,    3 ]

  @DF-UKS Final Energy:  -726.36396494665189

   => Energetics <=

    Nuclear Repulsion Energy =             90.3069129341620993
    One-Electron Energy =               -1174.7792149923341185
    Two-Electron Energy =                 396.4672846752675355
    DFT Exchange-Correlation Energy =     -38.3589475637472646
    Empirical Dispersion Energy =           0.0000000000000000
    VV10 Nonlocal Energy =                  0.0000000000000000
    Total Energy =                       -726.3639649466517767

  UHF NO Occupations:
  HONO-2 :    3 B1 1.9999878
  HONO-1 :    8 A1 1.9999559
  HONO-0 :    9 A1 1.0000000
  LUNO+0 :   10 A1 0.0000441
  LUNO+1 :    4 B2 0.0000122
  LUNO+2 :    4 B1 0.0000122
  LUNO+3 :   11 A1 0.0000014


Computation Completed


Properties will be evaluated at   0.000000,   0.000000,   0.000000 [a0]

Properties computed using the SCF density matrix


 Multipole Moments:

 ------------------------------------------------------------------------------------
     Multipole            Electronic (a.u.)      Nuclear  (a.u.)        Total (a.u.)
 ------------------------------------------------------------------------------------

 L = 1.  Multiply by 2.5417464519 to convert [e a0] to [Debye]
 Dipole X            :          0.0000000            0.0000000            0.0000000
 Dipole Y            :          0.0000000            0.0000000            0.0000000
 Dipole Z            :         -1.5956637            1.7885443            0.1928806
 Magnitude           :                                                    0.1928806

 ------------------------------------------------------------------------------------

*** tstop() called on Joses-MacBook-Pro-2.local at Thu Jul 17 15:12:37 2025
Module time:
	user time   =       8.54 seconds =       0.14 minutes
	system time =       2.58 seconds =       0.04 minutes
	total time  =          1 seconds =       0.02 minutes
Total time:
	user time   =      53.60 seconds =       0.89 minutes
	system time =      12.40 seconds =       0.21 minutes
	total time  =          6 seconds =       0.10 minutes

*** tstart() called on Joses-MacBook-Pro-2.local
*** at Thu Jul 17 15:12:37 2025


         ------------------------------------------------------------
                                   SCF GRAD                          
                          Rob Parrish, Justin Turney,                
                       Andy Simmonett, and Alex Sokolov              
         ------------------------------------------------------------

  ==> Geometry <==

    Molecular point group: c2v
    Full point group: C_inf_v

    Geometry (in Angstrom), charge = 1, multiplicity = 2:

       Center              X                  Y                   Z               Mass       
    ------------   -----------------  -----------------  -----------------  -----------------
         MG           0.000000000000     0.000000000000     0.790973997061    23.985041697000
         AR           0.000000000000     0.000000000000    -0.474735058768    39.962383123700

  Nuclear repulsion =   90.306912934162099

  ==> Basis Set <==

  Basis Set: CC-PVDZ
    Blend: CC-PVDZ
    Number of shells: 16
    Number of basis functions: 36
    Number of Cartesian functions: 38
    Spherical Harmonics?: true
    Max angular momentum: 2

  ==> DFJKGrad: Density-Fitted SCF Gradients <==

    Gradient:                    1
    J tasked:                  Yes
    K tasked:                  Yes
    wK tasked:                  No
    OpenMP threads:              1
    Integrals threads:           1
    Memory [MiB]:              375
    Schwarz Cutoff:          1E-12
    Fitting Condition:       1E-10

   => Auxiliary Basis Set <=

  Basis Set: (CC-PVDZ AUX)
    Blend: CC-PVDZ-JKFIT + DEF2-UNIVERSAL-JKFIT
    Number of shells: 70
    Number of basis functions: 224
    Number of Cartesian functions: 267
    Spherical Harmonics?: true
    Max angular momentum: 4

  ==> DFT Potential <==

   => LibXC <=

    Version 6.2.2
    S. Lehtola, C. Steigemann, M. J.T. Oliveira, and M. A.L. Marques.,  SoftwareX 7, 1–5 (2018) (10.1016/j.softx.2017.11.002)

   => Composite Functional: B3LYP <= 

    B3LYP Hyb-GGA Exchange-Correlation Functional

    P. J. Stephens, F. J. Devlin, C. F. Chabalowski, and M. J. Frisch.,  J. Phys. Chem. 98, 11623 (1994) (10.1021/j100096a001)

    Deriv               =              1
    GGA                 =           TRUE
    Meta                =          FALSE

    Exchange Hybrid     =           TRUE
    MP2 Hybrid          =          FALSE

   => Exchange Functionals <=

    0.0800   Slater exchange
    0.7200         Becke 88

   => Exact (HF) Exchange <=

    0.2000               HF 

   => Correlation Functionals <=

    0.1900   Vosko, Wilk & Nusair (VWN5_RPA)
    0.8100   Lee, Yang & Parr

   => LibXC Density Thresholds  <==

    XC_HYB_GGA_XC_B3LYP:  1.00E-15 

   => Molecular Quadrature <=

    Radial Scheme          =       TREUTLER
    Pruning Scheme         =           NONE
    Nuclear Scheme         =       TREUTLER

    Blocking Scheme        =         OCTREE
    BS radius alpha        =              1
    Pruning alpha          =              1
    Radial Points          =             75
    Spherical Points       =            302
    Total Points           =          42922
    Total Blocks           =            415
    Max Points             =            254
    Max Functions          =             36
    Weights Tolerance      =       1.00E-15


  -Total Gradient:
     Atom            X                  Y                   Z
    ------   -----------------  -----------------  -----------------
       1        0.000000000000     0.000000000000    -2.057358553538
       2        0.000000000000    -0.000000000000     2.057252774924


*** tstop() called on Joses-MacBook-Pro-2.local at Thu Jul 17 15:12:37 2025
Module time:
	user time   =       3.11 seconds =       0.05 minutes
	system time =       1.20 seconds =       0.02 minutes
	total time  =          0 seconds =       0.00 minutes
Total time:
	user time   =      56.72 seconds =       0.95 minutes
	system time =      13.60 seconds =       0.23 minutes
	total time  =          6 seconds =       0.10 minutes

    			-----------------------------------------

    			 OPTKING 3.0: for geometry optimizations 

    			     By R.A. King, Bethel University     

    			        with contributions from          

    			    A.V. Copan, J. Cayton, A. Heide      

    			-----------------------------------------

    
	                            ===> Fragment 1 <== 

	 Z (Atomic Numbers)          Masses                          Geom                  
	      12.000000            23.985042          0.00000000  0.00000000  1.49472423   
	      18.000000            39.962383          0.00000000  0.00000000 -0.89711924   

	 - Coordinate -           - BOHR/RAD -       - ANG/DEG -
	 R(1,2)           =         2.391843           1.265709


	        --- Internal Coordinate Step in ANG or DEG, aJ/ANG or AJ/DEG ---
	-------------------------------------------------------------------------------
	           Coordinate      Previous         Force          Change          New 
	           ----------      --------        ------          ------        ------
	               R(1,2)       1.26571       16.94957        0.20862       1.47433
	-------------------------------------------------------------------------------

	                                 ==> Convergence Check <==                                  
    
	Measures of convergence in internal coordinates in au.
    
	Criteria marked as inactive (o), active & met (*), and active & unmet ( ).

	----------------------------------------------------------------------------------------------
	   Step    Total Energy     Delta E     Max Force     RMS Force      Max Disp      RMS Disp   
	----------------------------------------------------------------------------------------------
	  Convergence Criteria     1.00e-06 *    3.00e-04 *             o    1.20e-03 *             o
	----------------------------------------------------------------------------------------------
	     4    -726.36396495   -1.99e-01      2.06e+00      2.06e+00 o    3.94e-01      3.94e-01 o  ~
	----------------------------------------------------------------------------------------------

Next Geometry in Ang 
	Fragment 1 (Ang)

	   Mg   0.0000000000   0.0000000000   0.8952860129
	   Ar   0.0000000000   0.0000000000  -0.5790470746


    Structure for next step:
    Molecular point group: c2v
    Full point group: C_inf_v

    Geometry (in Angstrom), charge = 1, multiplicity = 2:

    MG           0.000000000000     0.000000000000     0.921348496226
    AR           0.000000000000     0.000000000000    -0.552984591310


Scratch directory: /tmp/
gradient() will perform analytic gradient computation.
   => Libint2 <=

    Primary   basis highest AM E, G, H:  6, 6, 3
    Auxiliary basis highest AM E, G, H:  7, 7, 4
    Onebody   basis highest AM E, G, H:  -, -, -
    Solid Harmonics ordering:            Gaussian

*** tstart() called on Joses-MacBook-Pro-2.local
*** at Thu Jul 17 15:12:37 2025

   => Loading Basis Set <=

    Name: CC-PVDZ
    Role: ORBITAL
    Keyword: BASIS
    atoms 1 entry MG         line   353 file /Users/joseantoniorodriguesromero/anaconda3/share/psi4/basis/cc-pvdz.gbs 
    atoms 2 entry AR         line   718 file /Users/joseantoniorodriguesromero/anaconda3/share/psi4/basis/cc-pvdz.gbs 


         ---------------------------------------------------------
                                   SCF
               by Justin Turney, Rob Parrish, Andy Simmonett
                          and Daniel G. A. Smith
                              UKS Reference
                        1 Threads,    500 MiB Core
         ---------------------------------------------------------

  ==> Geometry <==

    Molecular point group: c2v
    Full point group: C_inf_v

    Geometry (in Angstrom), charge = 1, multiplicity = 2:

       Center              X                  Y                   Z               Mass       
    ------------   -----------------  -----------------  -----------------  -----------------
         MG           0.000000000000     0.000000000000     0.921348496226    23.985041697000
         AR           0.000000000000     0.000000000000    -0.552984591310    39.962383123700

  Running in c2v symmetry.

  Rotational constants: A = ************  B =      0.51741  C =      0.51741 [cm^-1]
  Rotational constants: A = ************  B =  15511.62075  C =  15511.62075 [MHz]
  Nuclear repulsion =   77.528123373890807

  Charge       = 1
  Multiplicity = 2
  Electrons    = 29
  Nalpha       = 15
  Nbeta        = 14

  ==> Algorithm <==

  SCF Algorithm Type is DF.
  DIIS enabled.
  MOM disabled.
[...]

	----------------------------------------------------------------------------------------------
	   Step    Total Energy     Delta E     Max Force     RMS Force      Max Disp      RMS Disp   
	----------------------------------------------------------------------------------------------
	  Convergence Criteria     1.00e-06 *    3.00e-04 *             o    1.20e-03 *             o
	----------------------------------------------------------------------------------------------
	    17    -727.35471094   -4.45e-06      1.03e-04 *    1.03e-04 o    8.45e-03      8.45e-03 o  ~
	----------------------------------------------------------------------------------------------

Next Geometry in Ang 
	Fragment 1 (Ang)

	   Mg   0.0000000000   0.0000000000   1.7896384581
	   Ar   0.0000000000   0.0000000000  -1.0750180802


    Structure for next step:
    Molecular point group: c2v
    Full point group: C_inf_v

    Geometry (in Angstrom), charge = 1, multiplicity = 2:

    MG           0.000000000000     0.000000000000     1.790197219395
    AR           0.000000000000     0.000000000000    -1.074459318908


Scratch directory: /tmp/
gradient() will perform analytic gradient computation.
   => Libint2 <=

    Primary   basis highest AM E, G, H:  6, 6, 3
    Auxiliary basis highest AM E, G, H:  7, 7, 4
    Onebody   basis highest AM E, G, H:  -, -, -
    Solid Harmonics ordering:            Gaussian

*** tstart() called on Joses-MacBook-Pro-2.local
*** at Thu Jul 17 15:12:56 2025

   => Loading Basis Set <=

    Name: CC-PVDZ
    Role: ORBITAL
    Keyword: BASIS
    atoms 1 entry MG         line   353 file /Users/joseantoniorodriguesromero/anaconda3/share/psi4/basis/cc-pvdz.gbs 
    atoms 2 entry AR         line   718 file /Users/joseantoniorodriguesromero/anaconda3/share/psi4/basis/cc-pvdz.gbs 


         ---------------------------------------------------------
                                   SCF
               by Justin Turney, Rob Parrish, Andy Simmonett
                          and Daniel G. A. Smith
                              UKS Reference
                        1 Threads,    500 MiB Core
         ---------------------------------------------------------

  ==> Geometry <==

    Molecular point group: c2v
    Full point group: C_inf_v

    Geometry (in Angstrom), charge = 1, multiplicity = 2:

       Center              X                  Y                   Z               Mass       
    ------------   -----------------  -----------------  -----------------  -----------------
         MG           0.000000000000     0.000000000000     1.790197219395    23.985041697000
         AR           0.000000000000     0.000000000000    -1.074459318908    39.962383123700

  Running in c2v symmetry.

  Rotational constants: A = ************  B =      0.13705  C =      0.13705 [cm^-1]
  Rotational constants: A = ************  B =   4108.68914  C =   4108.68914 [MHz]
  Nuclear repulsion =   39.900866291089400

  Charge       = 1
  Multiplicity = 2
  Electrons    = 29
  Nalpha       = 15
  Nbeta        = 14

  ==> Algorithm <==

  SCF Algorithm Type is DF.
  DIIS enabled.
  MOM disabled.
  Fractional occupation disabled.
  Guess Type is READ.
  Energy threshold   = 1.00e-08
  Density threshold  = 1.00e-08
  Integral threshold = 1.00e-12

  ==> Primary Basis <==

  Basis Set: CC-PVDZ
    Blend: CC-PVDZ
    Number of shells: 16
    Number of basis functions: 36
    Number of Cartesian functions: 38
    Spherical Harmonics?: true
    Max angular momentum: 2

  ==> DFT Potential <==

   => LibXC <=

    Version 6.2.2
    S. Lehtola, C. Steigemann, M. J.T. Oliveira, and M. A.L. Marques.,  SoftwareX 7, 1–5 (2018) (10.1016/j.softx.2017.11.002)

   => Composite Functional: B3LYP <= 

    B3LYP Hyb-GGA Exchange-Correlation Functional

    P. J. Stephens, F. J. Devlin, C. F. Chabalowski, and M. J. Frisch.,  J. Phys. Chem. 98, 11623 (1994) (10.1021/j100096a001)

    Deriv               =              1
    GGA                 =           TRUE
    Meta                =          FALSE

    Exchange Hybrid     =           TRUE
    MP2 Hybrid          =          FALSE

   => Exchange Functionals <=

    0.0800   Slater exchange
    0.7200         Becke 88

   => Exact (HF) Exchange <=

    0.2000               HF 

   => Correlation Functionals <=

    0.1900   Vosko, Wilk & Nusair (VWN5_RPA)
    0.8100   Lee, Yang & Parr

   => LibXC Density Thresholds  <==

    XC_HYB_GGA_XC_B3LYP:  1.00E-15 

   => Molecular Quadrature <=

    Radial Scheme          =       TREUTLER
    Pruning Scheme         =           NONE
    Nuclear Scheme         =       TREUTLER

    Blocking Scheme        =         OCTREE
    BS radius alpha        =              1
    Pruning alpha          =              1
    Radial Points          =             75
    Spherical Points       =            302
    Total Points           =          43037
    Total Blocks           =            419
    Max Points             =            256
    Max Functions          =             36
    Weights Tolerance      =       1.00E-15

   => Loading Basis Set <=

    Name: (CC-PVDZ AUX)
    Role: JKFIT
    Keyword: DF_BASIS_SCF
    atoms 1 entry MG         line   576 file /Users/joseantoniorodriguesromero/anaconda3/share/psi4/basis/def2-universal-jkfit.gbs 
    atoms 2 entry AR         line   741 file /Users/joseantoniorodriguesromero/anaconda3/share/psi4/basis/cc-pvdz-jkfit.gbs 

   => Loading Basis Set <=

    Name: CC-PVDZ
    Role: ORBITAL
    Keyword: BASIS
    atoms 1 entry MG         line   353 file /Users/joseantoniorodriguesromero/anaconda3/share/psi4/basis/cc-pvdz.gbs 
    atoms 2 entry AR         line   718 file /Users/joseantoniorodriguesromero/anaconda3/share/psi4/basis/cc-pvdz.gbs 

  Reading orbitals from file /tmp/doublet_MgAr.default.75156.180.npy, no projection.

  ==> Integral Setup <==

  DFHelper Memory: AOs need 0.003 GiB; user supplied 0.325 GiB. 
  Using in-core AOs.

  ==> MemDFJK: Density-Fitted J/K Matrices <==

    J tasked:                   Yes
    K tasked:                   Yes
    wK tasked:                   No
    OpenMP threads:               1
    Memory [MiB]:               332
    Algorithm:                 Core
    Schwarz Cutoff:           1E-12
    Mask sparsity (%):       0.0000
    Fitting Condition:        1E-10

   => Auxiliary Basis Set <=

  Basis Set: (CC-PVDZ AUX)
    Blend: CC-PVDZ-JKFIT + DEF2-UNIVERSAL-JKFIT
    Number of shells: 70
    Number of basis functions: 224
    Number of Cartesian functions: 267
    Spherical Harmonics?: true
    Max angular momentum: 4

  Cached 100.0% of DFT collocation blocks in 0.041 [GiB].

  Minimum eigenvalue in the overlap matrix is 3.7208947722E-02.
  Reciprocal condition number of the overlap matrix is 1.4322254474E-02.
    Using symmetric orthogonalization.

  ==> Pre-Iterations <==

  SCF Guess: Orbitals guess was supplied from a previous computation.

   -------------------------------------------------------
    Irrep   Nso     Nmo     Nalpha   Nbeta   Ndocc  Nsocc
   -------------------------------------------------------
     A1        18      18       9       8       8       1
     A2         2       2       0       0       0       0
     B1         8       8       3       3       3       0
     B2         8       8       3       3       3       0
   -------------------------------------------------------
    Total      36      36      15      14      14       1
   -------------------------------------------------------

  ==> Iterations <==

                           Total Energy        Delta E     RMS |[F,P]|

   @DF-UKS iter   0:  -727.35420924435823   -7.27354e+02   9.95006e-05 
   @DF-UKS iter   1:  -727.35471114063500   -5.01896e-04   1.50709e-05 DIIS
   @DF-UKS iter   2:  -727.35471116914960   -2.85146e-08   1.25232e-05 DIIS/DAMP=1%
   @DF-UKS iter   3:  -727.35469595377504    1.52154e-05   4.68752e-07 DIIS/DAMP=1%
   @DF-UKS iter   4:  -727.35471092595162   -1.49722e-05   1.82993e-07 DIIS/DAMP=1%
   @DF-UKS iter   5:  -727.35471109206230   -1.66111e-07   3.18759e-08 DIIS/DAMP=1%
   @DF-UKS iter   6:  -727.35471117982320   -8.77609e-08   6.75326e-09 DIIS/DAMP=1%
   @DF-UKS iter   7:  -727.35471121367482   -3.38516e-08   2.26001e-10 DIIS/DAMP=1%
   @DF-UKS iter   8:  -727.35471120556531    8.10951e-09   6.26292e-11 DIIS/DAMP=1%
  Energy and wave function converged.


  ==> Post-Iterations <==

   Electrons on quadrature grid:
      Nalpha   =   14.9999937605 ; deviation = -6.240e-06
      Nbeta    =   13.9999937678 ; deviation = -6.232e-06
      Ntotal   =   28.9999875283 ; deviation = -1.247e-05 

   @Spin Contamination Metric:   6.705915930E-05
   @S^2 Expected:                7.500000000E-01
   @S^2 Observed:                7.500670592E-01
   @S   Expected:                5.000000000E-01
   @S   Observed:                5.000000000E-01

    Orbital Energies [Eh]
    ---------------------

    Alpha Occupied:                                                       

       1A1  -115.309776     2A1   -47.148712     3A1   -11.346190  
       4A1    -8.897434     1B1    -8.895315     1B2    -8.895315  
       5A1    -3.420093     2B1    -2.163037     2B2    -2.163037  
       6A1    -2.162801     7A1    -1.174364     8A1    -0.645997  
       3B1    -0.625237     3B2    -0.625237     9A1    -0.441017  

    Alpha Virtual:                                                        

       4B2    -0.246423     4B1    -0.246423    10A1    -0.222557  
      11A1    -0.082128    12A1    -0.036509     5B2    -0.026857  
       5B1    -0.026857     6B2     0.058054     6B1     0.058054  
      13A1     0.064473     1A2     0.064474    14A1     0.088763  
       7B2     0.428967     7B1     0.428967    15A1     0.452972  
       2A2     0.632610    16A1     0.632639     8B2     0.636817  
       8B1     0.636817    17A1     0.643850    18A1     0.817356  

    Beta Occupied:                                                        

       1A1  -115.309366     2A1   -47.145403     3A1   -11.345780  
       4A1    -8.896329     1B1    -8.895045     1B2    -8.895045  
       5A1    -3.414013     2B1    -2.158980     2B2    -2.158980  
       6A1    -2.158727     7A1    -1.172339     8A1    -0.641416  
       3B1    -0.624576     3B2    -0.624576  

    Beta Virtual:                                                         

       9A1    -0.351246     4B2    -0.209695     4B1    -0.209695  
      10A1    -0.191428    11A1    -0.073401    12A1    -0.020603  
       5B2    -0.012079     5B1    -0.012079     6B2     0.092912  
       6B1     0.092912     1A2     0.106908    13A1     0.106910  
      14A1     0.120443     7B2     0.430758     7B1     0.430758  
      15A1     0.454453     2A2     0.633139    16A1     0.633167  
       8B2     0.639466     8B1     0.639466    17A1     0.646293  
      18A1     0.823330  

    Final Occupation by Irrep:
             A1    A2    B1    B2 
    DOCC [     8,    0,    3,    3 ]
    SOCC [     1,    0,    0,    0 ]
    NA   [     9,    0,    3,    3 ]
    NB   [     8,    0,    3,    3 ]

  @DF-UKS Final Energy:  -727.35471120556531

   => Energetics <=

    Nuclear Repulsion Energy =             39.9008662910894003
    One-Electron Energy =               -1080.1293281418350034
    Two-Electron Energy =                 350.8666336023114241
    DFT Exchange-Correlation Energy =     -37.9928829571312150
    Empirical Dispersion Energy =           0.0000000000000000
    VV10 Nonlocal Energy =                  0.0000000000000000
    Total Energy =                       -727.3547112055654225

  UHF NO Occupations:
  HONO-2 :    3 B1 1.9999935
  HONO-1 :    8 A1 1.9999820
  HONO-0 :    9 A1 1.0000000
  LUNO+0 :   10 A1 0.0000180
  LUNO+1 :    4 B1 0.0000065
  LUNO+2 :    4 B2 0.0000065
  LUNO+3 :   11 A1 0.0000015


Computation Completed


Properties will be evaluated at   0.000000,   0.000000,   0.000000 [a0]

Properties computed using the SCF density matrix


 Multipole Moments:

 ------------------------------------------------------------------------------------
     Multipole            Electronic (a.u.)      Nuclear  (a.u.)        Total (a.u.)
 ------------------------------------------------------------------------------------

 L = 1.  Multiply by 2.5417464519 to convert [e a0] to [Debye]
 Dipole X            :          0.0000000            0.0000000            0.0000000
 Dipole Y            :          0.0000000            0.0000000            0.0000000
 Dipole Z            :         -1.3851065            4.0479802            2.6628737
 Magnitude           :                                                    2.6628737

 ------------------------------------------------------------------------------------

*** tstop() called on Joses-MacBook-Pro-2.local at Thu Jul 17 15:12:57 2025
Module time:
	user time   =       7.96 seconds =       0.13 minutes
	system time =       1.63 seconds =       0.03 minutes
	total time  =          1 seconds =       0.02 minutes
Total time:
	user time   =     212.98 seconds =       3.55 minutes
	system time =      63.48 seconds =       1.06 minutes
	total time  =         26 seconds =       0.43 minutes

*** tstart() called on Joses-MacBook-Pro-2.local
*** at Thu Jul 17 15:12:57 2025


         ------------------------------------------------------------
                                   SCF GRAD                          
                          Rob Parrish, Justin Turney,                
                       Andy Simmonett, and Alex Sokolov              
         ------------------------------------------------------------

  ==> Geometry <==

    Molecular point group: c2v
    Full point group: C_inf_v

    Geometry (in Angstrom), charge = 1, multiplicity = 2:

       Center              X                  Y                   Z               Mass       
    ------------   -----------------  -----------------  -----------------  -----------------
         MG           0.000000000000     0.000000000000     1.790197219395    23.985041697000
         AR           0.000000000000     0.000000000000    -1.074459318908    39.962383123700

  Nuclear repulsion =   39.900866291089400

  ==> Basis Set <==

  Basis Set: CC-PVDZ
    Blend: CC-PVDZ
    Number of shells: 16
    Number of basis functions: 36
    Number of Cartesian functions: 38
    Spherical Harmonics?: true
    Max angular momentum: 2

  ==> DFJKGrad: Density-Fitted SCF Gradients <==

    Gradient:                    1
    J tasked:                  Yes
    K tasked:                  Yes
    wK tasked:                  No
    OpenMP threads:              1
    Integrals threads:           1
    Memory [MiB]:              375
    Schwarz Cutoff:          1E-12
    Fitting Condition:       1E-10

   => Auxiliary Basis Set <=

  Basis Set: (CC-PVDZ AUX)
    Blend: CC-PVDZ-JKFIT + DEF2-UNIVERSAL-JKFIT
    Number of shells: 70
    Number of basis functions: 224
    Number of Cartesian functions: 267
    Spherical Harmonics?: true
    Max angular momentum: 4

  ==> DFT Potential <==

   => LibXC <=

    Version 6.2.2
    S. Lehtola, C. Steigemann, M. J.T. Oliveira, and M. A.L. Marques.,  SoftwareX 7, 1–5 (2018) (10.1016/j.softx.2017.11.002)

   => Composite Functional: B3LYP <= 

    B3LYP Hyb-GGA Exchange-Correlation Functional

    P. J. Stephens, F. J. Devlin, C. F. Chabalowski, and M. J. Frisch.,  J. Phys. Chem. 98, 11623 (1994) (10.1021/j100096a001)

    Deriv               =              1
    GGA                 =           TRUE
    Meta                =          FALSE

    Exchange Hybrid     =           TRUE
    MP2 Hybrid          =          FALSE

   => Exchange Functionals <=

    0.0800   Slater exchange
    0.7200         Becke 88

   => Exact (HF) Exchange <=

    0.2000               HF 

   => Correlation Functionals <=

    0.1900   Vosko, Wilk & Nusair (VWN5_RPA)
    0.8100   Lee, Yang & Parr

   => LibXC Density Thresholds  <==

    XC_HYB_GGA_XC_B3LYP:  1.00E-15 

   => Molecular Quadrature <=

    Radial Scheme          =       TREUTLER
    Pruning Scheme         =           NONE
    Nuclear Scheme         =       TREUTLER

    Blocking Scheme        =         OCTREE
    BS radius alpha        =              1
    Pruning alpha          =              1
    Radial Points          =             75
    Spherical Points       =            302
    Total Points           =          43037
    Total Blocks           =            419
    Max Points             =            256
    Max Functions          =             36
    Weights Tolerance      =       1.00E-15


  -Total Gradient:
     Atom            X                  Y                   Z
    ------   -----------------  -----------------  -----------------
       1        0.000000000000    -0.000000000000    -0.000004831427
       2        0.000000000000    -0.000000000000     0.000064510897


*** tstop() called on Joses-MacBook-Pro-2.local at Thu Jul 17 15:12:57 2025
Module time:
	user time   =       2.30 seconds =       0.04 minutes
	system time =       2.04 seconds =       0.03 minutes
	total time  =          0 seconds =       0.00 minutes
Total time:
	user time   =     215.29 seconds =       3.59 minutes
	system time =      65.52 seconds =       1.09 minutes
	total time  =         26 seconds =       0.43 minutes

    			-----------------------------------------

    			 OPTKING 3.0: for geometry optimizations 

    			     By R.A. King, Bethel University     

    			        with contributions from          

    			    A.V. Copan, J. Cayton, A. Heide      

    			-----------------------------------------

    
	                            ===> Fragment 1 <== 

	 Z (Atomic Numbers)          Masses                          Geom                  
	      12.000000            23.985042          0.00000000  0.00000000  3.38298246   
	      18.000000            39.962383          0.00000000  0.00000000 -2.03043385   

	 - Coordinate -           - BOHR/RAD -       - ANG/DEG -
	 R(1,2)           =         5.413416           2.864657


	        --- Internal Coordinate Step in ANG or DEG, aJ/ANG or AJ/DEG ---
	-------------------------------------------------------------------------------
	           Coordinate      Previous         Force          Change          New 
	           ----------      --------        ------          ------        ------
	               R(1,2)       2.86466        0.00029        0.00188       2.86653
	-------------------------------------------------------------------------------

	                                 ==> Convergence Check <==                                  
    
	Measures of convergence in internal coordinates in au.
    
	Criteria marked as inactive (o), active & met (*), and active & unmet ( ).

	----------------------------------------------------------------------------------------------
	   Step    Total Energy     Delta E     Max Force     RMS Force      Max Disp      RMS Disp   
	----------------------------------------------------------------------------------------------
	  Convergence Criteria     1.00e-06 *    3.00e-04 *             o    1.20e-03 *             o
	----------------------------------------------------------------------------------------------
	    18    -727.35471121   -2.69e-07 *    3.47e-05 *    3.47e-05 o    3.55e-03      3.55e-03 o  ~
	----------------------------------------------------------------------------------------------

Next Geometry in Ang 
	Fragment 1 (Ang)

	   Mg   0.0000000000   0.0000000000   1.7911362314
	   Ar   0.0000000000   0.0000000000  -1.0753983309


    Final optimized geometry and variables:
    Molecular point group: c2v
    Full point group: C_inf_v

    Geometry (in Angstrom), charge = 1, multiplicity = 2:

    MG           0.000000000000     0.000000000000     1.790197219395
    AR           0.000000000000     0.000000000000    -1.074459318908


    Psi4 stopped on: Thursday, 17 July 2025 03:12PM
    Psi4 wall time for execution: 0:00:27.31

*** Psi4 exiting successfully. Buy a developer a beer!
