
    -----------------------------------------------------------------------
          Psi4: An Open-Source Ab Initio Electronic Structure Package
                               Psi4 1.9.1 release

                         Git: Rev {} zzzzzzz 


    D. G. A. Smith, L. A. Burns, A. C. Simmonett, R. M. Parrish,
    M. C. Schieber, R. Galvelis, P. Kraus, H. Kruse, R. Di Remigio,
    A. Alenaizan, A. M. James, S. Lehtola, J. P. Misiewicz, M. Scheurer,
    R. A. Shaw, J. B. Schriber, Y. Xie, Z. L. Glick, D. A. Sirianni,
    J. S. O'Brien, J. M. Waldrop, A. Kumar, E. G. Hohenstein,
    B. P. Pritchard, B. R. Brooks, H. F. Schaefer III, A. Yu. Sokolov,
    K. Patkowski, A. E. DePrince III, U. Bozkaya, R. A. King,
    F. A. Evangelista, J. M. Turney, T. D. Crawford, C. D. Sherrill,
    J. Chem. Phys. 152(18) 184108 (2020). https://doi.org/10.1063/5.0006002

                            Additional Code Authors
    E. T. Seidl, C. L. Janssen, E. F. Valeev, M. L. Leininger,
    J. F. Gonthier, R. M. Richard, H. R. McAlexander, M. Saitow, X. Wang,
    P. Verma, M. H. Lechner, A. Jiang, S. Behnle, A. G. Heide,
    M. F. Herbst, and D. L. Poole

             Previous Authors, Complete List of Code Contributors,
                       and Citations for Specific Modules
    https://github.com/psi4/psi4/blob/master/codemeta.json
    https://github.com/psi4/psi4/graphs/contributors
    http://psicode.org/psi4manual/master/introduction.html#citing-psifour

    -----------------------------------------------------------------------


    Psi4 started on: Thursday, 17 July 2025 01:19PM

    Process ID: 74131
    Host:       Joses-MacBook-Pro-2.local
    PSIDATADIR: /Users/joseantoniorodriguesromero/anaconda3/share/psi4
    Memory:     500.0 MiB
    Threads:    1
    
  ==> Input File <==

--------------------------------------------------------------------------
molecule { 
1 2
Be   0.00000        0.60000        0.00000
Ne   0.00000       -0.60000        0.00000
}

set { 
basis              cc-pvdz
reference          uks
maxiter            500
geom_maxiter       500
DAMPING_PERCENTAGE 1
guess              SAP
}

optimize('b3lyp')
--------------------------------------------------------------------------

Scratch directory: /tmp/
gradient() will perform analytic gradient computation.
   => Libint2 <=

    Primary   basis highest AM E, G, H:  6, 6, 3
    Auxiliary basis highest AM E, G, H:  7, 7, 4
    Onebody   basis highest AM E, G, H:  -, -, -
    Solid Harmonics ordering:            Gaussian

*** tstart() called on Joses-MacBook-Pro-2.local
*** at Thu Jul 17 13:19:56 2025

   => Loading Basis Set <=

    Name: CC-PVDZ
    Role: ORBITAL
    Keyword: BASIS
    atoms 1 entry BE         line    75 file /Users/joseantoniorodriguesromero/anaconda3/share/psi4/basis/cc-pvdz.gbs 
    atoms 2 entry NE         line   258 file /Users/joseantoniorodriguesromero/anaconda3/share/psi4/basis/cc-pvdz.gbs 


         ---------------------------------------------------------
                                   SCF
               by Justin Turney, Rob Parrish, Andy Simmonett
                          and Daniel G. A. Smith
                              UKS Reference
                        1 Threads,    500 MiB Core
         ---------------------------------------------------------

  ==> Geometry <==

    Molecular point group: c2v
    Full point group: C_inf_v

    Geometry (in Angstrom), charge = 1, multiplicity = 2:

       Center              X                  Y                   Z               Mass       
    ------------   -----------------  -----------------  -----------------  -----------------
         BE           0.000000000000     0.000000000000     0.827141521954     9.012183065000
         NE           0.000000000000     0.000000000000    -0.372858478046    19.992440176200

  Running in c2v symmetry.

  Rotational constants: A = ************  B =      1.88454  C =      1.88454 [cm^-1]
  Rotational constants: A = ************  B =  56497.09605  C =  56497.09605 [MHz]
  Nuclear repulsion =   17.639240355666669

  Charge       = 1
  Multiplicity = 2
  Electrons    = 13
  Nalpha       = 7
  Nbeta        = 6

  ==> Algorithm <==

  SCF Algorithm Type is DF.
  DIIS enabled.
  MOM disabled.
  Fractional occupation disabled.
  Guess Type is SAP.
  Energy threshold   = 1.00e-08
  Density threshold  = 1.00e-08
  Integral threshold = 1.00e-12

  ==> Primary Basis <==

  Basis Set: CC-PVDZ
    Blend: CC-PVDZ
    Number of shells: 12
    Number of basis functions: 28
    Number of Cartesian functions: 30
    Spherical Harmonics?: true
    Max angular momentum: 2

  ==> DFT Potential <==

   => LibXC <=

    Version 6.2.2
    S. Lehtola, C. Steigemann, M. J.T. Oliveira, and M. A.L. Marques.,  SoftwareX 7, 1–5 (2018) (10.1016/j.softx.2017.11.002)

   => Composite Functional: B3LYP <= 

    B3LYP Hyb-GGA Exchange-Correlation Functional

    P. J. Stephens, F. J. Devlin, C. F. Chabalowski, and M. J. Frisch.,  J. Phys. Chem. 98, 11623 (1994) (10.1021/j100096a001)

    Deriv               =              1
    GGA                 =           TRUE
    Meta                =          FALSE

    Exchange Hybrid     =           TRUE
    MP2 Hybrid          =          FALSE

   => Exchange Functionals <=

    0.0800   Slater exchange
    0.7200         Becke 88

   => Exact (HF) Exchange <=

    0.2000               HF 

   => Correlation Functionals <=

    0.1900   Vosko, Wilk & Nusair (VWN5_RPA)
    0.8100   Lee, Yang & Parr

   => LibXC Density Thresholds  <==

    XC_HYB_GGA_XC_B3LYP:  1.00E-15 

   => Molecular Quadrature <=

    Radial Scheme          =       TREUTLER
    Pruning Scheme         =           NONE
    Nuclear Scheme         =       TREUTLER

    Blocking Scheme        =         OCTREE
    BS radius alpha        =              1
    Pruning alpha          =              1
    Radial Points          =             75
    Spherical Points       =            302
    Total Points           =          43487
    Total Blocks           =            400
    Max Points             =            256
    Max Functions          =             28
    Weights Tolerance      =       1.00E-15

   => Loading Basis Set <=

    Name: (CC-PVDZ AUX)
    Role: JKFIT
    Keyword: DF_BASIS_SCF
    atoms 1 entry BE         line    96 file /Users/joseantoniorodriguesromero/anaconda3/share/psi4/basis/def2-universal-jkfit.gbs 
    atoms 2 entry NE         line   321 file /Users/joseantoniorodriguesromero/anaconda3/share/psi4/basis/cc-pvdz-jkfit.gbs 

  ==> Integral Setup <==

  DFHelper Memory: AOs need 0.001 GiB; user supplied 0.333 GiB. 
  Using in-core AOs.

  ==> MemDFJK: Density-Fitted J/K Matrices <==

    J tasked:                   Yes
    K tasked:                   Yes
    wK tasked:                   No
    OpenMP threads:               1
    Memory [MiB]:               340
    Algorithm:                 Core
    Schwarz Cutoff:           1E-12
    Mask sparsity (%):       0.0000
    Fitting Condition:        1E-10

   => Auxiliary Basis Set <=

  Basis Set: (CC-PVDZ AUX)
    Blend: CC-PVDZ-JKFIT + DEF2-UNIVERSAL-JKFIT
    Number of shells: 41
    Number of basis functions: 121
    Number of Cartesian functions: 141
    Spherical Harmonics?: true
    Max angular momentum: 3

  Cached 100.0% of DFT collocation blocks in 0.033 [GiB].

  Minimum eigenvalue in the overlap matrix is 9.4876494405E-03.
  Reciprocal condition number of the overlap matrix is 3.3342896167E-03.
    Using symmetric orthogonalization.

  ==> Pre-Iterations <==

  SCF Guess: Superposition of Atomic Potentials (doi:10.1021/acs.jctc.8b01089).

  ==> SAP guess <==

   => Molecular Quadrature <=

    Radial Scheme          =       TREUTLER
    Pruning Scheme         =           NONE
    Nuclear Scheme         =       TREUTLER

    Blocking Scheme        =         OCTREE
    BS radius alpha        =              1
    Pruning alpha          =              1
    Radial Points          =             75
    Spherical Points       =            302
    Total Points           =          43487
    Total Blocks           =            400
    Max Points             =            256
    Max Functions          =             28
    Weights Tolerance      =       1.00E-15

   -------------------------------------------------------
    Irrep   Nso     Nmo     Nalpha   Nbeta   Ndocc  Nsocc
   -------------------------------------------------------
     A1        14      14       5       4       4       1
     A2         2       2       0       0       0       0
     B1         6       6       1       1       1       0
     B2         6       6       1       1       1       0
   -------------------------------------------------------
    Total      28      28       7       6       6       1
   -------------------------------------------------------

  ==> Iterations <==

                           Total Energy        Delta E     RMS |[F,P]|

   @DF-UKS iter   1:  -143.13397499351942   -1.43134e+02   9.77270e-03 DIIS/ADIIS
   @DF-UKS iter   2:  -143.14335576065122   -9.38077e-03   4.97726e-03 DIIS/ADIIS/DAMP=1%
   @DF-UKS iter   3:  -143.14734293482709   -3.98717e-03   2.31036e-03 DIIS/ADIIS/DAMP=1%
   @DF-UKS iter   4:  -143.14406956459004    3.27337e-03   1.47407e-04 DIIS/ADIIS/DAMP=1%
   @DF-UKS iter   5:  -143.14506302820922   -9.93464e-04   1.13323e-05 DIIS/DAMP=1%
   @DF-UKS iter   6:  -143.14502817494065    3.48533e-05   1.12519e-06 DIIS/DAMP=1%
   @DF-UKS iter   7:  -143.14502705249984    1.12244e-06   1.67851e-07 DIIS/DAMP=1%
   @DF-UKS iter   8:  -143.14502748322150   -4.30722e-07   2.52905e-08 DIIS/DAMP=1%
   @DF-UKS iter   9:  -143.14502740659313    7.66284e-08   3.45905e-09 DIIS/DAMP=1%
   @DF-UKS iter  10:  -143.14502741778000   -1.11869e-08   2.11319e-10 DIIS/DAMP=1%
   @DF-UKS iter  11:  -143.14502741643327    1.34673e-09   1.81323e-11 DIIS/DAMP=1%
  Energy and wave function converged.


  ==> Post-Iterations <==

   Electrons on quadrature grid:
      Nalpha   =    7.0000054103 ; deviation = 5.410e-06
      Nbeta    =    6.0000054357 ; deviation = 5.436e-06
      Ntotal   =   13.0000108460 ; deviation = 1.085e-05 

   @Spin Contamination Metric:   7.920541368E-05
   @S^2 Expected:                7.500000000E-01
   @S^2 Observed:                7.500792054E-01
   @S   Expected:                5.000000000E-01
   @S   Observed:                5.000000000E-01

    Orbital Energies [Eh]
    ---------------------

    Alpha Occupied:                                                       

       1A1   -31.529499     2A1    -4.500882     3A1    -2.037646  
       4A1    -1.152376     1B2    -1.109069     1B1    -1.109069  
       5A1    -0.502241  

    Alpha Virtual:                                                        

       2B1    -0.312751     2B2    -0.312751     6A1    -0.204141  
       3B1    -0.050939     3B2    -0.050939     7A1    -0.027851  
       8A1     0.073868     9A1     0.163529     1A2     0.163529  
       4B2     0.242694     4B1     0.242694    10A1     0.453471  
      11A1     1.168546     5B2     1.201890     5B1     1.201890  
      12A1     2.777671    13A1     4.175948     2A2     4.176003  
       6B2     4.215905     6B1     4.215905    14A1     4.226225  

    Beta Occupied:                                                        

       1A1   -31.528855     2A1    -4.488068     3A1    -2.036136  
       4A1    -1.150809     1B2    -1.108382     1B1    -1.108382  

    Beta Virtual:                                                         

       5A1    -0.363366     2B1    -0.265968     2B2    -0.265968  
       6A1    -0.179561     3B1    -0.033926     3B2    -0.033926  
       7A1     0.009163     8A1     0.111672     9A1     0.208730  
       1A2     0.208745     4B2     0.299127     4B1     0.299127  
      10A1     0.488926    11A1     1.174329     5B2     1.208439  
       5B1     1.208439    12A1     2.783842    13A1     4.176199  
       2A2     4.176253     6B2     4.217120     6B1     4.217120  
      14A1     4.227665  

    Final Occupation by Irrep:
             A1    A2    B1    B2 
    DOCC [     4,    0,    1,    1 ]
    SOCC [     1,    0,    0,    0 ]
    NA   [     5,    0,    1,    1 ]
    NB   [     4,    0,    1,    1 ]

  @DF-UKS Final Energy:  -143.14502741643327

   => Energetics <=

    Nuclear Repulsion Energy =             17.6392403556666686
    One-Electron Energy =                -229.4420816929429066
    Two-Electron Energy =                  80.8789256337662579
    DFT Exchange-Correlation Energy =     -12.2211117129232818
    Empirical Dispersion Energy =           0.0000000000000000
    VV10 Nonlocal Energy =                  0.0000000000000000
    Total Energy =                       -143.1450274164332654

  UHF NO Occupations:
  HONO-2 :    1 B2 1.9999813
  HONO-1 :    1 B1 1.9999813
  HONO-0 :    5 A1 1.0000000
  LUNO+0 :    2 B1 0.0000187
  LUNO+1 :    2 B2 0.0000187
  LUNO+2 :    6 A1 0.0000020
  LUNO+3 :    7 A1 0.0000003


Computation Completed


Properties will be evaluated at   0.000000,   0.000000,   0.000000 [a0]

Properties computed using the SCF density matrix


 Multipole Moments:

 ------------------------------------------------------------------------------------
     Multipole            Electronic (a.u.)      Nuclear  (a.u.)        Total (a.u.)
 ------------------------------------------------------------------------------------

 L = 1.  Multiply by 2.5417464519 to convert [e a0] to [Debye]
 Dipole X            :          0.0000000            0.0000000            0.0000000
 Dipole Y            :          0.0000000            0.0000000            0.0000000
 Dipole Z            :          1.2192569           -0.7937203            0.4255366
 Magnitude           :                                                    0.4255366

 ------------------------------------------------------------------------------------

*** tstop() called on Joses-MacBook-Pro-2.local at Thu Jul 17 13:19:57 2025
Module time:
	user time   =       2.43 seconds =       0.04 minutes
	system time =       5.81 seconds =       0.10 minutes
	total time  =          1 seconds =       0.02 minutes
Total time:
	user time   =       2.43 seconds =       0.04 minutes
	system time =       5.81 seconds =       0.10 minutes
	total time  =          1 seconds =       0.02 minutes

*** tstart() called on Joses-MacBook-Pro-2.local
*** at Thu Jul 17 13:19:57 2025


         ------------------------------------------------------------
                                   SCF GRAD                          
                          Rob Parrish, Justin Turney,                
                       Andy Simmonett, and Alex Sokolov              
         ------------------------------------------------------------

  ==> Geometry <==

    Molecular point group: c2v
    Full point group: C_inf_v

    Geometry (in Angstrom), charge = 1, multiplicity = 2:

       Center              X                  Y                   Z               Mass       
    ------------   -----------------  -----------------  -----------------  -----------------
         BE           0.000000000000     0.000000000000     0.827141521954     9.012183065000
         NE           0.000000000000     0.000000000000    -0.372858478046    19.992440176200

  Nuclear repulsion =   17.639240355666669

  ==> Basis Set <==

  Basis Set: CC-PVDZ
    Blend: CC-PVDZ
    Number of shells: 12
    Number of basis functions: 28
    Number of Cartesian functions: 30
    Spherical Harmonics?: true
    Max angular momentum: 2

  ==> DFJKGrad: Density-Fitted SCF Gradients <==

    Gradient:                    1
    J tasked:                  Yes
    K tasked:                  Yes
    wK tasked:                  No
    OpenMP threads:              1
    Integrals threads:           1
    Memory [MiB]:              375
    Schwarz Cutoff:          1E-12
    Fitting Condition:       1E-10

   => Auxiliary Basis Set <=

  Basis Set: (CC-PVDZ AUX)
    Blend: CC-PVDZ-JKFIT + DEF2-UNIVERSAL-JKFIT
    Number of shells: 41
    Number of basis functions: 121
    Number of Cartesian functions: 141
    Spherical Harmonics?: true
    Max angular momentum: 3

  ==> DFT Potential <==

   => LibXC <=

    Version 6.2.2
    S. Lehtola, C. Steigemann, M. J.T. Oliveira, and M. A.L. Marques.,  SoftwareX 7, 1–5 (2018) (10.1016/j.softx.2017.11.002)

   => Composite Functional: B3LYP <= 

    B3LYP Hyb-GGA Exchange-Correlation Functional

    P. J. Stephens, F. J. Devlin, C. F. Chabalowski, and M. J. Frisch.,  J. Phys. Chem. 98, 11623 (1994) (10.1021/j100096a001)

    Deriv               =              1
    GGA                 =           TRUE
    Meta                =          FALSE

    Exchange Hybrid     =           TRUE
    MP2 Hybrid          =          FALSE

   => Exchange Functionals <=

    0.0800   Slater exchange
    0.7200         Becke 88

   => Exact (HF) Exchange <=

    0.2000               HF 

   => Correlation Functionals <=

    0.1900   Vosko, Wilk & Nusair (VWN5_RPA)
    0.8100   Lee, Yang & Parr

   => LibXC Density Thresholds  <==

    XC_HYB_GGA_XC_B3LYP:  1.00E-15 

   => Molecular Quadrature <=

    Radial Scheme          =       TREUTLER
    Pruning Scheme         =           NONE
    Nuclear Scheme         =       TREUTLER

    Blocking Scheme        =         OCTREE
    BS radius alpha        =              1
    Pruning alpha          =              1
    Radial Points          =             75
    Spherical Points       =            302
    Total Points           =          43487
    Total Blocks           =            400
    Max Points             =            256
    Max Functions          =             28
    Weights Tolerance      =       1.00E-15


  -Total Gradient:
     Atom            X                  Y                   Z
    ------   -----------------  -----------------  -----------------
       1        0.000000000000    -0.000000000000    -0.345316005740
       2       -0.000000000000     0.000000000000     0.345431613556


*** tstop() called on Joses-MacBook-Pro-2.local at Thu Jul 17 13:19:57 2025
Module time:
	user time   =       0.49 seconds =       0.01 minutes
	system time =       1.36 seconds =       0.02 minutes
	total time  =          0 seconds =       0.00 minutes
Total time:
	user time   =       2.93 seconds =       0.05 minutes
	system time =       7.17 seconds =       0.12 minutes
	total time  =          1 seconds =       0.02 minutes

    			-----------------------------------------

    			 OPTKING 3.0: for geometry optimizations 

    			     By R.A. King, Bethel University     

    			        with contributions from          

    			    A.V. Copan, J. Cayton, A. Heide      

    			-----------------------------------------

    
	                            ===> Fragment 1 <== 

	 Z (Atomic Numbers)          Masses                          Geom                  
	       4.000000             9.012183          0.00000000  0.00000000  1.56307094   
	      10.000000            19.992440          0.00000000  0.00000000 -0.70460041   

	 - Coordinate -           - BOHR/RAD -       - ANG/DEG -
	 R(1,2)           =         2.267671           1.200000


	        --- Internal Coordinate Step in ANG or DEG, aJ/ANG or AJ/DEG ---
	-------------------------------------------------------------------------------
	           Coordinate      Previous         Force          Change          New 
	           ----------      --------        ------          ------        ------
	               R(1,2)       1.20000        2.84544        0.15868       1.35868
	-------------------------------------------------------------------------------

	                                 ==> Convergence Check <==                                  
    
	Measures of convergence in internal coordinates in au.
    
	Criteria marked as inactive (o), active & met (*), and active & unmet ( ).

	----------------------------------------------------------------------------------------------
	   Step    Total Energy     Delta E     Max Force     RMS Force      Max Disp      RMS Disp   
	----------------------------------------------------------------------------------------------
	  Convergence Criteria     1.00e-06 *    3.00e-04 *             o    1.20e-03 *             o
	----------------------------------------------------------------------------------------------
	     1    -143.14502742   -1.43e+02      3.45e-01      3.45e-01 o    3.00e-01      3.00e-01 o  ~
	----------------------------------------------------------------------------------------------

Next Geometry in Ang 
	Fragment 1 (Ang)

	   Be   0.0000000000   0.0000000000   0.9064803702
	   Ne   0.0000000000   0.0000000000  -0.4521973263


    Structure for next step:
    Molecular point group: c2v
    Full point group: C_inf_v

    Geometry (in Angstrom), charge = 1, multiplicity = 2:

    BE           0.000000000000     0.000000000000     0.936515614766
    NE           0.000000000000     0.000000000000    -0.422162081723


Scratch directory: /tmp/
gradient() will perform analytic gradient computation.
   => Libint2 <=

    Primary   basis highest AM E, G, H:  6, 6, 3
    Auxiliary basis highest AM E, G, H:  7, 7, 4
    Onebody   basis highest AM E, G, H:  -, -, -
    Solid Harmonics ordering:            Gaussian

*** tstart() called on Joses-MacBook-Pro-2.local
*** at Thu Jul 17 13:19:57 2025

   => Loading Basis Set <=

    Name: CC-PVDZ
    Role: ORBITAL
    Keyword: BASIS
    atoms 1 entry BE         line    75 file /Users/joseantoniorodriguesromero/anaconda3/share/psi4/basis/cc-pvdz.gbs 
    atoms 2 entry NE         line   258 file /Users/joseantoniorodriguesromero/anaconda3/share/psi4/basis/cc-pvdz.gbs 


         ---------------------------------------------------------
                                   SCF
               by Justin Turney, Rob Parrish, Andy Simmonett
                          and Daniel G. A. Smith
                              UKS Reference
                        1 Threads,    500 MiB Core
         ---------------------------------------------------------

  ==> Geometry <==

    Molecular point group: c2v
    Full point group: C_inf_v

    Geometry (in Angstrom), charge = 1, multiplicity = 2:

       Center              X                  Y                   Z               Mass       
    ------------   -----------------  -----------------  -----------------  -----------------
         BE           0.000000000000     0.000000000000     0.936515614766     9.012183065000
         NE           0.000000000000     0.000000000000    -0.422162081723    19.992440176200

  Running in c2v symmetry.

  Rotational constants: A = ************  B =      1.47006  C =      1.47006 [cm^-1]
  Rotational constants: A = ************  B =  44071.28618  C =  44071.28618 [MHz]
  Nuclear repulsion =   15.579182967017243

  Charge       = 1
  Multiplicity = 2
  Electrons    = 13
  Nalpha       = 7
  Nbeta        = 6

  ==> Algorithm <==

  SCF Algorithm Type is DF.
  DIIS enabled.
  MOM disabled.
  Fractional occupation disabled.
  Guess Type is READ.
  Energy threshold   = 1.00e-08
  Density threshold  = 1.00e-08
  Integral threshold = 1.00e-12

  ==> Primary Basis <==

  Basis Set: CC-PVDZ
    Blend: CC-PVDZ
    Number of shells: 12
    Number of basis functions: 28
    Number of Cartesian functions: 30
    Spherical Harmonics?: true
    Max angular momentum: 2

  ==> DFT Potential <==

   => LibXC <=

    Version 6.2.2
    S. Lehtola, C. Steigemann, M. J.T. Oliveira, and M. A.L. Marques.,  SoftwareX 7, 1–5 (2018) (10.1016/j.softx.2017.11.002)

   => Composite Functional: B3LYP <= 

    B3LYP Hyb-GGA Exchange-Correlation Functional

    P. J. Stephens, F. J. Devlin, C. F. Chabalowski, and M. J. Frisch.,  J. Phys. Chem. 98, 11623 (1994) (10.1021/j100096a001)

    Deriv               =              1
    GGA                 =           TRUE
    Meta                =          FALSE

    Exchange Hybrid     =           TRUE
    MP2 Hybrid          =          FALSE

   => Exchange Functionals <=

    0.0800   Slater exchange
    0.7200         Becke 88

   => Exact (HF) Exchange <=

    0.2000               HF 

   => Correlation Functionals <=

    0.1900   Vosko, Wilk & Nusair (VWN5_RPA)
    0.8100   Lee, Yang & Parr

   => LibXC Density Thresholds  <==

    XC_HYB_GGA_XC_B3LYP:  1.00E-15 

   => Molecular Quadrature <=

    Radial Scheme          =       TREUTLER
    Pruning Scheme         =           NONE
    Nuclear Scheme         =       TREUTLER

    Blocking Scheme        =         OCTREE
    BS radius alpha        =              1
    Pruning alpha          =              1
    Radial Points          =             75
    Spherical Points       =            302
    Total Points           =          43515
    Total Blocks           =            406
    Max Points             =            254
    Max Functions          =             28
    Weights Tolerance      =       1.00E-15

   => Loading Basis Set <=

    Name: (CC-PVDZ AUX)
    Role: JKFIT
    Keyword: DF_BASIS_SCF
    atoms 1 entry BE         line    96 file /Users/joseantoniorodriguesromero/anaconda3/share/psi4/basis/def2-universal-jkfit.gbs 
    atoms 2 entry NE         line   321 file /Users/joseantoniorodriguesromero/anaconda3/share/psi4/basis/cc-pvdz-jkfit.gbs 

   => Loading Basis Set <=

    Name: CC-PVDZ
    Role: ORBITAL
    Keyword: BASIS
    atoms 1 entry BE         line    75 file /Users/joseantoniorodriguesromero/anaconda3/share/psi4/basis/cc-pvdz.gbs 
    atoms 2 entry NE         line   258 file /Users/joseantoniorodriguesromero/anaconda3/share/psi4/basis/cc-pvdz.gbs 

  Reading orbitals from file /tmp/doublet_BeNe.default.74131.180.npy, no projection.

  ==> Integral Setup <==

  DFHelper Memory: AOs need 0.001 GiB; user supplied 0.333 GiB. 
  Using in-core AOs.

  ==> MemDFJK: Density-Fitted J/K Matrices <==

    J tasked:                   Yes
    K tasked:                   Yes
    wK tasked:                   No
    OpenMP threads:               1
    Memory [MiB]:               340
    Algorithm:                 Core
    Schwarz Cutoff:           1E-12
    Mask sparsity (%):       0.0000
    Fitting Condition:        1E-10

   => Auxiliary Basis Set <=

  Basis Set: (CC-PVDZ AUX)
    Blend: CC-PVDZ-JKFIT + DEF2-UNIVERSAL-JKFIT
    Number of shells: 41
    Number of basis functions: 121
    Number of Cartesian functions: 141
    Spherical Harmonics?: true
    Max angular momentum: 3

  Cached 100.0% of DFT collocation blocks in 0.033 [GiB].

  Minimum eigenvalue in the overlap matrix is 1.4715537477E-02.
  Reciprocal condition number of the overlap matrix is 5.2393564008E-03.
    Using symmetric orthogonalization.

  ==> Pre-Iterations <==

  SCF Guess: Orbitals guess was supplied from a previous computation.

   -------------------------------------------------------
    Irrep   Nso     Nmo     Nalpha   Nbeta   Ndocc  Nsocc
   -------------------------------------------------------
     A1        14      14       5       4       4       1
     A2         2       2       0       0       0       0
     B1         6       6       1       1       1       0
     B2         6       6       1       1       1       0
   -------------------------------------------------------
    Total      28      28       7       6       6       1
   -------------------------------------------------------

  ==> Iterations <==

                           Total Energy        Delta E     RMS |[F,P]|

   @DF-UKS iter   0:  -143.20809925080243   -1.43208e+02   1.45700e-02 
   @DF-UKS iter   1:  -143.21442853420291   -6.32928e-03   1.72733e-03 DIIS/ADIIS
   @DF-UKS iter   2:  -143.21442074113949    7.79306e-06   1.74935e-03 DIIS/ADIIS/DAMP=1%
   @DF-UKS iter   3:  -143.21534549133642   -9.24750e-04   8.17147e-05 DIIS/DAMP=1%
   @DF-UKS iter   4:  -143.21459600870011    7.49483e-04   1.39788e-05 DIIS/DAMP=1%
   @DF-UKS iter   5:  -143.21463390439857   -3.78957e-05   1.31208e-06 DIIS/DAMP=1%
   @DF-UKS iter   6:  -143.21463004932764    3.85507e-06   1.69104e-07 DIIS/DAMP=1%
   @DF-UKS iter   7:  -143.21462945262454    5.96703e-07   1.45097e-08 DIIS/DAMP=1%
   @DF-UKS iter   8:  -143.21462951763124   -6.50067e-08   1.13886e-09 DIIS/DAMP=1%
   @DF-UKS iter   9:  -143.21462951250942    5.12182e-09   1.39668e-10 DIIS/DAMP=1%
  Energy and wave function converged.


  ==> Post-Iterations <==

   Electrons on quadrature grid:
      Nalpha   =    7.0000019997 ; deviation = 2.000e-06
      Nbeta    =    6.0000020408 ; deviation = 2.041e-06
      Ntotal   =   13.0000040405 ; deviation = 4.040e-06 

   @Spin Contamination Metric:   6.005363291E-05
   @S^2 Expected:                7.500000000E-01
   @S^2 Observed:                7.500600536E-01
   @S   Expected:                5.000000000E-01
   @S   Observed:                5.000000000E-01

    Orbital Energies [Eh]
    ---------------------

    Alpha Occupied:                                                       

       1A1   -31.488007     2A1    -4.490066     3A1    -1.972203  
       4A1    -1.098034     1B2    -1.051545     1B1    -1.051545  
       5A1    -0.503160  

    Alpha Virtual:                                                        

       2B2    -0.321127     2B1    -0.321127     6A1    -0.213504  
       3B2    -0.048161     3B1    -0.048161     7A1    -0.027169  
       8A1     0.024447     1A2     0.171476     9A1     0.171476  
       4B1     0.226506     4B2     0.226506    10A1     0.389898  
       5B2     1.172557     5B1     1.172557    11A1     1.187029  
      12A1     2.568009     2A2     4.224675    13A1     4.224698  
       6B2     4.259648     6B1     4.259648    14A1     4.300543  

    Beta Occupied:                                                        

       1A1   -31.487123     2A1    -4.476696     3A1    -1.970315  
       4A1    -1.095573     1B2    -1.050751     1B1    -1.050751  

    Beta Virtual:                                                         

       5A1    -0.365143     2B2    -0.272620     2B1    -0.272620  
       6A1    -0.182917     3B2    -0.032542     3B1    -0.032542  
       7A1     0.009542     8A1     0.049884     9A1     0.220939  
       1A2     0.220944     4B1     0.284926     4B2     0.284926  
      10A1     0.436357     5B2     1.178865     5B1     1.178865  
      11A1     1.191214    12A1     2.574043     2A2     4.225087  
      13A1     4.225111     6B2     4.261292     6B1     4.261292  
      14A1     4.302329  

    Final Occupation by Irrep:
             A1    A2    B1    B2 
    DOCC [     4,    0,    1,    1 ]
    SOCC [     1,    0,    0,    0 ]
    NA   [     5,    0,    1,    1 ]
    NB   [     4,    0,    1,    1 ]

  @DF-UKS Final Energy:  -143.21462951250942

   => Energetics <=

    Nuclear Repulsion Energy =             15.5791829670172426
    One-Electron Energy =                -226.0647316425530278
    Two-Electron Energy =                  79.4518546885532118
    DFT Exchange-Correlation Energy =     -12.1809355255268255
    Empirical Dispersion Energy =           0.0000000000000000
    VV10 Nonlocal Energy =                  0.0000000000000000
    Total Energy =                       -143.2146295125094184

  UHF NO Occupations:
  HONO-2 :    1 B2 1.9999865
  HONO-1 :    1 B1 1.9999865
  HONO-0 :    5 A1 1.0000000
  LUNO+0 :    2 B2 0.0000135
  LUNO+1 :    2 B1 0.0000135
  LUNO+2 :    6 A1 0.0000026
  LUNO+3 :    7 A1 0.0000004


Computation Completed


Properties will be evaluated at   0.000000,   0.000000,   0.000000 [a0]

Properties computed using the SCF density matrix


 Multipole Moments:

 ------------------------------------------------------------------------------------
     Multipole            Electronic (a.u.)      Nuclear  (a.u.)        Total (a.u.)
 ------------------------------------------------------------------------------------

 L = 1.  Multiply by 2.5417464519 to convert [e a0] to [Debye]
 Dipole X            :          0.0000000            0.0000000            0.0000000
 Dipole Y            :          0.0000000            0.0000000            0.0000000
 Dipole Z            :          1.5558445           -0.8986751            0.6571694
 Magnitude           :                                                    0.6571694

 ------------------------------------------------------------------------------------

*** tstop() called on Joses-MacBook-Pro-2.local at Thu Jul 17 13:19:57 2025
Module time:
	user time   =       2.66 seconds =       0.04 minutes
	system time =       3.76 seconds =       0.06 minutes
	total time  =          0 seconds =       0.00 minutes
Total time:
	user time   =       5.64 seconds =       0.09 minutes
	system time =      11.20 seconds =       0.19 minutes
	total time  =          1 seconds =       0.02 minutes

*** tstart() called on Joses-MacBook-Pro-2.local
*** at Thu Jul 17 13:19:57 2025


         ------------------------------------------------------------
                                   SCF GRAD                          
                          Rob Parrish, Justin Turney,                
                       Andy Simmonett, and Alex Sokolov              
         ------------------------------------------------------------

  ==> Geometry <==

    Molecular point group: c2v
    Full point group: C_inf_v

    Geometry (in Angstrom), charge = 1, multiplicity = 2:

       Center              X                  Y                   Z               Mass       
    ------------   -----------------  -----------------  -----------------  -----------------
         BE           0.000000000000     0.000000000000     0.936515614766     9.012183065000
         NE           0.000000000000     0.000000000000    -0.422162081723    19.992440176200

  Nuclear repulsion =   15.579182967017243

  ==> Basis Set <==

  Basis Set: CC-PVDZ
    Blend: CC-PVDZ
    Number of shells: 12
    Number of basis functions: 28
    Number of Cartesian functions: 30
    Spherical Harmonics?: true
    Max angular momentum: 2

  ==> DFJKGrad: Density-Fitted SCF Gradients <==

    Gradient:                    1
    J tasked:                  Yes
    K tasked:                  Yes
    wK tasked:                  No
    OpenMP threads:              1
    Integrals threads:           1
    Memory [MiB]:              375
    Schwarz Cutoff:          1E-12
    Fitting Condition:       1E-10

   => Auxiliary Basis Set <=

  Basis Set: (CC-PVDZ AUX)
    Blend: CC-PVDZ-JKFIT + DEF2-UNIVERSAL-JKFIT
    Number of shells: 41
    Number of basis functions: 121
    Number of Cartesian functions: 141
    Spherical Harmonics?: true
    Max angular momentum: 3

  ==> DFT Potential <==

   => LibXC <=

    Version 6.2.2
    S. Lehtola, C. Steigemann, M. J.T. Oliveira, and M. A.L. Marques.,  SoftwareX 7, 1–5 (2018) (10.1016/j.softx.2017.11.002)

   => Composite Functional: B3LYP <= 

    B3LYP Hyb-GGA Exchange-Correlation Functional

    P. J. Stephens, F. J. Devlin, C. F. Chabalowski, and M. J. Frisch.,  J. Phys. Chem. 98, 11623 (1994) (10.1021/j100096a001)

    Deriv               =              1
    GGA                 =           TRUE
    Meta                =          FALSE

    Exchange Hybrid     =           TRUE
    MP2 Hybrid          =          FALSE

   => Exchange Functionals <=

    0.0800   Slater exchange
    0.7200         Becke 88

   => Exact (HF) Exchange <=

    0.2000               HF 

   => Correlation Functionals <=

    0.1900   Vosko, Wilk & Nusair (VWN5_RPA)
    0.8100   Lee, Yang & Parr

   => LibXC Density Thresholds  <==

    XC_HYB_GGA_XC_B3LYP:  1.00E-15 

   => Molecular Quadrature <=

    Radial Scheme          =       TREUTLER
    Pruning Scheme         =           NONE
    Nuclear Scheme         =       TREUTLER

    Blocking Scheme        =         OCTREE
    BS radius alpha        =              1
    Pruning alpha          =              1
    Radial Points          =             75
    Spherical Points       =            302
    Total Points           =          43515
    Total Blocks           =            406
    Max Points             =            254
    Max Functions          =             28
    Weights Tolerance      =       1.00E-15


  -Total Gradient:
     Atom            X                  Y                   Z
    ------   -----------------  -----------------  -----------------
       1        0.000000000000    -0.000000000000    -0.146265983568
       2       -0.000000000000     0.000000000000     0.146367164495


*** tstop() called on Joses-MacBook-Pro-2.local at Thu Jul 17 13:19:58 2025
Module time:
	user time   =       0.46 seconds =       0.01 minutes
	system time =       0.93 seconds =       0.02 minutes
	total time  =          1 seconds =       0.02 minutes
Total time:
	user time   =       6.10 seconds =       0.10 minutes
	system time =      12.15 seconds =       0.20 minutes
	total time  =          2 seconds =       0.03 minutes

    			-----------------------------------------

    			 OPTKING 3.0: for geometry optimizations 

    			     By R.A. King, Bethel University     

    			        with contributions from          

    			    A.V. Copan, J. Cayton, A. Heide      

    			-----------------------------------------

    
	                            ===> Fragment 1 <== 

	 Z (Atomic Numbers)          Masses                          Geom                  
	       4.000000             9.012183          0.00000000  0.00000000  1.76975802   
	      10.000000            19.992440          0.00000000  0.00000000 -0.79777072   

	 - Coordinate -           - BOHR/RAD -       - ANG/DEG -
	 R(1,2)           =         2.567529           1.358678


	        --- Internal Coordinate Step in ANG or DEG, aJ/ANG or AJ/DEG ---
	-------------------------------------------------------------------------------
	           Coordinate      Previous         Force          Change          New 
	           ----------      --------        ------          ------        ------
	               R(1,2)       1.35868        1.20546        0.11146       1.47014
	-------------------------------------------------------------------------------

	                                 ==> Convergence Check <==                                  
    
	Measures of convergence in internal coordinates in au.
    
	Criteria marked as inactive (o), active & met (*), and active & unmet ( ).

	----------------------------------------------------------------------------------------------
	   Step    Total Energy     Delta E     Max Force     RMS Force      Max Disp      RMS Disp   
	----------------------------------------------------------------------------------------------
	  Convergence Criteria     1.00e-06 *    3.00e-04 *             o    1.20e-03 *             o
	----------------------------------------------------------------------------------------------
	     2    -143.21462951   -6.96e-02      1.46e-01      1.46e-01 o    2.11e-01      2.11e-01 o  ~
	----------------------------------------------------------------------------------------------

Next Geometry in Ang 
	Fragment 1 (Ang)

	   Be   0.0000000000   0.0000000000   0.9922461629
	   Ne   0.0000000000   0.0000000000  -0.4778926298


    Structure for next step:
    Molecular point group: c2v
    Full point group: C_inf_v

    Geometry (in Angstrom), charge = 1, multiplicity = 2:

    BE           0.000000000000     0.000000000000     1.013344032081
    NE           0.000000000000     0.000000000000    -0.456794760642


Scratch directory: /tmp/
gradient() will perform analytic gradient computation.
   => Libint2 <=

    Primary   basis highest AM E, G, H:  6, 6, 3
    Auxiliary basis highest AM E, G, H:  7, 7, 4
    Onebody   basis highest AM E, G, H:  -, -, -
    Solid Harmonics ordering:            Gaussian

*** tstart() called on Joses-MacBook-Pro-2.local
*** at Thu Jul 17 13:19:58 2025

   => Loading Basis Set <=

    Name: CC-PVDZ
    Role: ORBITAL
    Keyword: BASIS
    atoms 1 entry BE         line    75 file /Users/joseantoniorodriguesromero/anaconda3/share/psi4/basis/cc-pvdz.gbs 
    atoms 2 entry NE         line   258 file /Users/joseantoniorodriguesromero/anaconda3/share/psi4/basis/cc-pvdz.gbs 


         ---------------------------------------------------------
                                   SCF
               by Justin Turney, Rob Parrish, Andy Simmonett
                          and Daniel G. A. Smith
                              UKS Reference
                        1 Threads,    500 MiB Core
         ---------------------------------------------------------

  ==> Geometry <==

    Molecular point group: c2v
    Full point group: C_inf_v

    Geometry (in Angstrom), charge = 1, multiplicity = 2:

       Center              X                  Y                   Z               Mass       
    ------------   -----------------  -----------------  -----------------  -----------------
         BE           0.000000000000     0.000000000000     1.013344032081     9.012183065000
         NE           0.000000000000     0.000000000000    -0.456794760642    19.992440176200

  Running in c2v symmetry.

  Rotational constants: A = ************  B =      1.25560  C =      1.25560 [cm^-1]
  Rotational constants: A = ************  B =  37641.93520  C =  37641.93520 [MHz]
  Nuclear repulsion =   14.398020466887731

  Charge       = 1
  Multiplicity = 2
  Electrons    = 13
  Nalpha       = 7
  Nbeta        = 6

  ==> Algorithm <==

  SCF Algorithm Type is DF.
  DIIS enabled.
  MOM disabled.
  Fractional occupation disabled.
  Guess Type is READ.
  Energy threshold   = 1.00e-08
  Density threshold  = 1.00e-08
  Integral threshold = 1.00e-12

  ==> Primary Basis <==

  Basis Set: CC-PVDZ
    Blend: CC-PVDZ
    Number of shells: 12
    Number of basis functions: 28
    Number of Cartesian functions: 30
    Spherical Harmonics?: true
    Max angular momentum: 2

  ==> DFT Potential <==

   => LibXC <=

    Version 6.2.2
    S. Lehtola, C. Steigemann, M. J.T. Oliveira, and M. A.L. Marques.,  SoftwareX 7, 1–5 (2018) (10.1016/j.softx.2017.11.002)

   => Composite Functional: B3LYP <= 

    B3LYP Hyb-GGA Exchange-Correlation Functional

    P. J. Stephens, F. J. Devlin, C. F. Chabalowski, and M. J. Frisch.,  J. Phys. Chem. 98, 11623 (1994) (10.1021/j100096a001)

    Deriv               =              1
    GGA                 =           TRUE
    Meta                =          FALSE

    Exchange Hybrid     =           TRUE
    MP2 Hybrid          =          FALSE

   => Exchange Functionals <=

    0.0800   Slater exchange
    0.7200         Becke 88

   => Exact (HF) Exchange <=

    0.2000               HF 

   => Correlation Functionals <=

    0.1900   Vosko, Wilk & Nusair (VWN5_RPA)
    0.8100   Lee, Yang & Parr

   => LibXC Density Thresholds  <==

    XC_HYB_GGA_XC_B3LYP:  1.00E-15 

   => Molecular Quadrature <=

    Radial Scheme          =       TREUTLER
    Pruning Scheme         =           NONE
    Nuclear Scheme         =       TREUTLER

    Blocking Scheme        =         OCTREE
    BS radius alpha        =              1
    Pruning alpha          =              1
    Radial Points          =             75
    Spherical Points       =            302
    Total Points           =          43529
    Total Blocks           =            402
    Max Points             =            254
    Max Functions          =             28
    Weights Tolerance      =       1.00E-15

   => Loading Basis Set <=

    Name: (CC-PVDZ AUX)
    Role: JKFIT
    Keyword: DF_BASIS_SCF
    atoms 1 entry BE         line    96 file /Users/joseantoniorodriguesromero/anaconda3/share/psi4/basis/def2-universal-jkfit.gbs 
    atoms 2 entry NE         line   321 file /Users/joseantoniorodriguesromero/anaconda3/share/psi4/basis/cc-pvdz-jkfit.gbs 

   => Loading Basis Set <=

    Name: CC-PVDZ
    Role: ORBITAL
    Keyword: BASIS
    atoms 1 entry BE         line    75 file /Users/joseantoniorodriguesromero/anaconda3/share/psi4/basis/cc-pvdz.gbs 
    atoms 2 entry NE         line   258 file /Users/joseantoniorodriguesromero/anaconda3/share/psi4/basis/cc-pvdz.gbs 

  Reading orbitals from file /tmp/doublet_BeNe.default.74131.180.npy, no projection.

  ==> Integral Setup <==

  DFHelper Memory: AOs need 0.001 GiB; user supplied 0.333 GiB. 
  Using in-core AOs.

  ==> MemDFJK: Density-Fitted J/K Matrices <==

    J tasked:                   Yes
    K tasked:                   Yes
    wK tasked:                   No
    OpenMP threads:               1
    Memory [MiB]:               340
    Algorithm:                 Core
    Schwarz Cutoff:           1E-12
    Mask sparsity (%):       0.0000
    Fitting Condition:        1E-10

   => Auxiliary Basis Set <=

  Basis Set: (CC-PVDZ AUX)
    Blend: CC-PVDZ-JKFIT + DEF2-UNIVERSAL-JKFIT
    Number of shells: 41
    Number of basis functions: 121
    Number of Cartesian functions: 141
    Spherical Harmonics?: true
    Max angular momentum: 3

  Cached 100.0% of DFT collocation blocks in 0.033 [GiB].

  Minimum eigenvalue in the overlap matrix is 2.0260574459E-02.
  Reciprocal condition number of the overlap matrix is 7.3046549469E-03.
    Using symmetric orthogonalization.

  ==> Pre-Iterations <==

  SCF Guess: Orbitals guess was supplied from a previous computation.

   -------------------------------------------------------
    Irrep   Nso     Nmo     Nalpha   Nbeta   Ndocc  Nsocc
   -------------------------------------------------------
     A1        14      14       5       4       4       1
     A2         2       2       0       0       0       0
     B1         6       6       1       1       1       0
     B2         6       6       1       1       1       0
   -------------------------------------------------------
    Total      28      28       7       6       6       1
   -------------------------------------------------------

  ==> Iterations <==

                           Total Energy        Delta E     RMS |[F,P]|

   @DF-UKS iter   0:  -143.21412018280301   -1.43214e+02   8.54137e-03 
   @DF-UKS iter   1:  -143.23751718561277   -2.33970e-02   5.46785e-04 DIIS/ADIIS
   @DF-UKS iter   2:  -143.23753000874504   -1.28231e-05   4.54939e-04 DIIS/ADIIS/DAMP=1%
   @DF-UKS iter   3:  -143.23733191485377    1.98094e-04   8.82344e-05 DIIS/DAMP=1%
   @DF-UKS iter   4:  -143.23757870454753   -2.46790e-04   8.49607e-06 DIIS/DAMP=1%
   @DF-UKS iter   5:  -143.23754131115223    3.73934e-05   8.32609e-07 DIIS/DAMP=1%
   @DF-UKS iter   6:  -143.23754477915838   -3.46801e-06   5.35941e-08 DIIS/DAMP=1%
   @DF-UKS iter   7:  -143.23754445391808    3.25240e-07   4.74015e-09 DIIS/DAMP=1%
   @DF-UKS iter   8:  -143.23754446897470   -1.50566e-08   6.31028e-10 DIIS/DAMP=1%
   @DF-UKS iter   9:  -143.23754446748185    1.49285e-09   5.23503e-11 DIIS/DAMP=1%
  Energy and wave function converged.


  ==> Post-Iterations <==

   Electrons on quadrature grid:
      Nalpha   =    6.9999928160 ; deviation = -7.184e-06
      Nbeta    =    5.9999928557 ; deviation = -7.144e-06
      Ntotal   =   12.9999856717 ; deviation = -1.433e-05 

   @Spin Contamination Metric:   5.573961883E-05
   @S^2 Expected:                7.500000000E-01
   @S^2 Observed:                7.500557396E-01
   @S   Expected:                5.000000000E-01
   @S   Observed:                5.000000000E-01

    Orbital Energies [Eh]
    ---------------------

    Alpha Occupied:                                                       

       1A1   -31.455817     2A1    -4.487182     3A1    -1.929069  
       4A1    -1.058588     1B1    -1.013927     1B2    -1.013927  
       5A1    -0.505720  

    Alpha Virtual:                                                        

       2B2    -0.325172     2B1    -0.325172     6A1    -0.224494  
       3B2    -0.046045     3B1    -0.046045     7A1    -0.027840  
       8A1    -0.005443     1A2     0.175672     9A1     0.175674  
       4B2     0.216145     4B1     0.216145    10A1     0.355813  
       5B1     1.160001     5B2     1.160001    11A1     1.206756  
      12A1     2.407559     2A2     4.258112    13A1     4.258234  
       6B2     4.287498     6B1     4.287498    14A1     4.324044  

    Beta Occupied:                                                        

       1A1   -31.454768     2A1    -4.473355     3A1    -1.926877  
       4A1    -1.055284     1B2    -1.013023     1B1    -1.013023  

    Beta Virtual:                                                         

       5A1    -0.368881     2B2    -0.274853     2B1    -0.274853  
       6A1    -0.188996     3B2    -0.031024     3B1    -0.031024  
       7A1     0.003611     8A1     0.016790     1A2     0.228455  
       9A1     0.228490     4B2     0.274953     4B1     0.274953  
      10A1     0.407755     5B1     1.166051     5B2     1.166051  
      11A1     1.210340    12A1     2.413641     2A2     4.258624  
      13A1     4.258746     6B2     4.289480     6B1     4.289480  
      14A1     4.326166  

    Final Occupation by Irrep:
             A1    A2    B1    B2 
    DOCC [     4,    0,    1,    1 ]
    SOCC [     1,    0,    0,    0 ]
    NA   [     5,    0,    1,    1 ]
    NB   [     4,    0,    1,    1 ]

  @DF-UKS Final Energy:  -143.23754446748185

   => Energetics <=

    Nuclear Repulsion Energy =             14.3980204668877310
    One-Electron Energy =                -224.1448781689106227
    Two-Electron Energy =                  78.6739402366614513
    DFT Exchange-Correlation Energy =     -12.1646270021203939
    Empirical Dispersion Energy =           0.0000000000000000
    VV10 Nonlocal Energy =                  0.0000000000000000
    Total Energy =                       -143.2375444674818254

  UHF NO Occupations:
  HONO-2 :    1 B1 1.9999885
  HONO-1 :    1 B2 1.9999885
  HONO-0 :    5 A1 1.0000000
  LUNO+0 :    2 B2 0.0000115
  LUNO+1 :    2 B1 0.0000115
  LUNO+2 :    6 A1 0.0000044
  LUNO+3 :    7 A1 0.0000004


Computation Completed


Properties will be evaluated at   0.000000,   0.000000,   0.000000 [a0]

Properties computed using the SCF density matrix


 Multipole Moments:

 ------------------------------------------------------------------------------------
     Multipole            Electronic (a.u.)      Nuclear  (a.u.)        Total (a.u.)
 ------------------------------------------------------------------------------------

 L = 1.  Multiply by 2.5417464519 to convert [e a0] to [Debye]
 Dipole X            :          0.0000000            0.0000000            0.0000000
 Dipole Y            :          0.0000000            0.0000000            0.0000000
 Dipole Z            :          1.8153865           -0.9723992            0.8429873
 Magnitude           :                                                    0.8429873

 ------------------------------------------------------------------------------------

*** tstop() called on Joses-MacBook-Pro-2.local at Thu Jul 17 13:19:58 2025
Module time:
	user time   =       2.32 seconds =       0.04 minutes
	system time =       4.28 seconds =       0.07 minutes
	total time  =          0 seconds =       0.00 minutes
Total time:
	user time   =       8.46 seconds =       0.14 minutes
	system time =      16.68 seconds =       0.28 minutes
	total time  =          2 seconds =       0.03 minutes

*** tstart() called on Joses-MacBook-Pro-2.local
*** at Thu Jul 17 13:19:58 2025


         ------------------------------------------------------------
                                   SCF GRAD                          
                          Rob Parrish, Justin Turney,                
                       Andy Simmonett, and Alex Sokolov              
         ------------------------------------------------------------

  ==> Geometry <==

    Molecular point group: c2v
    Full point group: C_inf_v

    Geometry (in Angstrom), charge = 1, multiplicity = 2:

       Center              X                  Y                   Z               Mass       
    ------------   -----------------  -----------------  -----------------  -----------------
         BE           0.000000000000     0.000000000000     1.013344032081     9.012183065000
         NE           0.000000000000     0.000000000000    -0.456794760642    19.992440176200

  Nuclear repulsion =   14.398020466887731

  ==> Basis Set <==

  Basis Set: CC-PVDZ
    Blend: CC-PVDZ
    Number of shells: 12
    Number of basis functions: 28
    Number of Cartesian functions: 30
    Spherical Harmonics?: true
    Max angular momentum: 2

  ==> DFJKGrad: Density-Fitted SCF Gradients <==

    Gradient:                    1
    J tasked:                  Yes
    K tasked:                  Yes
    wK tasked:                  No
    OpenMP threads:              1
    Integrals threads:           1
    Memory [MiB]:              375
    Schwarz Cutoff:          1E-12
    Fitting Condition:       1E-10

   => Auxiliary Basis Set <=

  Basis Set: (CC-PVDZ AUX)
    Blend: CC-PVDZ-JKFIT + DEF2-UNIVERSAL-JKFIT
    Number of shells: 41
    Number of basis functions: 121
    Number of Cartesian functions: 141
    Spherical Harmonics?: true
    Max angular momentum: 3

  ==> DFT Potential <==

   => LibXC <=

    Version 6.2.2
    S. Lehtola, C. Steigemann, M. J.T. Oliveira, and M. A.L. Marques.,  SoftwareX 7, 1–5 (2018) (10.1016/j.softx.2017.11.002)

   => Composite Functional: B3LYP <= 

    B3LYP Hyb-GGA Exchange-Correlation Functional

    P. J. Stephens, F. J. Devlin, C. F. Chabalowski, and M. J. Frisch.,  J. Phys. Chem. 98, 11623 (1994) (10.1021/j100096a001)

    Deriv               =              1
    GGA                 =           TRUE
    Meta                =          FALSE

    Exchange Hybrid     =           TRUE
    MP2 Hybrid          =          FALSE

   => Exchange Functionals <=

    0.0800   Slater exchange
    0.7200         Becke 88

   => Exact (HF) Exchange <=

    0.2000               HF 

   => Correlation Functionals <=

    0.1900   Vosko, Wilk & Nusair (VWN5_RPA)
    0.8100   Lee, Yang & Parr

   => LibXC Density Thresholds  <==

    XC_HYB_GGA_XC_B3LYP:  1.00E-15 

   => Molecular Quadrature <=

    Radial Scheme          =       TREUTLER
    Pruning Scheme         =           NONE
    Nuclear Scheme         =       TREUTLER

    Blocking Scheme        =         OCTREE
    BS radius alpha        =              1
    Pruning alpha          =              1
    Radial Points          =             75
    Spherical Points       =            302
    Total Points           =          43529
    Total Blocks           =            402
    Max Points             =            254
    Max Functions          =             28
    Weights Tolerance      =       1.00E-15


  -Total Gradient:
     Atom            X                  Y                   Z
    ------   -----------------  -----------------  -----------------
       1       -0.000000000000     0.000000000000    -0.077967747428
       2       -0.000000000000     0.000000000000     0.078088795270


*** tstop() called on Joses-MacBook-Pro-2.local at Thu Jul 17 13:19:58 2025
Module time:
	user time   =       0.45 seconds =       0.01 minutes
	system time =       1.28 seconds =       0.02 minutes
	total time  =          0 seconds =       0.00 minutes
Total time:
	user time   =       8.91 seconds =       0.15 minutes
	system time =      17.98 seconds =       0.30 minutes
	total time  =          2 seconds =       0.03 minutes

    			-----------------------------------------

    			 OPTKING 3.0: for geometry optimizations 

    			     By R.A. King, Bethel University     

    			        with contributions from          

    			    A.V. Copan, J. Cayton, A. Heide      

    			-----------------------------------------

    
	                            ===> Fragment 1 <== 

	 Z (Atomic Numbers)          Masses                          Geom                  
	       4.000000             9.012183          0.00000000  0.00000000  1.91494269   
	      10.000000            19.992440          0.00000000  0.00000000 -0.86321699   

	 - Coordinate -           - BOHR/RAD -       - ANG/DEG -
	 R(1,2)           =         2.778160           1.470139


	        --- Internal Coordinate Step in ANG or DEG, aJ/ANG or AJ/DEG ---
	-------------------------------------------------------------------------------
	           Coordinate      Previous         Force          Change          New 
	           ----------      --------        ------          ------        ------
	               R(1,2)       1.47014        0.64285        0.12073       1.59087
	-------------------------------------------------------------------------------

	                                 ==> Convergence Check <==                                  
    
	Measures of convergence in internal coordinates in au.
    
	Criteria marked as inactive (o), active & met (*), and active & unmet ( ).

	----------------------------------------------------------------------------------------------
	   Step    Total Energy     Delta E     Max Force     RMS Force      Max Disp      RMS Disp   
	----------------------------------------------------------------------------------------------
	  Convergence Criteria     1.00e-06 *    3.00e-04 *             o    1.20e-03 *             o
	----------------------------------------------------------------------------------------------
	     3    -143.23754447   -2.29e-02      7.80e-02      7.80e-02 o    2.28e-01      2.28e-01 o  ~
	----------------------------------------------------------------------------------------------

Next Geometry in Ang 
	Fragment 1 (Ang)

	   Be   0.0000000000   0.0000000000   1.0737088819
	   Ne   0.0000000000   0.0000000000  -0.5171596105


    Structure for next step:
    Molecular point group: c2v
    Full point group: C_inf_v

    Geometry (in Angstrom), charge = 1, multiplicity = 2:

    BE           0.000000000000     0.000000000000     1.096561155047
    NE           0.000000000000     0.000000000000    -0.494307337381


Scratch directory: /tmp/
gradient() will perform analytic gradient computation.
   => Libint2 <=

    Primary   basis highest AM E, G, H:  6, 6, 3
    Auxiliary basis highest AM E, G, H:  7, 7, 4
    Onebody   basis highest AM E, G, H:  -, -, -
    Solid Harmonics ordering:            Gaussian

*** tstart() called on Joses-MacBook-Pro-2.local
*** at Thu Jul 17 13:19:58 2025

   => Loading Basis Set <=

    Name: CC-PVDZ
    Role: ORBITAL
    Keyword: BASIS
    atoms 1 entry BE         line    75 file /Users/joseantoniorodriguesromero/anaconda3/share/psi4/basis/cc-pvdz.gbs 
    atoms 2 entry NE         line   258 file /Users/joseantoniorodriguesromero/anaconda3/share/psi4/basis/cc-pvdz.gbs 


         ---------------------------------------------------------
                                   SCF
               by Justin Turney, Rob Parrish, Andy Simmonett
                          and Daniel G. A. Smith
                              UKS Reference
                        1 Threads,    500 MiB Core
         ---------------------------------------------------------

  ==> Geometry <==

    Molecular point group: c2v
    Full point group: C_inf_v

    Geometry (in Angstrom), charge = 1, multiplicity = 2:

       Center              X                  Y                   Z               Mass       
    ------------   -----------------  -----------------  -----------------  -----------------
         BE           0.000000000000     0.000000000000     1.096561155047     9.012183065000
         NE           0.000000000000     0.000000000000    -0.494307337381    19.992440176200

  Running in c2v symmetry.

  Rotational constants: A = ************  B =      1.07226  C =      1.07226 [cm^-1]
  Rotational constants: A = ************  B =  32145.49047  C =  32145.49047 [MHz]
  Nuclear repulsion =   13.305366551376908

  Charge       = 1
  Multiplicity = 2
  Electrons    = 13
  Nalpha       = 7
  Nbeta        = 6

  ==> Algorithm <==

  SCF Algorithm Type is DF.
  DIIS enabled.
  MOM disabled.
  Fractional occupation disabled.
  Guess Type is READ.
  Energy threshold   = 1.00e-08
  Density threshold  = 1.00e-08
  Integral threshold = 1.00e-12

  ==> Primary Basis <==

  Basis Set: CC-PVDZ
    Blend: CC-PVDZ
    Number of shells: 12
    Number of basis functions: 28
    Number of Cartesian functions: 30
    Spherical Harmonics?: true
    Max angular momentum: 2

  ==> DFT Potential <==

   => LibXC <=

    Version 6.2.2
    S. Lehtola, C. Steigemann, M. J.T. Oliveira, and M. A.L. Marques.,  SoftwareX 7, 1–5 (2018) (10.1016/j.softx.2017.11.002)

   => Composite Functional: B3LYP <= 

    B3LYP Hyb-GGA Exchange-Correlation Functional

    P. J. Stephens, F. J. Devlin, C. F. Chabalowski, and M. J. Frisch.,  J. Phys. Chem. 98, 11623 (1994) (10.1021/j100096a001)

    Deriv               =              1
    GGA                 =           TRUE
    Meta                =          FALSE

    Exchange Hybrid     =           TRUE
    MP2 Hybrid          =          FALSE

   => Exchange Functionals <=

    0.0800   Slater exchange
    0.7200         Becke 88

   => Exact (HF) Exchange <=

    0.2000               HF 

   => Correlation Functionals <=

    0.1900   Vosko, Wilk & Nusair (VWN5_RPA)
    0.8100   Lee, Yang & Parr

   => LibXC Density Thresholds  <==

    XC_HYB_GGA_XC_B3LYP:  1.00E-15 

   => Molecular Quadrature <=

    Radial Scheme          =       TREUTLER
    Pruning Scheme         =           NONE
    Nuclear Scheme         =       TREUTLER

    Blocking Scheme        =         OCTREE
    BS radius alpha        =              1
    Pruning alpha          =              1
    Radial Points          =             75
    Spherical Points       =            302
    Total Points           =          43547
    Total Blocks           =            400
    Max Points             =            256
    Max Functions          =             28
    Weights Tolerance      =       1.00E-15

   => Loading Basis Set <=

    Name: (CC-PVDZ AUX)
    Role: JKFIT
    Keyword: DF_BASIS_SCF
    atoms 1 entry BE         line    96 file /Users/joseantoniorodriguesromero/anaconda3/share/psi4/basis/def2-universal-jkfit.gbs 
    atoms 2 entry NE         line   321 file /Users/joseantoniorodriguesromero/anaconda3/share/psi4/basis/cc-pvdz-jkfit.gbs 

   => Loading Basis Set <=

    Name: CC-PVDZ
    Role: ORBITAL
    Keyword: BASIS
    atoms 1 entry BE         line    75 file /Users/joseantoniorodriguesromero/anaconda3/share/psi4/basis/cc-pvdz.gbs 
    atoms 2 entry NE         line   258 file /Users/joseantoniorodriguesromero/anaconda3/share/psi4/basis/cc-pvdz.gbs 

  Reading orbitals from file /tmp/doublet_BeNe.default.74131.180.npy, no projection.

  ==> Integral Setup <==

  DFHelper Memory: AOs need 0.001 GiB; user supplied 0.333 GiB. 
  Using in-core AOs.

  ==> MemDFJK: Density-Fitted J/K Matrices <==

    J tasked:                   Yes
    K tasked:                   Yes
    wK tasked:                   No
    OpenMP threads:               1
    Memory [MiB]:               341
    Algorithm:                 Core
    Schwarz Cutoff:           1E-12
    Mask sparsity (%):       0.0000
    Fitting Condition:        1E-10

   => Auxiliary Basis Set <=

  Basis Set: (CC-PVDZ AUX)
    Blend: CC-PVDZ-JKFIT + DEF2-UNIVERSAL-JKFIT
    Number of shells: 41
    Number of basis functions: 121
    Number of Cartesian functions: 141
    Spherical Harmonics?: true
    Max angular momentum: 3

  Cached 100.0% of DFT collocation blocks in 0.033 [GiB].

  Minimum eigenvalue in the overlap matrix is 2.6922840396E-02.
  Reciprocal condition number of the overlap matrix is 9.8692390736E-03.
    Using symmetric orthogonalization.

  ==> Pre-Iterations <==

  SCF Guess: Orbitals guess was supplied from a previous computation.

   -------------------------------------------------------
    Irrep   Nso     Nmo     Nalpha   Nbeta   Ndocc  Nsocc
   -------------------------------------------------------
     A1        14      14       5       4       4       1
     A2         2       2       0       0       0       0
     B1         6       6       1       1       1       0
     B2         6       6       1       1       1       0
   -------------------------------------------------------
    Total      28      28       7       6       6       1
   -------------------------------------------------------

  ==> Iterations <==

                           Total Energy        Delta E     RMS |[F,P]|

   @DF-UKS iter   0:  -143.21701321684080   -1.43217e+02   8.03197e-03 
   @DF-UKS iter   1:  -143.25008766197735   -3.30744e-02   1.32844e-03 DIIS/ADIIS
   @DF-UKS iter   2:  -143.25007662720805    1.10348e-05   1.46056e-03 DIIS/ADIIS/DAMP=1%
   @DF-UKS iter   3:  -143.24962670464151    4.49923e-04   7.06790e-05 DIIS/DAMP=1%
   @DF-UKS iter   4:  -143.25024255076198   -6.15846e-04   1.64681e-05 DIIS/DAMP=1%
   @DF-UKS iter   5:  -143.25021974727116    2.28035e-05   4.30439e-07 DIIS/DAMP=1%
   @DF-UKS iter   6:  -143.25022609502776   -6.34776e-06   4.89954e-08 DIIS/DAMP=1%
   @DF-UKS iter   7:  -143.25022601430564    8.07221e-08   2.15895e-09 DIIS/DAMP=1%
   @DF-UKS iter   8:  -143.25022602771483   -1.34092e-08   5.33963e-10 DIIS/DAMP=1%
   @DF-UKS iter   9:  -143.25022602687272    8.42107e-10   3.51738e-11 DIIS/DAMP=1%
  Energy and wave function converged.


  ==> Post-Iterations <==

   Electrons on quadrature grid:
      Nalpha   =    6.9999872775 ; deviation = -1.272e-05
      Nbeta    =    5.9999872599 ; deviation = -1.274e-05
      Ntotal   =   12.9999745375 ; deviation = -2.546e-05 

   @Spin Contamination Metric:   5.593452128E-05
   @S^2 Expected:                7.500000000E-01
   @S^2 Observed:                7.500559345E-01
   @S   Expected:                5.000000000E-01
   @S   Observed:                5.000000000E-01

    Orbital Energies [Eh]
    ---------------------

    Alpha Occupied:                                                       

       1A1   -31.420030     2A1    -4.486768     3A1    -1.885641  
       4A1    -1.016389     1B2    -0.975467     1B1    -0.975467  
       5A1    -0.509918  

    Alpha Virtual:                                                        

       2B2    -0.328665     2B1    -0.328665     6A1    -0.240073  
       3B1    -0.044071     3B2    -0.044071     7A1    -0.031508  
       8A1    -0.025737     9A1     0.178874     1A2     0.178874  
       4B1     0.206384     4B2     0.206384    10A1     0.327970  
       5B1     1.151784     5B2     1.151784    11A1     1.222690  
      12A1     2.255150     2A2     4.293535    13A1     4.293681  
       6B1     4.315833     6B2     4.315833    14A1     4.344578  

    Beta Occupied:                                                        

       1A1   -31.418825     2A1    -4.472439     3A1    -1.883150  
       4A1    -1.012089     1B2    -0.974454     1B1    -0.974454  

    Beta Virtual:                                                         

       5A1    -0.374846     2B2    -0.276080     2B1    -0.276080  
       6A1    -0.199521     3B2    -0.029248     3B1    -0.029248  
       7A1    -0.019154     8A1     0.008679     1A2     0.235091  
       9A1     0.235115     4B1     0.264573     4B2     0.264573  
      10A1     0.383232     5B1     1.157415     5B2     1.157415  
      11A1     1.225934    12A1     2.261349     2A2     4.294135  
      13A1     4.294281     6B1     4.318151     6B2     4.318151  
      14A1     4.347139  

    Final Occupation by Irrep:
             A1    A2    B1    B2 
    DOCC [     4,    0,    1,    1 ]
    SOCC [     1,    0,    0,    0 ]
    NA   [     5,    0,    1,    1 ]
    NB   [     4,    0,    1,    1 ]

  @DF-UKS Final Energy:  -143.25022602687272

   => Energetics <=

    Nuclear Repulsion Energy =             13.3053665513769079
    One-Electron Energy =                -222.3877710054045167
    Two-Electron Energy =                  77.9864141756922322
    DFT Exchange-Correlation Energy =     -12.1542357485373582
    Empirical Dispersion Energy =           0.0000000000000000
    VV10 Nonlocal Energy =                  0.0000000000000000
    Total Energy =                       -143.2502260268727241

  UHF NO Occupations:
  HONO-2 :    1 B2 1.9999897
  HONO-1 :    1 B1 1.9999897
  HONO-0 :    5 A1 1.0000000
  LUNO+0 :    2 B2 0.0000103
  LUNO+1 :    2 B1 0.0000103
  LUNO+2 :    6 A1 0.0000068
  LUNO+3 :    7 A1 0.0000004


Computation Completed


Properties will be evaluated at   0.000000,   0.000000,   0.000000 [a0]

Properties computed using the SCF density matrix


 Multipole Moments:

 ------------------------------------------------------------------------------------
     Multipole            Electronic (a.u.)      Nuclear  (a.u.)        Total (a.u.)
 ------------------------------------------------------------------------------------

 L = 1.  Multiply by 2.5417464519 to convert [e a0] to [Debye]
 Dipole X            :          0.0000000            0.0000000            0.0000000
 Dipole Y            :          0.0000000            0.0000000            0.0000000
 Dipole Z            :          2.1186829           -1.0522538            1.0664291
 Magnitude           :                                                    1.0664291

 ------------------------------------------------------------------------------------

*** tstop() called on Joses-MacBook-Pro-2.local at Thu Jul 17 13:19:59 2025
Module time:
	user time   =       1.81 seconds =       0.03 minutes
	system time =       4.69 seconds =       0.08 minutes
	total time  =          1 seconds =       0.02 minutes
Total time:
	user time   =      10.76 seconds =       0.18 minutes
	system time =      22.89 seconds =       0.38 minutes
	total time  =          3 seconds =       0.05 minutes

*** tstart() called on Joses-MacBook-Pro-2.local
*** at Thu Jul 17 13:19:59 2025


         ------------------------------------------------------------
                                   SCF GRAD                          
                          Rob Parrish, Justin Turney,                
                       Andy Simmonett, and Alex Sokolov              
         ------------------------------------------------------------

  ==> Geometry <==

    Molecular point group: c2v
    Full point group: C_inf_v

    Geometry (in Angstrom), charge = 1, multiplicity = 2:

       Center              X                  Y                   Z               Mass       
    ------------   -----------------  -----------------  -----------------  -----------------
         BE           0.000000000000     0.000000000000     1.096561155047     9.012183065000
         NE           0.000000000000     0.000000000000    -0.494307337381    19.992440176200

  Nuclear repulsion =   13.305366551376908

  ==> Basis Set <==

  Basis Set: CC-PVDZ
    Blend: CC-PVDZ
    Number of shells: 12
    Number of basis functions: 28
    Number of Cartesian functions: 30
    Spherical Harmonics?: true
    Max angular momentum: 2

  ==> DFJKGrad: Density-Fitted SCF Gradients <==

    Gradient:                    1
    J tasked:                  Yes
    K tasked:                  Yes
    wK tasked:                  No
    OpenMP threads:              1
    Integrals threads:           1
    Memory [MiB]:              375
    Schwarz Cutoff:          1E-12
    Fitting Condition:       1E-10

   => Auxiliary Basis Set <=

  Basis Set: (CC-PVDZ AUX)
    Blend: CC-PVDZ-JKFIT + DEF2-UNIVERSAL-JKFIT
    Number of shells: 41
    Number of basis functions: 121
    Number of Cartesian functions: 141
    Spherical Harmonics?: true
    Max angular momentum: 3

  ==> DFT Potential <==

   => LibXC <=

    Version 6.2.2
    S. Lehtola, C. Steigemann, M. J.T. Oliveira, and M. A.L. Marques.,  SoftwareX 7, 1–5 (2018) (10.1016/j.softx.2017.11.002)

   => Composite Functional: B3LYP <= 

    B3LYP Hyb-GGA Exchange-Correlation Functional

    P. J. Stephens, F. J. Devlin, C. F. Chabalowski, and M. J. Frisch.,  J. Phys. Chem. 98, 11623 (1994) (10.1021/j100096a001)

    Deriv               =              1
    GGA                 =           TRUE
    Meta                =          FALSE

    Exchange Hybrid     =           TRUE
    MP2 Hybrid          =          FALSE

   => Exchange Functionals <=

    0.0800   Slater exchange
    0.7200         Becke 88

   => Exact (HF) Exchange <=

    0.2000               HF 

   => Correlation Functionals <=

    0.1900   Vosko, Wilk & Nusair (VWN5_RPA)
    0.8100   Lee, Yang & Parr

   => LibXC Density Thresholds  <==

    XC_HYB_GGA_XC_B3LYP:  1.00E-15 

   => Molecular Quadrature <=

    Radial Scheme          =       TREUTLER
    Pruning Scheme         =           NONE
    Nuclear Scheme         =       TREUTLER

    Blocking Scheme        =         OCTREE
    BS radius alpha        =              1
    Pruning alpha          =              1
    Radial Points          =             75
    Spherical Points       =            302
    Total Points           =          43547
    Total Blocks           =            400
    Max Points             =            256
    Max Functions          =             28
    Weights Tolerance      =       1.00E-15


  -Total Gradient:
     Atom            X                  Y                   Z
    ------   -----------------  -----------------  -----------------
       1        0.000000000000     0.000000000000    -0.037498084494
       2        0.000000000000    -0.000000000000     0.037604514448


*** tstop() called on Joses-MacBook-Pro-2.local at Thu Jul 17 13:19:59 2025
Module time:
	user time   =       0.58 seconds =       0.01 minutes
	system time =       1.11 seconds =       0.02 minutes
	total time  =          0 seconds =       0.00 minutes
Total time:
	user time   =      11.34 seconds =       0.19 minutes
	system time =      24.01 seconds =       0.40 minutes
	total time  =          3 seconds =       0.05 minutes

    			-----------------------------------------

    			 OPTKING 3.0: for geometry optimizations 

    			     By R.A. King, Bethel University     

    			        with contributions from          

    			    A.V. Copan, J. Cayton, A. Heide      

    			-----------------------------------------

    
	                            ===> Fragment 1 <== 

	 Z (Atomic Numbers)          Masses                          Geom                  
	       4.000000             9.012183          0.00000000  0.00000000  2.07220026   
	      10.000000            19.992440          0.00000000  0.00000000 -0.93410549   

	 - Coordinate -           - BOHR/RAD -       - ANG/DEG -
	 R(1,2)           =         3.006306           1.590868


	        --- Internal Coordinate Step in ANG or DEG, aJ/ANG or AJ/DEG ---
	-------------------------------------------------------------------------------
	           Coordinate      Previous         Force          Change          New 
	           ----------      --------        ------          ------        ------
	               R(1,2)       1.59087        0.30937        0.07840       1.66927
	-------------------------------------------------------------------------------

	                                 ==> Convergence Check <==                                  
    
	Measures of convergence in internal coordinates in au.
    
	Criteria marked as inactive (o), active & met (*), and active & unmet ( ).

	----------------------------------------------------------------------------------------------
	   Step    Total Energy     Delta E     Max Force     RMS Force      Max Disp      RMS Disp   
	----------------------------------------------------------------------------------------------
	  Convergence Criteria     1.00e-06 *    3.00e-04 *             o    1.20e-03 *             o
	----------------------------------------------------------------------------------------------
	     4    -143.25022603   -1.27e-02      3.76e-02      3.76e-02 o    1.48e-01      1.48e-01 o  ~
	----------------------------------------------------------------------------------------------

Next Geometry in Ang 
	Fragment 1 (Ang)

	   Be   0.0000000000   0.0000000000   1.1357632983
	   Ne   0.0000000000   0.0000000000  -0.5335094806


    Structure for next step:
    Molecular point group: c2v
    Full point group: C_inf_v

    Geometry (in Angstrom), charge = 1, multiplicity = 2:

    BE           0.000000000000     0.000000000000     1.150604022381
    NE           0.000000000000     0.000000000000    -0.518668756472


Scratch directory: /tmp/
gradient() will perform analytic gradient computation.
   => Libint2 <=

    Primary   basis highest AM E, G, H:  6, 6, 3
    Auxiliary basis highest AM E, G, H:  7, 7, 4
    Onebody   basis highest AM E, G, H:  -, -, -
    Solid Harmonics ordering:            Gaussian

*** tstart() called on Joses-MacBook-Pro-2.local
*** at Thu Jul 17 13:19:59 2025

   => Loading Basis Set <=

    Name: CC-PVDZ
    Role: ORBITAL
    Keyword: BASIS
    atoms 1 entry BE         line    75 file /Users/joseantoniorodriguesromero/anaconda3/share/psi4/basis/cc-pvdz.gbs 
    atoms 2 entry NE         line   258 file /Users/joseantoniorodriguesromero/anaconda3/share/psi4/basis/cc-pvdz.gbs 


         ---------------------------------------------------------
                                   SCF
               by Justin Turney, Rob Parrish, Andy Simmonett
                          and Daniel G. A. Smith
                              UKS Reference
                        1 Threads,    500 MiB Core
         ---------------------------------------------------------

  ==> Geometry <==

    Molecular point group: c2v
    Full point group: C_inf_v

    Geometry (in Angstrom), charge = 1, multiplicity = 2:

       Center              X                  Y                   Z               Mass       
    ------------   -----------------  -----------------  -----------------  -----------------
         BE           0.000000000000     0.000000000000     1.150604022381     9.012183065000
         NE           0.000000000000     0.000000000000    -0.518668756472    19.992440176200

  Running in c2v symmetry.

  Rotational constants: A = ************  B =      0.97390  C =      0.97390 [cm^-1]
  Rotational constants: A = ************  B =  29196.71530  C =  29196.71530 [MHz]
  Nuclear repulsion =   12.680425089872037

  Charge       = 1
  Multiplicity = 2
  Electrons    = 13
  Nalpha       = 7
  Nbeta        = 6

  ==> Algorithm <==

  SCF Algorithm Type is DF.
  DIIS enabled.
  MOM disabled.
  Fractional occupation disabled.
  Guess Type is READ.
  Energy threshold   = 1.00e-08
  Density threshold  = 1.00e-08
  Integral threshold = 1.00e-12

  ==> Primary Basis <==

  Basis Set: CC-PVDZ
    Blend: CC-PVDZ
    Number of shells: 12
    Number of basis functions: 28
    Number of Cartesian functions: 30
    Spherical Harmonics?: true
    Max angular momentum: 2

  ==> DFT Potential <==

   => LibXC <=

    Version 6.2.2
    S. Lehtola, C. Steigemann, M. J.T. Oliveira, and M. A.L. Marques.,  SoftwareX 7, 1–5 (2018) (10.1016/j.softx.2017.11.002)

   => Composite Functional: B3LYP <= 

    B3LYP Hyb-GGA Exchange-Correlation Functional

    P. J. Stephens, F. J. Devlin, C. F. Chabalowski, and M. J. Frisch.,  J. Phys. Chem. 98, 11623 (1994) (10.1021/j100096a001)

    Deriv               =              1
    GGA                 =           TRUE
    Meta                =          FALSE

    Exchange Hybrid     =           TRUE
    MP2 Hybrid          =          FALSE

   => Exchange Functionals <=

    0.0800   Slater exchange
    0.7200         Becke 88

   => Exact (HF) Exchange <=

    0.2000               HF 

   => Correlation Functionals <=

    0.1900   Vosko, Wilk & Nusair (VWN5_RPA)
    0.8100   Lee, Yang & Parr

   => LibXC Density Thresholds  <==

    XC_HYB_GGA_XC_B3LYP:  1.00E-15 

   => Molecular Quadrature <=

    Radial Scheme          =       TREUTLER
    Pruning Scheme         =           NONE
    Nuclear Scheme         =       TREUTLER

    Blocking Scheme        =         OCTREE
    BS radius alpha        =              1
    Pruning alpha          =              1
    Radial Points          =             75
    Spherical Points       =            302
[...]
	               R(1,2)       1.93453        0.00074        0.00197       1.93650
	-------------------------------------------------------------------------------

	                                 ==> Convergence Check <==                                  
    
	Measures of convergence in internal coordinates in au.
    
	Criteria marked as inactive (o), active & met (*), and active & unmet ( ).

	----------------------------------------------------------------------------------------------
	   Step    Total Energy     Delta E     Max Force     RMS Force      Max Disp      RMS Disp   
	----------------------------------------------------------------------------------------------
	  Convergence Criteria     1.00e-06 *    3.00e-04 *             o    1.20e-03 *             o
	----------------------------------------------------------------------------------------------
	    12    -143.25891630   -3.46e-06      8.99e-05 *    8.99e-05 o    3.72e-03      3.72e-03 o  ~
	----------------------------------------------------------------------------------------------

Next Geometry in Ang 
	Fragment 1 (Ang)

	   Be   0.0000000000   0.0000000000   1.3344260818
	   Ne   0.0000000000   0.0000000000  -0.6020722662


    Structure for next step:
    Molecular point group: c2v
    Full point group: C_inf_v

    Geometry (in Angstrom), charge = 1, multiplicity = 2:

    BE           0.000000000000     0.000000000000     1.334798492421
    NE           0.000000000000     0.000000000000    -0.601699855674


Scratch directory: /tmp/
gradient() will perform analytic gradient computation.
   => Libint2 <=

    Primary   basis highest AM E, G, H:  6, 6, 3
    Auxiliary basis highest AM E, G, H:  7, 7, 4
    Onebody   basis highest AM E, G, H:  -, -, -
    Solid Harmonics ordering:            Gaussian

*** tstart() called on Joses-MacBook-Pro-2.local
*** at Thu Jul 17 13:20:06 2025

   => Loading Basis Set <=

    Name: CC-PVDZ
    Role: ORBITAL
    Keyword: BASIS
    atoms 1 entry BE         line    75 file /Users/joseantoniorodriguesromero/anaconda3/share/psi4/basis/cc-pvdz.gbs 
    atoms 2 entry NE         line   258 file /Users/joseantoniorodriguesromero/anaconda3/share/psi4/basis/cc-pvdz.gbs 


         ---------------------------------------------------------
                                   SCF
               by Justin Turney, Rob Parrish, Andy Simmonett
                          and Daniel G. A. Smith
                              UKS Reference
                        1 Threads,    500 MiB Core
         ---------------------------------------------------------

  ==> Geometry <==

    Molecular point group: c2v
    Full point group: C_inf_v

    Geometry (in Angstrom), charge = 1, multiplicity = 2:

       Center              X                  Y                   Z               Mass       
    ------------   -----------------  -----------------  -----------------  -----------------
         BE           0.000000000000     0.000000000000     1.334798492421     9.012183065000
         NE           0.000000000000     0.000000000000    -0.601699855674    19.992440176200

  Running in c2v symmetry.

  Rotational constants: A = ************  B =      0.72366  C =      0.72366 [cm^-1]
  Rotational constants: A = ************  B =  21694.73532  C =  21694.73532 [MHz]
  Nuclear repulsion =   10.930599784725512

  Charge       = 1
  Multiplicity = 2
  Electrons    = 13
  Nalpha       = 7
  Nbeta        = 6

  ==> Algorithm <==

  SCF Algorithm Type is DF.
  DIIS enabled.
  MOM disabled.
  Fractional occupation disabled.
  Guess Type is READ.
  Energy threshold   = 1.00e-08
  Density threshold  = 1.00e-08
  Integral threshold = 1.00e-12

  ==> Primary Basis <==

  Basis Set: CC-PVDZ
    Blend: CC-PVDZ
    Number of shells: 12
    Number of basis functions: 28
    Number of Cartesian functions: 30
    Spherical Harmonics?: true
    Max angular momentum: 2

  ==> DFT Potential <==

   => LibXC <=

    Version 6.2.2
    S. Lehtola, C. Steigemann, M. J.T. Oliveira, and M. A.L. Marques.,  SoftwareX 7, 1–5 (2018) (10.1016/j.softx.2017.11.002)

   => Composite Functional: B3LYP <= 

    B3LYP Hyb-GGA Exchange-Correlation Functional

    P. J. Stephens, F. J. Devlin, C. F. Chabalowski, and M. J. Frisch.,  J. Phys. Chem. 98, 11623 (1994) (10.1021/j100096a001)

    Deriv               =              1
    GGA                 =           TRUE
    Meta                =          FALSE

    Exchange Hybrid     =           TRUE
    MP2 Hybrid          =          FALSE

   => Exchange Functionals <=

    0.0800   Slater exchange
    0.7200         Becke 88

   => Exact (HF) Exchange <=

    0.2000               HF 

   => Correlation Functionals <=

    0.1900   Vosko, Wilk & Nusair (VWN5_RPA)
    0.8100   Lee, Yang & Parr

   => LibXC Density Thresholds  <==

    XC_HYB_GGA_XC_B3LYP:  1.00E-15 

   => Molecular Quadrature <=

    Radial Scheme          =       TREUTLER
    Pruning Scheme         =           NONE
    Nuclear Scheme         =       TREUTLER

    Blocking Scheme        =         OCTREE
    BS radius alpha        =              1
    Pruning alpha          =              1
    Radial Points          =             75
    Spherical Points       =            302
    Total Points           =          43596
    Total Blocks           =            401
    Max Points             =            254
    Max Functions          =             28
    Weights Tolerance      =       1.00E-15

   => Loading Basis Set <=

    Name: (CC-PVDZ AUX)
    Role: JKFIT
    Keyword: DF_BASIS_SCF
    atoms 1 entry BE         line    96 file /Users/joseantoniorodriguesromero/anaconda3/share/psi4/basis/def2-universal-jkfit.gbs 
    atoms 2 entry NE         line   321 file /Users/joseantoniorodriguesromero/anaconda3/share/psi4/basis/cc-pvdz-jkfit.gbs 

   => Loading Basis Set <=

    Name: CC-PVDZ
    Role: ORBITAL
    Keyword: BASIS
    atoms 1 entry BE         line    75 file /Users/joseantoniorodriguesromero/anaconda3/share/psi4/basis/cc-pvdz.gbs 
    atoms 2 entry NE         line   258 file /Users/joseantoniorodriguesromero/anaconda3/share/psi4/basis/cc-pvdz.gbs 

  Reading orbitals from file /tmp/doublet_BeNe.default.74131.180.npy, no projection.

  ==> Integral Setup <==

  DFHelper Memory: AOs need 0.001 GiB; user supplied 0.333 GiB. 
  Using in-core AOs.

  ==> MemDFJK: Density-Fitted J/K Matrices <==

    J tasked:                   Yes
    K tasked:                   Yes
    wK tasked:                   No
    OpenMP threads:               1
    Memory [MiB]:               341
    Algorithm:                 Core
    Schwarz Cutoff:           1E-12
    Mask sparsity (%):       0.0000
    Fitting Condition:        1E-10

   => Auxiliary Basis Set <=

  Basis Set: (CC-PVDZ AUX)
    Blend: CC-PVDZ-JKFIT + DEF2-UNIVERSAL-JKFIT
    Number of shells: 41
    Number of basis functions: 121
    Number of Cartesian functions: 141
    Spherical Harmonics?: true
    Max angular momentum: 3

  Cached 100.0% of DFT collocation blocks in 0.033 [GiB].

  Minimum eigenvalue in the overlap matrix is 3.6373262465E-02.
  Reciprocal condition number of the overlap matrix is 1.4180231974E-02.
    Using symmetric orthogonalization.

  ==> Pre-Iterations <==

  SCF Guess: Orbitals guess was supplied from a previous computation.

   -------------------------------------------------------
    Irrep   Nso     Nmo     Nalpha   Nbeta   Ndocc  Nsocc
   -------------------------------------------------------
     A1        14      14       5       4       4       1
     A2         2       2       0       0       0       0
     B1         6       6       1       1       1       0
     B2         6       6       1       1       1       0
   -------------------------------------------------------
    Total      28      28       7       6       6       1
   -------------------------------------------------------

  ==> Iterations <==

                           Total Energy        Delta E     RMS |[F,P]|

   @DF-UKS iter   0:  -143.25840915288896   -1.43258e+02   8.07805e-05 
   @DF-UKS iter   1:  -143.25891670085201   -5.07548e-04   3.05501e-05 DIIS
   @DF-UKS iter   2:  -143.25891668448347    1.63685e-08   3.55195e-05 DIIS/DAMP=1%
   @DF-UKS iter   3:  -143.25890244652541    1.42380e-05   1.01519e-06 DIIS/DAMP=1%
   @DF-UKS iter   4:  -143.25891676016323   -1.43136e-05   3.42446e-07 DIIS/DAMP=1%
   @DF-UKS iter   5:  -143.25891664477527    1.15388e-07   1.68336e-08 DIIS/DAMP=1%
   @DF-UKS iter   6:  -143.25891677232653   -1.27551e-07   2.71451e-09 DIIS/DAMP=1%
   @DF-UKS iter   7:  -143.25891677434242   -2.01590e-09   2.78662e-10 DIIS/DAMP=1%
  Energy and wave function converged.


  ==> Post-Iterations <==

   Electrons on quadrature grid:
      Nalpha   =    7.0000072079 ; deviation = 7.208e-06
      Nbeta    =    6.0000070571 ; deviation = 7.057e-06
      Ntotal   =   13.0000142650 ; deviation = 1.427e-05 

   @Spin Contamination Metric:   6.081380617E-05
   @S^2 Expected:                7.500000000E-01
   @S^2 Observed:                7.500608138E-01
   @S   Expected:                5.000000000E-01
   @S   Observed:                5.000000000E-01

    Orbital Energies [Eh]
    ---------------------

    Alpha Occupied:                                                       

       1A1   -31.323603     2A1    -4.493510     3A1    -1.781317  
       4A1    -0.908094     1B1    -0.880021     1B2    -0.880021  
       5A1    -0.525691  

    Alpha Virtual:                                                        

       2B2    -0.336510     2B1    -0.336510     6A1    -0.287780  
       7A1    -0.048908     3B2    -0.041324     3B1    -0.041324  
       8A1    -0.032809     1A2     0.181920     9A1     0.181923  
       4B1     0.187758     4B2     0.187758    10A1     0.274235  
       5B2     1.146115     5B1     1.146115    11A1     1.231241  
      12A1     1.990737    13A1     4.385347     2A2     4.385569  
       6B1     4.390091     6B2     4.390091    14A1     4.408598  

    Beta Occupied:                                                        

       1A1   -31.322277     2A1    -4.478119     3A1    -1.778613  
       4A1    -0.901921     1B2    -0.878962     1B1    -0.878962  

    Beta Virtual:                                                         

       5A1    -0.394640     2B2    -0.277520     2B1    -0.277520  
       6A1    -0.237111     7A1    -0.042372     3B2    -0.026312  
       3B1    -0.026312     8A1    -0.000385     4B1     0.244785  
       4B2     0.244785     9A1     0.245905     1A2     0.245910  
      10A1     0.331268     5B2     1.150061     5B1     1.150061  
      11A1     1.234537    12A1     1.997077    13A1     4.386011  
       2A2     4.386232     6B1     4.392768     6B2     4.392768  
      14A1     4.411898  

    Final Occupation by Irrep:
             A1    A2    B1    B2 
    DOCC [     4,    0,    1,    1 ]
    SOCC [     1,    0,    0,    0 ]
    NA   [     5,    0,    1,    1 ]
    NB   [     4,    0,    1,    1 ]

  @DF-UKS Final Energy:  -143.25891677434242

   => Energetics <=

    Nuclear Repulsion Energy =             10.9305997847255121
    One-Electron Energy =                -218.6351914075735863
    Two-Electron Energy =                  76.5924488186420831
    DFT Exchange-Correlation Energy =     -12.1467739701364117
    Empirical Dispersion Energy =           0.0000000000000000
    VV10 Nonlocal Energy =                  0.0000000000000000
    Total Energy =                       -143.2589167743424241

  UHF NO Occupations:
  HONO-2 :    1 B1 1.9999914
  HONO-1 :    4 A1 1.9999873
  HONO-0 :    5 A1 1.0000000
  LUNO+0 :    6 A1 0.0000127
  LUNO+1 :    2 B2 0.0000086
  LUNO+2 :    2 B1 0.0000086
  LUNO+3 :    7 A1 0.0000005


Computation Completed


Properties will be evaluated at   0.000000,   0.000000,   0.000000 [a0]

Properties computed using the SCF density matrix


 Multipole Moments:

 ------------------------------------------------------------------------------------
     Multipole            Electronic (a.u.)      Nuclear  (a.u.)        Total (a.u.)
 ------------------------------------------------------------------------------------

 L = 1.  Multiply by 2.5417464519 to convert [e a0] to [Debye]
 Dipole X            :          0.0000000            0.0000000            0.0000000
 Dipole Y            :          0.0000000            0.0000000            0.0000000
 Dipole Z            :          3.0664108           -1.2808650            1.7855458
 Magnitude           :                                                    1.7855458

 ------------------------------------------------------------------------------------

*** tstop() called on Joses-MacBook-Pro-2.local at Thu Jul 17 13:20:07 2025
Module time:
	user time   =       1.94 seconds =       0.03 minutes
	system time =       3.73 seconds =       0.06 minutes
	total time  =          1 seconds =       0.02 minutes
Total time:
	user time   =      36.87 seconds =       0.61 minutes
	system time =      72.37 seconds =       1.21 minutes
	total time  =         11 seconds =       0.18 minutes

*** tstart() called on Joses-MacBook-Pro-2.local
*** at Thu Jul 17 13:20:07 2025


         ------------------------------------------------------------
                                   SCF GRAD                          
                          Rob Parrish, Justin Turney,                
                       Andy Simmonett, and Alex Sokolov              
         ------------------------------------------------------------

  ==> Geometry <==

    Molecular point group: c2v
    Full point group: C_inf_v

    Geometry (in Angstrom), charge = 1, multiplicity = 2:

       Center              X                  Y                   Z               Mass       
    ------------   -----------------  -----------------  -----------------  -----------------
         BE           0.000000000000     0.000000000000     1.334798492421     9.012183065000
         NE           0.000000000000     0.000000000000    -0.601699855674    19.992440176200

  Nuclear repulsion =   10.930599784725512

  ==> Basis Set <==

  Basis Set: CC-PVDZ
    Blend: CC-PVDZ
    Number of shells: 12
    Number of basis functions: 28
    Number of Cartesian functions: 30
    Spherical Harmonics?: true
    Max angular momentum: 2

  ==> DFJKGrad: Density-Fitted SCF Gradients <==

    Gradient:                    1
    J tasked:                  Yes
    K tasked:                  Yes
    wK tasked:                  No
    OpenMP threads:              1
    Integrals threads:           1
    Memory [MiB]:              375
    Schwarz Cutoff:          1E-12
    Fitting Condition:       1E-10

   => Auxiliary Basis Set <=

  Basis Set: (CC-PVDZ AUX)
    Blend: CC-PVDZ-JKFIT + DEF2-UNIVERSAL-JKFIT
    Number of shells: 41
    Number of basis functions: 121
    Number of Cartesian functions: 141
    Spherical Harmonics?: true
    Max angular momentum: 3

  ==> DFT Potential <==

   => LibXC <=

    Version 6.2.2
    S. Lehtola, C. Steigemann, M. J.T. Oliveira, and M. A.L. Marques.,  SoftwareX 7, 1–5 (2018) (10.1016/j.softx.2017.11.002)

   => Composite Functional: B3LYP <= 

    B3LYP Hyb-GGA Exchange-Correlation Functional

    P. J. Stephens, F. J. Devlin, C. F. Chabalowski, and M. J. Frisch.,  J. Phys. Chem. 98, 11623 (1994) (10.1021/j100096a001)

    Deriv               =              1
    GGA                 =           TRUE
    Meta                =          FALSE

    Exchange Hybrid     =           TRUE
    MP2 Hybrid          =          FALSE

   => Exchange Functionals <=

    0.0800   Slater exchange
    0.7200         Becke 88

   => Exact (HF) Exchange <=

    0.2000               HF 

   => Correlation Functionals <=

    0.1900   Vosko, Wilk & Nusair (VWN5_RPA)
    0.8100   Lee, Yang & Parr

   => LibXC Density Thresholds  <==

    XC_HYB_GGA_XC_B3LYP:  1.00E-15 

   => Molecular Quadrature <=

    Radial Scheme          =       TREUTLER
    Pruning Scheme         =           NONE
    Nuclear Scheme         =       TREUTLER

    Blocking Scheme        =         OCTREE
    BS radius alpha        =              1
    Pruning alpha          =              1
    Radial Points          =             75
    Spherical Points       =            302
    Total Points           =          43596
    Total Blocks           =            401
    Max Points             =            254
    Max Functions          =             28
    Weights Tolerance      =       1.00E-15


  -Total Gradient:
     Atom            X                  Y                   Z
    ------   -----------------  -----------------  -----------------
       1        0.000000000000     0.000000000000    -0.000056711915
       2        0.000000000000    -0.000000000000    -0.000024768309


*** tstop() called on Joses-MacBook-Pro-2.local at Thu Jul 17 13:20:07 2025
Module time:
	user time   =       0.35 seconds =       0.01 minutes
	system time =       1.30 seconds =       0.02 minutes
	total time  =          0 seconds =       0.00 minutes
Total time:
	user time   =      37.22 seconds =       0.62 minutes
	system time =      73.68 seconds =       1.23 minutes
	total time  =         11 seconds =       0.18 minutes

    			-----------------------------------------

    			 OPTKING 3.0: for geometry optimizations 

    			     By R.A. King, Bethel University     

    			        with contributions from          

    			    A.V. Copan, J. Cayton, A. Heide      

    			-----------------------------------------

    
	                            ===> Fragment 1 <== 

	 Z (Atomic Numbers)          Masses                          Geom                  
	       4.000000             9.012183          0.00000000  0.00000000  2.52240358   
	      10.000000            19.992440          0.00000000  0.00000000 -1.13704794   

	 - Coordinate -           - BOHR/RAD -       - ANG/DEG -
	 R(1,2)           =         3.659452           1.936498


	        --- Internal Coordinate Step in ANG or DEG, aJ/ANG or AJ/DEG ---
	-------------------------------------------------------------------------------
	           Coordinate      Previous         Force          Change          New 
	           ----------      --------        ------          ------        ------
	               R(1,2)       1.93650        0.00013        0.00039       1.93688
	-------------------------------------------------------------------------------

	                                 ==> Convergence Check <==                                  
    
	Measures of convergence in internal coordinates in au.
    
	Criteria marked as inactive (o), active & met (*), and active & unmet ( ).

	----------------------------------------------------------------------------------------------
	   Step    Total Energy     Delta E     Max Force     RMS Force      Max Disp      RMS Disp   
	----------------------------------------------------------------------------------------------
	  Convergence Criteria     1.00e-06 *    3.00e-04 *             o    1.20e-03 *             o
	----------------------------------------------------------------------------------------------
	    13    -143.25891677   -4.78e-07 *    1.60e-05 *    1.60e-05 o    7.28e-04 *    7.28e-04 o  ~
	----------------------------------------------------------------------------------------------

Next Geometry in Ang 
	Fragment 1 (Ang)

	   Be   0.0000000000   0.0000000000   1.3349911779
	   Ne   0.0000000000   0.0000000000  -0.6018925411


    Final optimized geometry and variables:
    Molecular point group: c2v
    Full point group: C_inf_v

    Geometry (in Angstrom), charge = 1, multiplicity = 2:

    BE           0.000000000000     0.000000000000     1.334798492421
    NE           0.000000000000     0.000000000000    -0.601699855674


    Psi4 stopped on: Thursday, 17 July 2025 01:20PM
    Psi4 wall time for execution: 0:00:12.06

*** Psi4 exiting successfully. Buy a developer a beer!
