
    -----------------------------------------------------------------------
          Psi4: An Open-Source Ab Initio Electronic Structure Package
                               Psi4 1.9.1 release

                         Git: Rev {} zzzzzzz 


    D. G. A. Smith, L. A. Burns, A. C. Simmonett, R. M. Parrish,
    M. C. Schieber, R. Galvelis, P. Kraus, H. Kruse, R. Di Remigio,
    A. Alenaizan, A. M. James, S. Lehtola, J. P. Misiewicz, M. Scheurer,
    R. A. Shaw, J. B. Schriber, Y. Xie, Z. L. Glick, D. A. Sirianni,
    J. S. O'Brien, J. M. Waldrop, A. Kumar, E. G. Hohenstein,
    B. P. Pritchard, B. R. Brooks, H. F. Schaefer III, A. Yu. Sokolov,
    K. Patkowski, A. E. DePrince III, U. Bozkaya, R. A. King,
    F. A. Evangelista, J. M. Turney, T. D. Crawford, C. D. Sherrill,
    J. Chem. Phys. 152(18) 184108 (2020). https://doi.org/10.1063/5.0006002

                            Additional Code Authors
    E. T. Seidl, C. L. Janssen, E. F. Valeev, M. L. Leininger,
    J. F. Gonthier, R. M. Richard, H. R. McAlexander, M. Saitow, X. Wang,
    P. Verma, M. H. Lechner, A. Jiang, S. Behnle, A. G. Heide,
    M. F. Herbst, and D. L. Poole

             Previous Authors, Complete List of Code Contributors,
                       and Citations for Specific Modules
    https://github.com/psi4/psi4/blob/master/codemeta.json
    https://github.com/psi4/psi4/graphs/contributors
    http://psicode.org/psi4manual/master/introduction.html#citing-psifour

    -----------------------------------------------------------------------


    Psi4 started on: Thursday, 17 July 2025 02:06PM

    Process ID: 74583
    Host:       Joses-MacBook-Pro-2.local
    PSIDATADIR: /Users/joseantoniorodriguesromero/anaconda3/share/psi4
    Memory:     500.0 MiB
    Threads:    1
    
  ==> Input File <==

--------------------------------------------------------------------------
molecule { 
1 2
O   0.00000        0.60000        0.00000
Mg   0.00000       -0.60000        0.00000
}

set { 
basis              cc-pvdz
reference          uks
maxiter            500
geom_maxiter       500
DAMPING_PERCENTAGE 1
guess              SAP
}

optimize('b3lyp')
--------------------------------------------------------------------------

Scratch directory: /tmp/
gradient() will perform analytic gradient computation.
   => Libint2 <=

    Primary   basis highest AM E, G, H:  6, 6, 3
    Auxiliary basis highest AM E, G, H:  7, 7, 4
    Onebody   basis highest AM E, G, H:  -, -, -
    Solid Harmonics ordering:            Gaussian

*** tstart() called on Joses-MacBook-Pro-2.local
*** at Thu Jul 17 14:06:48 2025

   => Loading Basis Set <=

    Name: CC-PVDZ
    Role: ORBITAL
    Keyword: BASIS
    atoms 1 entry O          line   198 file /Users/joseantoniorodriguesromero/anaconda3/share/psi4/basis/cc-pvdz.gbs 
    atoms 2 entry MG         line   353 file /Users/joseantoniorodriguesromero/anaconda3/share/psi4/basis/cc-pvdz.gbs 


         ---------------------------------------------------------
                                   SCF
               by Justin Turney, Rob Parrish, Andy Simmonett
                          and Daniel G. A. Smith
                              UKS Reference
                        1 Threads,    500 MiB Core
         ---------------------------------------------------------

  ==> Geometry <==

    Molecular point group: c2v
    Full point group: C_inf_v

    Geometry (in Angstrom), charge = 1, multiplicity = 2:

       Center              X                  Y                   Z               Mass       
    ------------   -----------------  -----------------  -----------------  -----------------
         O            0.000000000000     0.000000000000     0.719911993112    15.994914619570
         MG           0.000000000000     0.000000000000    -0.480088006888    23.985041697000

  Running in c2v symmetry.

  Rotational constants: A = ************  B =      1.21998  C =      1.21998 [cm^-1]
  Rotational constants: A = ************  B =  36574.18173  C =  36574.18173 [MHz]
  Nuclear repulsion =   42.334176853600006

  Charge       = 1
  Multiplicity = 2
  Electrons    = 19
  Nalpha       = 10
  Nbeta        = 9

  ==> Algorithm <==

  SCF Algorithm Type is DF.
  DIIS enabled.
  MOM disabled.
  Fractional occupation disabled.
  Guess Type is SAP.
  Energy threshold   = 1.00e-08
  Density threshold  = 1.00e-08
  Integral threshold = 1.00e-12

  ==> Primary Basis <==

  Basis Set: CC-PVDZ
    Blend: CC-PVDZ
    Number of shells: 14
    Number of basis functions: 32
    Number of Cartesian functions: 34
    Spherical Harmonics?: true
    Max angular momentum: 2

  ==> DFT Potential <==

   => LibXC <=

    Version 6.2.2
    S. Lehtola, C. Steigemann, M. J.T. Oliveira, and M. A.L. Marques.,  SoftwareX 7, 1–5 (2018) (10.1016/j.softx.2017.11.002)

   => Composite Functional: B3LYP <= 

    B3LYP Hyb-GGA Exchange-Correlation Functional

    P. J. Stephens, F. J. Devlin, C. F. Chabalowski, and M. J. Frisch.,  J. Phys. Chem. 98, 11623 (1994) (10.1021/j100096a001)

    Deriv               =              1
    GGA                 =           TRUE
    Meta                =          FALSE

    Exchange Hybrid     =           TRUE
    MP2 Hybrid          =          FALSE

   => Exchange Functionals <=

    0.0800   Slater exchange
    0.7200         Becke 88

   => Exact (HF) Exchange <=

    0.2000               HF 

   => Correlation Functionals <=

    0.1900   Vosko, Wilk & Nusair (VWN5_RPA)
    0.8100   Lee, Yang & Parr

   => LibXC Density Thresholds  <==

    XC_HYB_GGA_XC_B3LYP:  1.00E-15 

   => Molecular Quadrature <=

    Radial Scheme          =       TREUTLER
    Pruning Scheme         =           NONE
    Nuclear Scheme         =       TREUTLER

    Blocking Scheme        =         OCTREE
    BS radius alpha        =              1
    Pruning alpha          =              1
    Radial Points          =             75
    Spherical Points       =            302
    Total Points           =          43340
    Total Blocks           =            405
    Max Points             =            254
    Max Functions          =             32
    Weights Tolerance      =       1.00E-15

   => Loading Basis Set <=

    Name: (CC-PVDZ AUX)
    Role: JKFIT
    Keyword: DF_BASIS_SCF
    atoms 1 entry O          line   221 file /Users/joseantoniorodriguesromero/anaconda3/share/psi4/basis/cc-pvdz-jkfit.gbs 
    atoms 2 entry MG         line   576 file /Users/joseantoniorodriguesromero/anaconda3/share/psi4/basis/def2-universal-jkfit.gbs 

  ==> Integral Setup <==

  DFHelper Memory: AOs need 0.002 GiB; user supplied 0.328 GiB. 
  Using in-core AOs.

  ==> MemDFJK: Density-Fitted J/K Matrices <==

    J tasked:                   Yes
    K tasked:                   Yes
    wK tasked:                   No
    OpenMP threads:               1
    Memory [MiB]:               335
    Algorithm:                 Core
    Schwarz Cutoff:           1E-12
    Mask sparsity (%):       0.0000
    Fitting Condition:        1E-10

   => Auxiliary Basis Set <=

  Basis Set: (CC-PVDZ AUX)
    Blend: CC-PVDZ-JKFIT + DEF2-UNIVERSAL-JKFIT
    Number of shells: 58
    Number of basis functions: 182
    Number of Cartesian functions: 218
    Spherical Harmonics?: true
    Max angular momentum: 4

  Cached 100.0% of DFT collocation blocks in 0.038 [GiB].

  Minimum eigenvalue in the overlap matrix is 5.5230703106E-03.
  Reciprocal condition number of the overlap matrix is 1.8961473576E-03.
    Using symmetric orthogonalization.

  ==> Pre-Iterations <==

  SCF Guess: Superposition of Atomic Potentials (doi:10.1021/acs.jctc.8b01089).

  ==> SAP guess <==

   => Molecular Quadrature <=

    Radial Scheme          =       TREUTLER
    Pruning Scheme         =           NONE
    Nuclear Scheme         =       TREUTLER

    Blocking Scheme        =         OCTREE
    BS radius alpha        =              1
    Pruning alpha          =              1
    Radial Points          =             75
    Spherical Points       =            302
    Total Points           =          43340
    Total Blocks           =            405
    Max Points             =            254
    Max Functions          =             32
    Weights Tolerance      =       1.00E-15

   -------------------------------------------------------
    Irrep   Nso     Nmo     Nalpha   Nbeta   Ndocc  Nsocc
   -------------------------------------------------------
     A1        16      16       6       5       5       1
     A2         2       2       0       0       0       0
     B1         7       7       2       2       2       0
     B2         7       7       2       2       2       0
   -------------------------------------------------------
    Total      32      32      10       9       9       1
   -------------------------------------------------------

  ==> Iterations <==

                           Total Energy        Delta E     RMS |[F,P]|

    Occupation by irrep:
             A1    A2    B1    B2 
    DOCC [     6,    0,    1,    2 ]
    SOCC [     0,    0,    1,    0 ]
    NA   [     6,    0,    2,    2 ]
    NB   [     6,    0,    1,    2 ]

   @DF-UKS iter   1:  -274.36347781968891   -2.74363e+02   3.67933e-02 DIIS/ADIIS
    Occupation by irrep:
             A1    A2    B1    B2 
    DOCC [     5,    0,    2,    2 ]
    SOCC [     1,    0,    0,    0 ]
    NA   [     6,    0,    2,    2 ]
    NB   [     5,    0,    2,    2 ]

   @DF-UKS iter   2:  -272.86623433781045    1.49724e+00   8.69282e-02 DIIS/ADIIS/DAMP=1%
   @DF-UKS iter   3:  -274.44898843247927   -1.58275e+00   2.02803e-02 DIIS/ADIIS/DAMP=1%
   @DF-UKS iter   4:  -274.55187408447267   -1.02886e-01   8.20846e-04 DIIS/ADIIS/DAMP=1%
   @DF-UKS iter   5:  -274.56460717871130   -1.27331e-02   1.82500e-04 DIIS/ADIIS/DAMP=1%
   @DF-UKS iter   6:  -274.56405994247268    5.47236e-04   4.23774e-05 DIIS/DAMP=1%
   @DF-UKS iter   7:  -274.56419283224585   -1.32890e-04   8.58313e-06 DIIS/DAMP=1%
   @DF-UKS iter   8:  -274.56418439828917    8.43396e-06   3.07832e-06 DIIS/DAMP=1%
   @DF-UKS iter   9:  -274.56417903594536    5.36234e-06   8.12469e-07 DIIS/DAMP=1%
   @DF-UKS iter  10:  -274.56417983296399   -7.97019e-07   1.85448e-08 DIIS/DAMP=1%
   @DF-UKS iter  11:  -274.56418028040707   -4.47443e-07   1.29712e-08 DIIS/DAMP=1%
   @DF-UKS iter  12:  -274.56418026611635    1.42907e-08   1.23983e-09 DIIS/DAMP=1%
   @DF-UKS iter  13:  -274.56418027376355   -7.64720e-09   1.03021e-10 DIIS/DAMP=1%
  Energy and wave function converged.


  ==> Post-Iterations <==

   Electrons on quadrature grid:
      Nalpha   =    9.9999999497 ; deviation = -5.029e-08
      Nbeta    =    8.9999996567 ; deviation = -3.433e-07
      Ntotal   =   18.9999996064 ; deviation = -3.936e-07 

   @Spin Contamination Metric:   2.617282508E-03
   @S^2 Expected:                7.500000000E-01
   @S^2 Observed:                7.526172825E-01
   @S   Expected:                5.000000000E-01
   @S   Observed:                5.000000000E-01

    Orbital Energies [Eh]
    ---------------------

    Alpha Occupied:                                                       

       1A1   -47.138040     2A1   -19.374092     3A1    -3.482851  
       4A1    -2.276784     1B2    -2.206155     1B1    -2.206155  
       5A1    -1.163647     2B1    -0.608640     2B2    -0.608640  
       6A1    -0.605178  

    Alpha Virtual:                                                        

       7A1    -0.354523     3B2    -0.202478     3B1    -0.202478  
       8A1    -0.146293     9A1    -0.072943     4B2    -0.020228  
       4B1    -0.020228    10A1     0.018856     1A2     0.065609  
      11A1     0.065610     5B1     0.199331     5B2     0.199331  
      12A1     0.314390    13A1     0.834468     6B1     0.868975  
       6B2     0.868975    14A1     1.733651     7B1     2.306984  
       7B2     2.306984     2A2     2.342217    15A1     2.342229  
      16A1     2.417210  

    Beta Occupied:                                                        

       1A1   -47.133251     2A1   -19.346535     3A1    -3.474606  
       4A1    -2.260933     1B1    -2.201933     1B2    -2.201933  
       5A1    -1.090186     2B2    -0.582428     2B1    -0.582428  

    Beta Virtual:                                                         

       6A1    -0.393495     7A1    -0.310178     3B1    -0.200638  
       3B2    -0.200638     8A1    -0.140589     9A1    -0.069916  
       4B1    -0.019714     4B2    -0.019714    10A1     0.030182  
       1A2     0.065088    11A1     0.065088     5B1     0.206142  
       5B2     0.206142    12A1     0.321671     6B2     0.886901  
       6B1     0.886901    13A1     0.918383    14A1     1.769098  
       2A2     2.357607    15A1     2.357618     7B2     2.384647  
       7B1     2.384647    16A1     2.514876  

    Final Occupation by Irrep:
             A1    A2    B1    B2 
    DOCC [     5,    0,    2,    2 ]
    SOCC [     1,    0,    0,    0 ]
    NA   [     6,    0,    2,    2 ]
    NB   [     5,    0,    2,    2 ]

  @DF-UKS Final Energy:  -274.56418027376355

   => Energetics <=

    Nuclear Repulsion Energy =             42.3341768536000060
    One-Electron Energy =                -460.7308825961149523
    Two-Electron Energy =                 164.1371737683788581
    DFT Exchange-Correlation Energy =     -20.3046482996274875
    Empirical Dispersion Energy =           0.0000000000000000
    VV10 Nonlocal Energy =                  0.0000000000000000
    Total Energy =                       -274.5641802737635544

  UHF NO Occupations:
  HONO-2 :    2 B1 1.9996236
  HONO-1 :    5 A1 1.9994595
  HONO-0 :    6 A1 1.0000000
  LUNO+0 :    7 A1 0.0005405
  LUNO+1 :    3 B1 0.0003764
  LUNO+2 :    3 B2 0.0003764
  LUNO+3 :    8 A1 0.0000151


Computation Completed


Properties will be evaluated at   0.000000,   0.000000,   0.000000 [a0]

Properties computed using the SCF density matrix


 Multipole Moments:

 ------------------------------------------------------------------------------------
     Multipole            Electronic (a.u.)      Nuclear  (a.u.)        Total (a.u.)
 ------------------------------------------------------------------------------------

 L = 1.  Multiply by 2.5417464519 to convert [e a0] to [Debye]
 Dipole X            :          0.0000000            0.0000000            0.0000000
 Dipole Y            :          0.0000000            0.0000000            0.0000000
 Dipole Z            :         -2.4951189           -0.0033262           -2.4984451
 Magnitude           :                                                    2.4984451

 ------------------------------------------------------------------------------------

*** tstop() called on Joses-MacBook-Pro-2.local at Thu Jul 17 14:06:50 2025
Module time:
	user time   =       3.08 seconds =       0.05 minutes
	system time =       7.41 seconds =       0.12 minutes
	total time  =          2 seconds =       0.03 minutes
Total time:
	user time   =       3.08 seconds =       0.05 minutes
	system time =       7.41 seconds =       0.12 minutes
	total time  =          2 seconds =       0.03 minutes

*** tstart() called on Joses-MacBook-Pro-2.local
*** at Thu Jul 17 14:06:50 2025


         ------------------------------------------------------------
                                   SCF GRAD                          
                          Rob Parrish, Justin Turney,                
                       Andy Simmonett, and Alex Sokolov              
         ------------------------------------------------------------

  ==> Geometry <==

    Molecular point group: c2v
    Full point group: C_inf_v

    Geometry (in Angstrom), charge = 1, multiplicity = 2:

       Center              X                  Y                   Z               Mass       
    ------------   -----------------  -----------------  -----------------  -----------------
         O            0.000000000000     0.000000000000     0.719911993112    15.994914619570
         MG           0.000000000000     0.000000000000    -0.480088006888    23.985041697000

  Nuclear repulsion =   42.334176853600006

  ==> Basis Set <==

  Basis Set: CC-PVDZ
    Blend: CC-PVDZ
    Number of shells: 14
    Number of basis functions: 32
    Number of Cartesian functions: 34
    Spherical Harmonics?: true
    Max angular momentum: 2

  ==> DFJKGrad: Density-Fitted SCF Gradients <==

    Gradient:                    1
    J tasked:                  Yes
    K tasked:                  Yes
    wK tasked:                  No
    OpenMP threads:              1
    Integrals threads:           1
    Memory [MiB]:              375
    Schwarz Cutoff:          1E-12
    Fitting Condition:       1E-10

   => Auxiliary Basis Set <=

  Basis Set: (CC-PVDZ AUX)
    Blend: CC-PVDZ-JKFIT + DEF2-UNIVERSAL-JKFIT
    Number of shells: 58
    Number of basis functions: 182
    Number of Cartesian functions: 218
    Spherical Harmonics?: true
    Max angular momentum: 4

  ==> DFT Potential <==

   => LibXC <=

    Version 6.2.2
    S. Lehtola, C. Steigemann, M. J.T. Oliveira, and M. A.L. Marques.,  SoftwareX 7, 1–5 (2018) (10.1016/j.softx.2017.11.002)

   => Composite Functional: B3LYP <= 

    B3LYP Hyb-GGA Exchange-Correlation Functional

    P. J. Stephens, F. J. Devlin, C. F. Chabalowski, and M. J. Frisch.,  J. Phys. Chem. 98, 11623 (1994) (10.1021/j100096a001)

    Deriv               =              1
    GGA                 =           TRUE
    Meta                =          FALSE

    Exchange Hybrid     =           TRUE
    MP2 Hybrid          =          FALSE

   => Exchange Functionals <=

    0.0800   Slater exchange
    0.7200         Becke 88

   => Exact (HF) Exchange <=

    0.2000               HF 

   => Correlation Functionals <=

    0.1900   Vosko, Wilk & Nusair (VWN5_RPA)
    0.8100   Lee, Yang & Parr

   => LibXC Density Thresholds  <==

    XC_HYB_GGA_XC_B3LYP:  1.00E-15 

   => Molecular Quadrature <=

    Radial Scheme          =       TREUTLER
    Pruning Scheme         =           NONE
    Nuclear Scheme         =       TREUTLER

    Blocking Scheme        =         OCTREE
    BS radius alpha        =              1
    Pruning alpha          =              1
    Radial Points          =             75
    Spherical Points       =            302
    Total Points           =          43340
    Total Blocks           =            405
    Max Points             =            254
    Max Functions          =             32
    Weights Tolerance      =       1.00E-15


  -Total Gradient:
     Atom            X                  Y                   Z
    ------   -----------------  -----------------  -----------------
       1       -0.000000000000     0.000000000000    -1.084622352109
       2        0.000000000000     0.000000000000     1.084548707356


*** tstop() called on Joses-MacBook-Pro-2.local at Thu Jul 17 14:06:50 2025
Module time:
	user time   =       0.60 seconds =       0.01 minutes
	system time =       1.84 seconds =       0.03 minutes
	total time  =          0 seconds =       0.00 minutes
Total time:
	user time   =       3.69 seconds =       0.06 minutes
	system time =       9.26 seconds =       0.15 minutes
	total time  =          2 seconds =       0.03 minutes

    			-----------------------------------------

    			 OPTKING 3.0: for geometry optimizations 

    			     By R.A. King, Bethel University     

    			        with contributions from          

    			    A.V. Copan, J. Cayton, A. Heide      

    			-----------------------------------------

    
	                            ===> Fragment 1 <== 

	 Z (Atomic Numbers)          Masses                          Geom                  
	       8.000000            15.994915          0.00000000  0.00000000  1.36043650   
	      12.000000            23.985042          0.00000000  0.00000000 -0.90723485   

	 - Coordinate -           - BOHR/RAD -       - ANG/DEG -
	 R(1,2)           =         2.267671           1.200000


	        --- Internal Coordinate Step in ANG or DEG, aJ/ANG or AJ/DEG ---
	-------------------------------------------------------------------------------
	           Coordinate      Previous         Force          Change          New 
	           ----------      --------        ------          ------        ------
	               R(1,2)       1.20000        8.93560        0.12907       1.32907
	-------------------------------------------------------------------------------

	                                 ==> Convergence Check <==                                  
    
	Measures of convergence in internal coordinates in au.
    
	Criteria marked as inactive (o), active & met (*), and active & unmet ( ).

	----------------------------------------------------------------------------------------------
	   Step    Total Energy     Delta E     Max Force     RMS Force      Max Disp      RMS Disp   
	----------------------------------------------------------------------------------------------
	  Convergence Criteria     1.00e-06 *    3.00e-04 *             o    1.20e-03 *             o
	----------------------------------------------------------------------------------------------
	     1    -274.56418027   -2.75e+02      1.08e+00      1.08e+00 o    2.44e-01      2.44e-01 o  ~
	----------------------------------------------------------------------------------------------

Next Geometry in Ang 
	Fragment 1 (Ang)

	    O   0.0000000000   0.0000000000   0.7844464718
	   Mg   0.0000000000   0.0000000000  -0.5446224855


    Structure for next step:
    Molecular point group: c2v
    Full point group: C_inf_v

    Geometry (in Angstrom), charge = 1, multiplicity = 2:

    O            0.000000000000     0.000000000000     0.797343901707
    MG           0.000000000000     0.000000000000    -0.531725055614


Scratch directory: /tmp/
gradient() will perform analytic gradient computation.
   => Libint2 <=

    Primary   basis highest AM E, G, H:  6, 6, 3
    Auxiliary basis highest AM E, G, H:  7, 7, 4
    Onebody   basis highest AM E, G, H:  -, -, -
    Solid Harmonics ordering:            Gaussian

*** tstart() called on Joses-MacBook-Pro-2.local
*** at Thu Jul 17 14:06:50 2025

   => Loading Basis Set <=

    Name: CC-PVDZ
    Role: ORBITAL
    Keyword: BASIS
    atoms 1 entry O          line   198 file /Users/joseantoniorodriguesromero/anaconda3/share/psi4/basis/cc-pvdz.gbs 
    atoms 2 entry MG         line   353 file /Users/joseantoniorodriguesromero/anaconda3/share/psi4/basis/cc-pvdz.gbs 


         ---------------------------------------------------------
                                   SCF
               by Justin Turney, Rob Parrish, Andy Simmonett
                          and Daniel G. A. Smith
                              UKS Reference
                        1 Threads,    500 MiB Core
         ---------------------------------------------------------

  ==> Geometry <==

    Molecular point group: c2v
    Full point group: C_inf_v

    Geometry (in Angstrom), charge = 1, multiplicity = 2:

       Center              X                  Y                   Z               Mass       
    ------------   -----------------  -----------------  -----------------  -----------------
         O            0.000000000000     0.000000000000     0.797343901707    15.994914619570
         MG           0.000000000000     0.000000000000    -0.531725055614    23.985041697000

  Running in c2v symmetry.

  Rotational constants: A = ************  B =      0.99454  C =      0.99454 [cm^-1]
  Rotational constants: A = ************  B =  29815.49897  C =  29815.49897 [MHz]
  Nuclear repulsion =   38.223007124259794

  Charge       = 1
  Multiplicity = 2
  Electrons    = 19
  Nalpha       = 10
  Nbeta        = 9

  ==> Algorithm <==

  SCF Algorithm Type is DF.
  DIIS enabled.
  MOM disabled.
  Fractional occupation disabled.
  Guess Type is READ.
  Energy threshold   = 1.00e-08
  Density threshold  = 1.00e-08
  Integral threshold = 1.00e-12

  ==> Primary Basis <==

  Basis Set: CC-PVDZ
    Blend: CC-PVDZ
    Number of shells: 14
    Number of basis functions: 32
    Number of Cartesian functions: 34
    Spherical Harmonics?: true
    Max angular momentum: 2

  ==> DFT Potential <==

   => LibXC <=

    Version 6.2.2
    S. Lehtola, C. Steigemann, M. J.T. Oliveira, and M. A.L. Marques.,  SoftwareX 7, 1–5 (2018) (10.1016/j.softx.2017.11.002)

   => Composite Functional: B3LYP <= 

    B3LYP Hyb-GGA Exchange-Correlation Functional

    P. J. Stephens, F. J. Devlin, C. F. Chabalowski, and M. J. Frisch.,  J. Phys. Chem. 98, 11623 (1994) (10.1021/j100096a001)

    Deriv               =              1
    GGA                 =           TRUE
    Meta                =          FALSE

    Exchange Hybrid     =           TRUE
    MP2 Hybrid          =          FALSE

   => Exchange Functionals <=

    0.0800   Slater exchange
    0.7200         Becke 88

   => Exact (HF) Exchange <=

    0.2000               HF 

   => Correlation Functionals <=

    0.1900   Vosko, Wilk & Nusair (VWN5_RPA)
    0.8100   Lee, Yang & Parr

   => LibXC Density Thresholds  <==

    XC_HYB_GGA_XC_B3LYP:  1.00E-15 

   => Molecular Quadrature <=

    Radial Scheme          =       TREUTLER
    Pruning Scheme         =           NONE
    Nuclear Scheme         =       TREUTLER

    Blocking Scheme        =         OCTREE
    BS radius alpha        =              1
    Pruning alpha          =              1
    Radial Points          =             75
    Spherical Points       =            302
    Total Points           =          43365
    Total Blocks           =            405
    Max Points             =            256
    Max Functions          =             32
    Weights Tolerance      =       1.00E-15

   => Loading Basis Set <=

    Name: (CC-PVDZ AUX)
    Role: JKFIT
    Keyword: DF_BASIS_SCF
    atoms 1 entry O          line   221 file /Users/joseantoniorodriguesromero/anaconda3/share/psi4/basis/cc-pvdz-jkfit.gbs 
    atoms 2 entry MG         line   576 file /Users/joseantoniorodriguesromero/anaconda3/share/psi4/basis/def2-universal-jkfit.gbs 

   => Loading Basis Set <=

    Name: CC-PVDZ
    Role: ORBITAL
    Keyword: BASIS
    atoms 1 entry O          line   198 file /Users/joseantoniorodriguesromero/anaconda3/share/psi4/basis/cc-pvdz.gbs 
    atoms 2 entry MG         line   353 file /Users/joseantoniorodriguesromero/anaconda3/share/psi4/basis/cc-pvdz.gbs 

  Reading orbitals from file /tmp/doublet_OMg.default.74583.180.npy, no projection.

  ==> Integral Setup <==

  DFHelper Memory: AOs need 0.002 GiB; user supplied 0.328 GiB. 
  Using in-core AOs.

  ==> MemDFJK: Density-Fitted J/K Matrices <==

    J tasked:                   Yes
    K tasked:                   Yes
    wK tasked:                   No
    OpenMP threads:               1
    Memory [MiB]:               335
    Algorithm:                 Core
    Schwarz Cutoff:           1E-12
    Mask sparsity (%):       0.0000
    Fitting Condition:        1E-10

   => Auxiliary Basis Set <=

  Basis Set: (CC-PVDZ AUX)
    Blend: CC-PVDZ-JKFIT + DEF2-UNIVERSAL-JKFIT
    Number of shells: 58
    Number of basis functions: 182
    Number of Cartesian functions: 218
    Spherical Harmonics?: true
    Max angular momentum: 4

  Cached 100.0% of DFT collocation blocks in 0.038 [GiB].

  Minimum eigenvalue in the overlap matrix is 5.5022993455E-03.
  Reciprocal condition number of the overlap matrix is 1.8917694195E-03.
    Using symmetric orthogonalization.

  ==> Pre-Iterations <==

  SCF Guess: Orbitals guess was supplied from a previous computation.

   -------------------------------------------------------
    Irrep   Nso     Nmo     Nalpha   Nbeta   Ndocc  Nsocc
   -------------------------------------------------------
     A1        16      16       6       5       5       1
     A2         2       2       0       0       0       0
     B1         7       7       2       2       2       0
     B2         7       7       2       2       2       0
   -------------------------------------------------------
    Total      32      32      10       9       9       1
   -------------------------------------------------------

  ==> Iterations <==

                           Total Energy        Delta E     RMS |[F,P]|

   @DF-UKS iter   0:  -274.77415576425136   -2.74774e+02   3.23160e-02 
   @DF-UKS iter   1:  -274.74759191565573    2.65638e-02   8.95657e-03 DIIS/ADIIS
   @DF-UKS iter   2:  -274.73780864255707    9.78327e-03   1.23293e-02 DIIS/ADIIS/DAMP=1%
   @DF-UKS iter   3:  -274.76537469546798   -2.75661e-02   5.04048e-04 DIIS/ADIIS/DAMP=1%
   @DF-UKS iter   4:  -274.75992263152961    5.45206e-03   1.41011e-04 DIIS/ADIIS/DAMP=1%
   @DF-UKS iter   5:  -274.75975645355618    1.66178e-04   2.46589e-05 DIIS/DAMP=1%
   @DF-UKS iter   6:  -274.75969784551859    5.86080e-05   6.15631e-06 DIIS/DAMP=1%
   @DF-UKS iter   7:  -274.75969413724812    3.70827e-06   2.07174e-07 DIIS/DAMP=1%
   @DF-UKS iter   8:  -274.75969729188199   -3.15463e-06   3.52063e-08 DIIS/DAMP=1%
   @DF-UKS iter   9:  -274.75969722242257    6.94594e-08   6.26261e-09 DIIS/DAMP=1%
   @DF-UKS iter  10:  -274.75969723637320   -1.39506e-08   8.02577e-10 DIIS/DAMP=1%
   @DF-UKS iter  11:  -274.75969723399447    2.37873e-09   9.52786e-11 DIIS/DAMP=1%
  Energy and wave function converged.


  ==> Post-Iterations <==

   Electrons on quadrature grid:
      Nalpha   =    9.9999998349 ; deviation = -1.651e-07
      Nbeta    =    8.9999997252 ; deviation = -2.748e-07
      Ntotal   =   18.9999995601 ; deviation = -4.399e-07 

   @Spin Contamination Metric:   2.895593410E-03
   @S^2 Expected:                7.500000000E-01
   @S^2 Observed:                7.528955934E-01
   @S   Expected:                5.000000000E-01
   @S   Observed:                5.000000000E-01

    Orbital Energies [Eh]
    ---------------------

    Alpha Occupied:                                                       

       1A1   -47.149426     2A1   -19.373863     3A1    -3.465372  
       4A1    -2.235103     1B1    -2.199217     1B2    -2.199217  
       5A1    -1.172287     6A1    -0.629307     2B2    -0.581171  
       2B1    -0.581171  

    Alpha Virtual:                                                        

       7A1    -0.359904     3B1    -0.206248     3B2    -0.206248  
       8A1    -0.146784     9A1    -0.075141     4B1    -0.022901  
       4B2    -0.022901    10A1     0.021474    11A1     0.067404  
       1A2     0.067404     5B1     0.182651     5B2     0.182651  
      12A1     0.307721    13A1     0.841527     6B1     0.858280  
       6B2     0.858280    14A1     1.754108    15A1     2.304679  
       7B2     2.355016     7B1     2.355016     2A2     2.364599  
      16A1     2.364608  

    Beta Occupied:                                                        

       1A1   -47.146528     2A1   -19.347170     3A1    -3.460564  
       4A1    -2.225257     1B1    -2.196731     1B2    -2.196731  
       5A1    -1.098112     2B2    -0.554398     2B1    -0.554398  

    Beta Virtual:                                                         

       6A1    -0.405488     7A1    -0.327783     3B1    -0.204004  
       3B2    -0.204004     8A1    -0.142167     9A1    -0.073221  
       4B1    -0.022210     4B2    -0.022210    10A1     0.032368  
      11A1     0.067237     1A2     0.067237     5B1     0.190275  
       5B2     0.190275    12A1     0.314807     6B1     0.875868  
       6B2     0.875868    13A1     0.930246    14A1     1.785830  
       2A2     2.380902    15A1     2.380912    16A1     2.411171  
       7B2     2.434844     7B1     2.434844  

    Final Occupation by Irrep:
             A1    A2    B1    B2 
    DOCC [     5,    0,    2,    2 ]
    SOCC [     1,    0,    0,    0 ]
    NA   [     6,    0,    2,    2 ]
    NB   [     5,    0,    2,    2 ]

  @DF-UKS Final Energy:  -274.75969723399447

   => Energetics <=

    Nuclear Repulsion Energy =             38.2230071242597944
    One-Electron Energy =                -453.1349831320550265
    Two-Electron Energy =                 160.3729461844005471
    DFT Exchange-Correlation Energy =     -20.2206674105997735
    Empirical Dispersion Energy =           0.0000000000000000
    VV10 Nonlocal Energy =                  0.0000000000000000
    Total Energy =                       -274.7596972339944728

  UHF NO Occupations:
  HONO-2 :    2 B1 1.9995281
  HONO-1 :    5 A1 1.9995027
  HONO-0 :    6 A1 1.0000000
  LUNO+0 :    7 A1 0.0004973
  LUNO+1 :    3 B1 0.0004719
  LUNO+2 :    3 B2 0.0004719
  LUNO+3 :    8 A1 0.0000068


Computation Completed


Properties will be evaluated at   0.000000,   0.000000,   0.000000 [a0]

Properties computed using the SCF density matrix


 Multipole Moments:

 ------------------------------------------------------------------------------------
     Multipole            Electronic (a.u.)      Nuclear  (a.u.)        Total (a.u.)
 ------------------------------------------------------------------------------------

 L = 1.  Multiply by 2.5417464519 to convert [e a0] to [Debye]
 Dipole X            :          0.0000000            0.0000000            0.0000000
 Dipole Y            :          0.0000000            0.0000000            0.0000000
 Dipole Z            :         -2.6600520           -0.0036839           -2.6637359
 Magnitude           :                                                    2.6637359

 ------------------------------------------------------------------------------------

*** tstop() called on Joses-MacBook-Pro-2.local at Thu Jul 17 14:06:51 2025
Module time:
	user time   =       2.30 seconds =       0.04 minutes
	system time =       6.75 seconds =       0.11 minutes
	total time  =          1 seconds =       0.02 minutes
Total time:
	user time   =       6.03 seconds =       0.10 minutes
	system time =      16.25 seconds =       0.27 minutes
	total time  =          3 seconds =       0.05 minutes

*** tstart() called on Joses-MacBook-Pro-2.local
*** at Thu Jul 17 14:06:51 2025


         ------------------------------------------------------------
                                   SCF GRAD                          
                          Rob Parrish, Justin Turney,                
                       Andy Simmonett, and Alex Sokolov              
         ------------------------------------------------------------

  ==> Geometry <==

    Molecular point group: c2v
    Full point group: C_inf_v

    Geometry (in Angstrom), charge = 1, multiplicity = 2:

       Center              X                  Y                   Z               Mass       
    ------------   -----------------  -----------------  -----------------  -----------------
         O            0.000000000000     0.000000000000     0.797343901707    15.994914619570
         MG           0.000000000000     0.000000000000    -0.531725055614    23.985041697000

  Nuclear repulsion =   38.223007124259794

  ==> Basis Set <==

  Basis Set: CC-PVDZ
    Blend: CC-PVDZ
    Number of shells: 14
    Number of basis functions: 32
    Number of Cartesian functions: 34
    Spherical Harmonics?: true
    Max angular momentum: 2

  ==> DFJKGrad: Density-Fitted SCF Gradients <==

    Gradient:                    1
    J tasked:                  Yes
    K tasked:                  Yes
    wK tasked:                  No
    OpenMP threads:              1
    Integrals threads:           1
    Memory [MiB]:              375
    Schwarz Cutoff:          1E-12
    Fitting Condition:       1E-10

   => Auxiliary Basis Set <=

  Basis Set: (CC-PVDZ AUX)
    Blend: CC-PVDZ-JKFIT + DEF2-UNIVERSAL-JKFIT
    Number of shells: 58
    Number of basis functions: 182
    Number of Cartesian functions: 218
    Spherical Harmonics?: true
    Max angular momentum: 4

  ==> DFT Potential <==

   => LibXC <=

    Version 6.2.2
    S. Lehtola, C. Steigemann, M. J.T. Oliveira, and M. A.L. Marques.,  SoftwareX 7, 1–5 (2018) (10.1016/j.softx.2017.11.002)

   => Composite Functional: B3LYP <= 

    B3LYP Hyb-GGA Exchange-Correlation Functional

    P. J. Stephens, F. J. Devlin, C. F. Chabalowski, and M. J. Frisch.,  J. Phys. Chem. 98, 11623 (1994) (10.1021/j100096a001)

    Deriv               =              1
    GGA                 =           TRUE
    Meta                =          FALSE

    Exchange Hybrid     =           TRUE
    MP2 Hybrid          =          FALSE

   => Exchange Functionals <=

    0.0800   Slater exchange
    0.7200         Becke 88

   => Exact (HF) Exchange <=

    0.2000               HF 

   => Correlation Functionals <=

    0.1900   Vosko, Wilk & Nusair (VWN5_RPA)
    0.8100   Lee, Yang & Parr

   => LibXC Density Thresholds  <==

    XC_HYB_GGA_XC_B3LYP:  1.00E-15 

   => Molecular Quadrature <=

    Radial Scheme          =       TREUTLER
    Pruning Scheme         =           NONE
    Nuclear Scheme         =       TREUTLER

    Blocking Scheme        =         OCTREE
    BS radius alpha        =              1
    Pruning alpha          =              1
    Radial Points          =             75
    Spherical Points       =            302
    Total Points           =          43365
    Total Blocks           =            405
    Max Points             =            256
    Max Functions          =             32
    Weights Tolerance      =       1.00E-15


  -Total Gradient:
     Atom            X                  Y                   Z
    ------   -----------------  -----------------  -----------------
       1       -0.000000000000     0.000000000000    -0.564348596648
       2        0.000000000000    -0.000000000000     0.564302256072


*** tstop() called on Joses-MacBook-Pro-2.local at Thu Jul 17 14:06:51 2025
Module time:
	user time   =       0.73 seconds =       0.01 minutes
	system time =       2.12 seconds =       0.04 minutes
	total time  =          0 seconds =       0.00 minutes
Total time:
	user time   =       6.78 seconds =       0.11 minutes
	system time =      18.37 seconds =       0.31 minutes
	total time  =          3 seconds =       0.05 minutes

    			-----------------------------------------

    			 OPTKING 3.0: for geometry optimizations 

    			     By R.A. King, Bethel University     

    			        with contributions from          

    			    A.V. Copan, J. Cayton, A. Heide      

    			-----------------------------------------

    
	                            ===> Fragment 1 <== 

	 Z (Atomic Numbers)          Masses                          Geom                  
	       8.000000            15.994915          0.00000000  0.00000000  1.50676160   
	      12.000000            23.985042          0.00000000  0.00000000 -1.00481473   

	 - Coordinate -           - BOHR/RAD -       - ANG/DEG -
	 R(1,2)           =         2.511576           1.329069


	        --- Internal Coordinate Step in ANG or DEG, aJ/ANG or AJ/DEG ---
	-------------------------------------------------------------------------------
	           Coordinate      Previous         Force          Change          New 
	           ----------      --------        ------          ------        ------
	               R(1,2)       1.32907        4.64932        0.13137       1.46044
	-------------------------------------------------------------------------------

	                                 ==> Convergence Check <==                                  
    
	Measures of convergence in internal coordinates in au.
    
	Criteria marked as inactive (o), active & met (*), and active & unmet ( ).

	----------------------------------------------------------------------------------------------
	   Step    Total Energy     Delta E     Max Force     RMS Force      Max Disp      RMS Disp   
	----------------------------------------------------------------------------------------------
	  Convergence Criteria     1.00e-06 *    3.00e-04 *             o    1.20e-03 *             o
	----------------------------------------------------------------------------------------------
	     2    -274.75969723   -1.96e-01      5.64e-01      5.64e-01 o    2.48e-01      2.48e-01 o  ~
	----------------------------------------------------------------------------------------------

Next Geometry in Ang 
	Fragment 1 (Ang)

	    O   0.0000000000   0.0000000000   0.8630300976
	   Mg   0.0000000000   0.0000000000  -0.5974112515


    Structure for next step:
    Molecular point group: c2v
    Full point group: C_inf_v

    Geometry (in Angstrom), charge = 1, multiplicity = 2:

    O            0.000000000000     0.000000000000     0.876157702050
    MG           0.000000000000     0.000000000000    -0.584283647058


Scratch directory: /tmp/
gradient() will perform analytic gradient computation.
   => Libint2 <=

    Primary   basis highest AM E, G, H:  6, 6, 3
    Auxiliary basis highest AM E, G, H:  7, 7, 4
    Onebody   basis highest AM E, G, H:  -, -, -
    Solid Harmonics ordering:            Gaussian

*** tstart() called on Joses-MacBook-Pro-2.local
*** at Thu Jul 17 14:06:51 2025

   => Loading Basis Set <=

    Name: CC-PVDZ
    Role: ORBITAL
    Keyword: BASIS
    atoms 1 entry O          line   198 file /Users/joseantoniorodriguesromero/anaconda3/share/psi4/basis/cc-pvdz.gbs 
    atoms 2 entry MG         line   353 file /Users/joseantoniorodriguesromero/anaconda3/share/psi4/basis/cc-pvdz.gbs 


         ---------------------------------------------------------
                                   SCF
               by Justin Turney, Rob Parrish, Andy Simmonett
                          and Daniel G. A. Smith
                              UKS Reference
                        1 Threads,    500 MiB Core
         ---------------------------------------------------------

  ==> Geometry <==

    Molecular point group: c2v
    Full point group: C_inf_v

    Geometry (in Angstrom), charge = 1, multiplicity = 2:

       Center              X                  Y                   Z               Mass       
    ------------   -----------------  -----------------  -----------------  -----------------
         O            0.000000000000     0.000000000000     0.876157702050    15.994914619570
         MG           0.000000000000     0.000000000000    -0.584283647058    23.985041697000

  Running in c2v symmetry.

  Rotational constants: A = ************  B =      0.82366  C =      0.82366 [cm^-1]
  Rotational constants: A = ************  B =  24692.71646  C =  24692.71646 [MHz]
  Nuclear repulsion =   34.784698649710442

  Charge       = 1
  Multiplicity = 2
  Electrons    = 19
  Nalpha       = 10
  Nbeta        = 9

  ==> Algorithm <==

  SCF Algorithm Type is DF.
  DIIS enabled.
  MOM disabled.
  Fractional occupation disabled.
  Guess Type is READ.
  Energy threshold   = 1.00e-08
  Density threshold  = 1.00e-08
  Integral threshold = 1.00e-12

  ==> Primary Basis <==

  Basis Set: CC-PVDZ
    Blend: CC-PVDZ
    Number of shells: 14
    Number of basis functions: 32
    Number of Cartesian functions: 34
    Spherical Harmonics?: true
    Max angular momentum: 2

  ==> DFT Potential <==

   => LibXC <=

    Version 6.2.2
    S. Lehtola, C. Steigemann, M. J.T. Oliveira, and M. A.L. Marques.,  SoftwareX 7, 1–5 (2018) (10.1016/j.softx.2017.11.002)

   => Composite Functional: B3LYP <= 

    B3LYP Hyb-GGA Exchange-Correlation Functional

    P. J. Stephens, F. J. Devlin, C. F. Chabalowski, and M. J. Frisch.,  J. Phys. Chem. 98, 11623 (1994) (10.1021/j100096a001)

    Deriv               =              1
    GGA                 =           TRUE
    Meta                =          FALSE

    Exchange Hybrid     =           TRUE
    MP2 Hybrid          =          FALSE

   => Exchange Functionals <=

    0.0800   Slater exchange
    0.7200         Becke 88

   => Exact (HF) Exchange <=

    0.2000               HF 

   => Correlation Functionals <=

    0.1900   Vosko, Wilk & Nusair (VWN5_RPA)
    0.8100   Lee, Yang & Parr

   => LibXC Density Thresholds  <==

    XC_HYB_GGA_XC_B3LYP:  1.00E-15 

   => Molecular Quadrature <=

    Radial Scheme          =       TREUTLER
    Pruning Scheme         =           NONE
    Nuclear Scheme         =       TREUTLER

    Blocking Scheme        =         OCTREE
    BS radius alpha        =              1
    Pruning alpha          =              1
    Radial Points          =             75
    Spherical Points       =            302
    Total Points           =          43383
    Total Blocks           =            407
    Max Points             =            254
    Max Functions          =             32
    Weights Tolerance      =       1.00E-15

   => Loading Basis Set <=

    Name: (CC-PVDZ AUX)
    Role: JKFIT
    Keyword: DF_BASIS_SCF
    atoms 1 entry O          line   221 file /Users/joseantoniorodriguesromero/anaconda3/share/psi4/basis/cc-pvdz-jkfit.gbs 
    atoms 2 entry MG         line   576 file /Users/joseantoniorodriguesromero/anaconda3/share/psi4/basis/def2-universal-jkfit.gbs 

   => Loading Basis Set <=

    Name: CC-PVDZ
    Role: ORBITAL
    Keyword: BASIS
    atoms 1 entry O          line   198 file /Users/joseantoniorodriguesromero/anaconda3/share/psi4/basis/cc-pvdz.gbs 
    atoms 2 entry MG         line   353 file /Users/joseantoniorodriguesromero/anaconda3/share/psi4/basis/cc-pvdz.gbs 

  Reading orbitals from file /tmp/doublet_OMg.default.74583.180.npy, no projection.

  ==> Integral Setup <==

  DFHelper Memory: AOs need 0.002 GiB; user supplied 0.328 GiB. 
  Using in-core AOs.

  ==> MemDFJK: Density-Fitted J/K Matrices <==

    J tasked:                   Yes
    K tasked:                   Yes
    wK tasked:                   No
    OpenMP threads:               1
    Memory [MiB]:               335
    Algorithm:                 Core
    Schwarz Cutoff:           1E-12
    Mask sparsity (%):       0.0000
    Fitting Condition:        1E-10

   => Auxiliary Basis Set <=

  Basis Set: (CC-PVDZ AUX)
    Blend: CC-PVDZ-JKFIT + DEF2-UNIVERSAL-JKFIT
    Number of shells: 58
    Number of basis functions: 182
    Number of Cartesian functions: 218
    Spherical Harmonics?: true
    Max angular momentum: 4

  Cached 100.0% of DFT collocation blocks in 0.038 [GiB].

  Minimum eigenvalue in the overlap matrix is 5.8068304157E-03.
  Reciprocal condition number of the overlap matrix is 2.0044977988E-03.
    Using symmetric orthogonalization.

  ==> Pre-Iterations <==

  SCF Guess: Orbitals guess was supplied from a previous computation.

   -------------------------------------------------------
    Irrep   Nso     Nmo     Nalpha   Nbeta   Ndocc  Nsocc
   -------------------------------------------------------
     A1        16      16       6       5       5       1
     A2         2       2       0       0       0       0
     B1         7       7       2       2       2       0
     B2         7       7       2       2       2       0
   -------------------------------------------------------
    Total      32      32      10       9       9       1
   -------------------------------------------------------

  ==> Iterations <==

                           Total Energy        Delta E     RMS |[F,P]|

   @DF-UKS iter   0:  -274.85838175241389   -2.74858e+02   2.46008e-02 
   @DF-UKS iter   1:  -274.85431649421270    4.06526e-03   5.30526e-03 DIIS/ADIIS
   @DF-UKS iter   2:  -274.85014972245460    4.16677e-03   7.50271e-03 DIIS/ADIIS/DAMP=1%
   @DF-UKS iter   3:  -274.86195824299148   -1.18085e-02   3.37930e-04 DIIS/ADIIS/DAMP=1%
   @DF-UKS iter   4:  -274.85844658673699    3.51166e-03   6.94073e-05 DIIS/DAMP=1%
   @DF-UKS iter   5:  -274.85845099190419   -4.40517e-06   1.59420e-05 DIIS/DAMP=1%
   @DF-UKS iter   6:  -274.85841708634223    3.39056e-05   2.55435e-06 DIIS/DAMP=1%
   @DF-UKS iter   7:  -274.85841851477670   -1.42843e-06   2.64445e-07 DIIS/DAMP=1%
   @DF-UKS iter   8:  -274.85841997136237   -1.45659e-06   5.50757e-08 DIIS/DAMP=1%
   @DF-UKS iter   9:  -274.85841983361053    1.37752e-07   6.44073e-09 DIIS/DAMP=1%
   @DF-UKS iter  10:  -274.85841985423070   -2.06202e-08   1.75280e-10 DIIS/DAMP=1%
   @DF-UKS iter  11:  -274.85841985281218    1.41853e-09   2.48013e-11 DIIS/DAMP=1%
  Energy and wave function converged.


  ==> Post-Iterations <==

   Electrons on quadrature grid:
      Nalpha   =   10.0000033701 ; deviation = 3.370e-06
      Nbeta    =    9.0000035007 ; deviation = 3.501e-06
      Ntotal   =   19.0000068708 ; deviation = 6.871e-06 

   @Spin Contamination Metric:   3.040226679E-03
   @S^2 Expected:                7.500000000E-01
   @S^2 Observed:                7.530402267E-01
   @S   Expected:                5.000000000E-01
   @S   Observed:                5.000000000E-01

    Orbital Energies [Eh]
    ---------------------

    Alpha Occupied:                                                       

       1A1   -47.173192     2A1   -19.374069     3A1    -3.468210  
       4A1    -2.223830     1B1    -2.207250     1B2    -2.207250  
       5A1    -1.163422     6A1    -0.631591     2B1    -0.556341  
       2B2    -0.556341  

    Alpha Virtual:                                                        

       7A1    -0.366438     3B2    -0.212532     3B1    -0.212532  
       8A1    -0.149177     9A1    -0.078432     4B1    -0.026527  
       4B2    -0.026527    10A1     0.020921    11A1     0.066460  
       1A2     0.066461     5B1     0.161902     5B2     0.161902  
      12A1     0.308195    13A1     0.835413     6B2     0.851300  
       6B1     0.851300    14A1     1.758423    15A1     2.268814  
      16A1     2.383682     2A2     2.383702     7B1     2.387530  
       7B2     2.387530  

    Beta Occupied:                                                        

       1A1   -47.171336     2A1   -19.348443     3A1    -3.465203  
       4A1    -2.217928     1B1    -2.205688     1B2    -2.205688  
       5A1    -1.089817     2B1    -0.529370     2B2    -0.529370  

    Beta Virtual:                                                         

       6A1    -0.412468     7A1    -0.334809     3B2    -0.209902  
       3B1    -0.209902     8A1    -0.144835     9A1    -0.077158  
       4B1    -0.025786     4B2    -0.025786    10A1     0.032647  
      11A1     0.066743     1A2     0.066744     5B1     0.170372  
       5B2     0.170372    12A1     0.315483     6B2     0.868224  
       6B1     0.868224    13A1     0.926339    14A1     1.789207  
      15A1     2.377469    16A1     2.400279     2A2     2.400298  
       7B1     2.466923     7B2     2.466923  

    Final Occupation by Irrep:
             A1    A2    B1    B2 
    DOCC [     5,    0,    2,    2 ]
    SOCC [     1,    0,    0,    0 ]
    NA   [     6,    0,    2,    2 ]
    NB   [     5,    0,    2,    2 ]

  @DF-UKS Final Energy:  -274.85841985281218

   => Energetics <=

    Nuclear Repulsion Energy =             34.7846986497104425
    One-Electron Energy =                -446.5445501909675272
    Two-Electron Energy =                 157.0530094673233066
    DFT Exchange-Correlation Energy =     -20.1515777788783801
    Empirical Dispersion Energy =           0.0000000000000000
    VV10 Nonlocal Energy =                  0.0000000000000000
    Total Energy =                       -274.8584198528121760

  UHF NO Occupations:
  HONO-2 :    2 B2 1.9994601
  HONO-1 :    2 B1 1.9994601
  HONO-0 :    6 A1 1.0000000
  LUNO+0 :    3 B1 0.0005399
  LUNO+1 :    3 B2 0.0005399
  LUNO+2 :    7 A1 0.0004373
  LUNO+3 :    8 A1 0.0000032


Computation Completed


Properties will be evaluated at   0.000000,   0.000000,   0.000000 [a0]

Properties computed using the SCF density matrix


 Multipole Moments:

 ------------------------------------------------------------------------------------
     Multipole            Electronic (a.u.)      Nuclear  (a.u.)        Total (a.u.)
 ------------------------------------------------------------------------------------

 L = 1.  Multiply by 2.5417464519 to convert [e a0] to [Debye]
 Dipole X            :          0.0000000            0.0000000            0.0000000
 Dipole Y            :          0.0000000            0.0000000            0.0000000
 Dipole Z            :         -2.8473368           -0.0040481           -2.8513849
 Magnitude           :                                                    2.8513849

 ------------------------------------------------------------------------------------

*** tstop() called on Joses-MacBook-Pro-2.local at Thu Jul 17 14:06:52 2025
Module time:
	user time   =       2.88 seconds =       0.05 minutes
	system time =       6.63 seconds =       0.11 minutes
	total time  =          1 seconds =       0.02 minutes
Total time:
	user time   =       9.70 seconds =       0.16 minutes
	system time =      25.20 seconds =       0.42 minutes
	total time  =          4 seconds =       0.07 minutes

*** tstart() called on Joses-MacBook-Pro-2.local
*** at Thu Jul 17 14:06:52 2025


         ------------------------------------------------------------
                                   SCF GRAD                          
                          Rob Parrish, Justin Turney,                
                       Andy Simmonett, and Alex Sokolov              
         ------------------------------------------------------------

  ==> Geometry <==

    Molecular point group: c2v
    Full point group: C_inf_v

    Geometry (in Angstrom), charge = 1, multiplicity = 2:

       Center              X                  Y                   Z               Mass       
    ------------   -----------------  -----------------  -----------------  -----------------
         O            0.000000000000     0.000000000000     0.876157702050    15.994914619570
         MG           0.000000000000     0.000000000000    -0.584283647058    23.985041697000

  Nuclear repulsion =   34.784698649710442

  ==> Basis Set <==

  Basis Set: CC-PVDZ
    Blend: CC-PVDZ
    Number of shells: 14
    Number of basis functions: 32
    Number of Cartesian functions: 34
    Spherical Harmonics?: true
    Max angular momentum: 2

  ==> DFJKGrad: Density-Fitted SCF Gradients <==

    Gradient:                    1
    J tasked:                  Yes
    K tasked:                  Yes
    wK tasked:                  No
    OpenMP threads:              1
    Integrals threads:           1
    Memory [MiB]:              375
    Schwarz Cutoff:          1E-12
    Fitting Condition:       1E-10

   => Auxiliary Basis Set <=

  Basis Set: (CC-PVDZ AUX)
    Blend: CC-PVDZ-JKFIT + DEF2-UNIVERSAL-JKFIT
    Number of shells: 58
    Number of basis functions: 182
    Number of Cartesian functions: 218
    Spherical Harmonics?: true
    Max angular momentum: 4

  ==> DFT Potential <==

   => LibXC <=

    Version 6.2.2
    S. Lehtola, C. Steigemann, M. J.T. Oliveira, and M. A.L. Marques.,  SoftwareX 7, 1–5 (2018) (10.1016/j.softx.2017.11.002)

   => Composite Functional: B3LYP <= 

    B3LYP Hyb-GGA Exchange-Correlation Functional

    P. J. Stephens, F. J. Devlin, C. F. Chabalowski, and M. J. Frisch.,  J. Phys. Chem. 98, 11623 (1994) (10.1021/j100096a001)

    Deriv               =              1
    GGA                 =           TRUE
    Meta                =          FALSE

    Exchange Hybrid     =           TRUE
    MP2 Hybrid          =          FALSE

   => Exchange Functionals <=

    0.0800   Slater exchange
    0.7200         Becke 88

   => Exact (HF) Exchange <=

    0.2000               HF 

   => Correlation Functionals <=

    0.1900   Vosko, Wilk & Nusair (VWN5_RPA)
    0.8100   Lee, Yang & Parr

   => LibXC Density Thresholds  <==

    XC_HYB_GGA_XC_B3LYP:  1.00E-15 

   => Molecular Quadrature <=

    Radial Scheme          =       TREUTLER
    Pruning Scheme         =           NONE
    Nuclear Scheme         =       TREUTLER

    Blocking Scheme        =         OCTREE
    BS radius alpha        =              1
    Pruning alpha          =              1
    Radial Points          =             75
    Spherical Points       =            302
    Total Points           =          43383
    Total Blocks           =            407
    Max Points             =            254
    Max Functions          =             32
    Weights Tolerance      =       1.00E-15


  -Total Gradient:
     Atom            X                  Y                   Z
    ------   -----------------  -----------------  -----------------
       1       -0.000000000000     0.000000000000    -0.260533571153
       2       -0.000000000000     0.000000000000     0.260494059260


*** tstop() called on Joses-MacBook-Pro-2.local at Thu Jul 17 14:06:52 2025
Module time:
	user time   =       0.90 seconds =       0.02 minutes
	system time =       2.13 seconds =       0.04 minutes
	total time  =          0 seconds =       0.00 minutes
Total time:
	user time   =      10.61 seconds =       0.18 minutes
	system time =      27.34 seconds =       0.46 minutes
	total time  =          4 seconds =       0.07 minutes

    			-----------------------------------------

    			 OPTKING 3.0: for geometry optimizations 

    			     By R.A. King, Bethel University     

    			        with contributions from          

    			    A.V. Copan, J. Cayton, A. Heide      

    			-----------------------------------------

    
	                            ===> Fragment 1 <== 

	 Z (Atomic Numbers)          Masses                          Geom                  
	       8.000000            15.994915          0.00000000  0.00000000  1.65569810   
	      12.000000            23.985042          0.00000000  0.00000000 -1.10413607   

	 - Coordinate -           - BOHR/RAD -       - ANG/DEG -
	 R(1,2)           =         2.759834           1.460441


	        --- Internal Coordinate Step in ANG or DEG, aJ/ANG or AJ/DEG ---
	-------------------------------------------------------------------------------
	           Coordinate      Previous         Force          Change          New 
	           ----------      --------        ------          ------        ------
	               R(1,2)       1.46044        2.14630        0.08043       1.54087
	-------------------------------------------------------------------------------

	                                 ==> Convergence Check <==                                  
    
	Measures of convergence in internal coordinates in au.
    
	Criteria marked as inactive (o), active & met (*), and active & unmet ( ).

	----------------------------------------------------------------------------------------------
	   Step    Total Energy     Delta E     Max Force     RMS Force      Max Disp      RMS Disp   
	----------------------------------------------------------------------------------------------
	  Convergence Criteria     1.00e-06 *    3.00e-04 *             o    1.20e-03 *             o
	----------------------------------------------------------------------------------------------
	     3    -274.85841985   -9.87e-02      2.61e-01      2.61e-01 o    1.52e-01      1.52e-01 o  ~
	----------------------------------------------------------------------------------------------

Next Geometry in Ang 
	Fragment 1 (Ang)

	    O   0.0000000000   0.0000000000   0.9163733396
	   Mg   0.0000000000   0.0000000000  -0.6244992846


    Structure for next step:
    Molecular point group: c2v
    Full point group: C_inf_v

    Geometry (in Angstrom), charge = 1, multiplicity = 2:

    O            0.000000000000     0.000000000000     0.924410568398
    MG           0.000000000000     0.000000000000    -0.616462055882


Scratch directory: /tmp/
gradient() will perform analytic gradient computation.
   => Libint2 <=

    Primary   basis highest AM E, G, H:  6, 6, 3
    Auxiliary basis highest AM E, G, H:  7, 7, 4
    Onebody   basis highest AM E, G, H:  -, -, -
    Solid Harmonics ordering:            Gaussian

*** tstart() called on Joses-MacBook-Pro-2.local
*** at Thu Jul 17 14:06:52 2025

   => Loading Basis Set <=

    Name: CC-PVDZ
    Role: ORBITAL
    Keyword: BASIS
    atoms 1 entry O          line   198 file /Users/joseantoniorodriguesromero/anaconda3/share/psi4/basis/cc-pvdz.gbs 
    atoms 2 entry MG         line   353 file /Users/joseantoniorodriguesromero/anaconda3/share/psi4/basis/cc-pvdz.gbs 


         ---------------------------------------------------------
                                   SCF
               by Justin Turney, Rob Parrish, Andy Simmonett
                          and Daniel G. A. Smith
                              UKS Reference
                        1 Threads,    500 MiB Core
         ---------------------------------------------------------

  ==> Geometry <==

    Molecular point group: c2v
    Full point group: C_inf_v

    Geometry (in Angstrom), charge = 1, multiplicity = 2:

       Center              X                  Y                   Z               Mass       
    ------------   -----------------  -----------------  -----------------  -----------------
         O            0.000000000000     0.000000000000     0.924410568398    15.994914619570
         MG           0.000000000000     0.000000000000    -0.616462055882    23.985041697000

  Running in c2v symmetry.

  Rotational constants: A = ************  B =      0.73992  C =      0.73992 [cm^-1]
  Rotational constants: A = ************  B =  22182.14970  C =  22182.14970 [MHz]
  Nuclear repulsion =   32.968988756013076

  Charge       = 1
  Multiplicity = 2
  Electrons    = 19
  Nalpha       = 10
  Nbeta        = 9

  ==> Algorithm <==

  SCF Algorithm Type is DF.
  DIIS enabled.
  MOM disabled.
  Fractional occupation disabled.
  Guess Type is READ.
  Energy threshold   = 1.00e-08
  Density threshold  = 1.00e-08
  Integral threshold = 1.00e-12

  ==> Primary Basis <==

  Basis Set: CC-PVDZ
    Blend: CC-PVDZ
    Number of shells: 14
    Number of basis functions: 32
    Number of Cartesian functions: 34
    Spherical Harmonics?: true
    Max angular momentum: 2

  ==> DFT Potential <==

   => LibXC <=

    Version 6.2.2
    S. Lehtola, C. Steigemann, M. J.T. Oliveira, and M. A.L. Marques.,  SoftwareX 7, 1–5 (2018) (10.1016/j.softx.2017.11.002)

   => Composite Functional: B3LYP <= 

    B3LYP Hyb-GGA Exchange-Correlation Functional

    P. J. Stephens, F. J. Devlin, C. F. Chabalowski, and M. J. Frisch.,  J. Phys. Chem. 98, 11623 (1994) (10.1021/j100096a001)

    Deriv               =              1
    GGA                 =           TRUE
    Meta                =          FALSE

    Exchange Hybrid     =           TRUE
    MP2 Hybrid          =          FALSE

   => Exchange Functionals <=

    0.0800   Slater exchange
    0.7200         Becke 88

   => Exact (HF) Exchange <=

    0.2000               HF 

   => Correlation Functionals <=

    0.1900   Vosko, Wilk & Nusair (VWN5_RPA)
    0.8100   Lee, Yang & Parr

   => LibXC Density Thresholds  <==

    XC_HYB_GGA_XC_B3LYP:  1.00E-15 

   => Molecular Quadrature <=

    Radial Scheme          =       TREUTLER
    Pruning Scheme         =           NONE
    Nuclear Scheme         =       TREUTLER

    Blocking Scheme        =         OCTREE
    BS radius alpha        =              1
    Pruning alpha          =              1
    Radial Points          =             75
    Spherical Points       =            302
    Total Points           =          43397
    Total Blocks           =            408
    Max Points             =            251
    Max Functions          =             32
    Weights Tolerance      =       1.00E-15

   => Loading Basis Set <=

    Name: (CC-PVDZ AUX)
    Role: JKFIT
    Keyword: DF_BASIS_SCF
    atoms 1 entry O          line   221 file /Users/joseantoniorodriguesromero/anaconda3/share/psi4/basis/cc-pvdz-jkfit.gbs 
    atoms 2 entry MG         line   576 file /Users/joseantoniorodriguesromero/anaconda3/share/psi4/basis/def2-universal-jkfit.gbs 

   => Loading Basis Set <=

    Name: CC-PVDZ
    Role: ORBITAL
    Keyword: BASIS
    atoms 1 entry O          line   198 file /Users/joseantoniorodriguesromero/anaconda3/share/psi4/basis/cc-pvdz.gbs 
    atoms 2 entry MG         line   353 file /Users/joseantoniorodriguesromero/anaconda3/share/psi4/basis/cc-pvdz.gbs 

  Reading orbitals from file /tmp/doublet_OMg.default.74583.180.npy, no projection.

  ==> Integral Setup <==

  DFHelper Memory: AOs need 0.002 GiB; user supplied 0.328 GiB. 
  Using in-core AOs.

  ==> MemDFJK: Density-Fitted J/K Matrices <==

    J tasked:                   Yes
    K tasked:                   Yes
    wK tasked:                   No
    OpenMP threads:               1
    Memory [MiB]:               335
    Algorithm:                 Core
    Schwarz Cutoff:           1E-12
    Mask sparsity (%):       0.0000
    Fitting Condition:        1E-10

   => Auxiliary Basis Set <=

  Basis Set: (CC-PVDZ AUX)
    Blend: CC-PVDZ-JKFIT + DEF2-UNIVERSAL-JKFIT
    Number of shells: 58
    Number of basis functions: 182
    Number of Cartesian functions: 218
    Spherical Harmonics?: true
    Max angular momentum: 4

  Cached 100.0% of DFT collocation blocks in 0.038 [GiB].

  Minimum eigenvalue in the overlap matrix is 6.2960274974E-03.
  Reciprocal condition number of the overlap matrix is 2.1815907429E-03.
    Using symmetric orthogonalization.

  ==> Pre-Iterations <==

  SCF Guess: Orbitals guess was supplied from a previous computation.

   -------------------------------------------------------
    Irrep   Nso     Nmo     Nalpha   Nbeta   Ndocc  Nsocc
   -------------------------------------------------------
     A1        16      16       6       5       5       1
     A2         2       2       0       0       0       0
     B1         7       7       2       2       2       0
     B2         7       7       2       2       2       0
   -------------------------------------------------------
    Total      32      32      10       9       9       1
   -------------------------------------------------------

  ==> Iterations <==

                           Total Energy        Delta E     RMS |[F,P]|

   @DF-UKS iter   0:  -274.87522256543610   -2.74875e+02   1.16244e-02 
   @DF-UKS iter   1:  -274.88840344670956   -1.31809e-02   1.79512e-03 DIIS/ADIIS
   @DF-UKS iter   2:  -274.88793067989644    4.72767e-04   2.48147e-03 DIIS/ADIIS/DAMP=1%
   @DF-UKS iter   3:  -274.89011012205208   -2.17944e-03   2.58307e-04 DIIS/ADIIS/DAMP=1%
   @DF-UKS iter   4:  -274.88878165930475    1.32846e-03   1.62966e-05 DIIS/DAMP=1%
   @DF-UKS iter   5:  -274.88884918089082   -6.75216e-05   5.34560e-06 DIIS/DAMP=1%
   @DF-UKS iter   6:  -274.88884660951868    2.57137e-06   6.70136e-07 DIIS/DAMP=1%
   @DF-UKS iter   7:  -274.88884733288523   -7.23367e-07   1.56444e-07 DIIS/DAMP=1%
   @DF-UKS iter   8:  -274.88884762751968   -2.94634e-07   2.84852e-08 DIIS/DAMP=1%
   @DF-UKS iter   9:  -274.88884754686768    8.06520e-08   6.66047e-09 DIIS/DAMP=1%
   @DF-UKS iter  10:  -274.88884756369350   -1.68258e-08   1.64236e-10 DIIS/DAMP=1%
   @DF-UKS iter  11:  -274.88884756064039    3.05312e-09   2.20068e-11 DIIS/DAMP=1%
  Energy and wave function converged.


  ==> Post-Iterations <==

   Electrons on quadrature grid:
      Nalpha   =   10.0000062887 ; deviation = 6.289e-06
      Nbeta    =    9.0000065967 ; deviation = 6.597e-06
      Ntotal   =   19.0000128854 ; deviation = 1.289e-05 

   @Spin Contamination Metric:   3.086382842E-03
   @S^2 Expected:                7.500000000E-01
   @S^2 Observed:                7.530863828E-01
   @S   Expected:                5.000000000E-01
   @S   Observed:                5.000000000E-01

    Orbital Energies [Eh]
    ---------------------

    Alpha Occupied:                                                       

       1A1   -47.188105     2A1   -19.372296     3A1    -3.474039  
       4A1    -2.224708     1B1    -2.214876     1B2    -2.214876  
       5A1    -1.152945     6A1    -0.626725     2B2    -0.542033  
       2B1    -0.542033  

    Alpha Virtual:                                                        

       7A1    -0.370826     3B2    -0.216950     3B1    -0.216950  
       8A1    -0.151625     9A1    -0.080714     4B2    -0.028824  
       4B1    -0.028824    10A1     0.019009     1A2     0.064979  
      11A1     0.064979     5B2     0.148845     5B1     0.148845  
      12A1     0.310783    13A1     0.829087     6B1     0.848630  
       6B2     0.848630    14A1     1.755625    15A1     2.282172  
      16A1     2.394657     2A2     2.394701     7B2     2.400358  
       7B1     2.400358  

    Beta Occupied:                                                        

       1A1   -47.186625     2A1   -19.347320     3A1    -3.471659  
       4A1    -2.220303     1B1    -2.213635     1B2    -2.213635  
       5A1    -1.079949     2B2    -0.515094     2B1    -0.515094  

    Beta Virtual:                                                         

       6A1    -0.414660     7A1    -0.336711     3B2    -0.214152  
       3B1    -0.214152     8A1    -0.147019     9A1    -0.079698  
       4B2    -0.028099     4B1    -0.028099    10A1     0.031423  
      11A1     0.065523     1A2     0.065524     5B2     0.157783  
       5B1     0.157783    12A1     0.319008     6B1     0.865113  
       6B2     0.865113    13A1     0.920493    14A1     1.787402  
      15A1     2.389001    16A1     2.411190     2A2     2.411233  
       7B2     2.478873     7B1     2.478873  

    Final Occupation by Irrep:
             A1    A2    B1    B2 
    DOCC [     5,    0,    2,    2 ]
    SOCC [     1,    0,    0,    0 ]
    NA   [     6,    0,    2,    2 ]
    NB   [     5,    0,    2,    2 ]

  @DF-UKS Final Energy:  -274.88884756064039

   => Energetics <=

    Nuclear Repulsion Energy =             32.9689887560130757
    One-Electron Energy =                -443.0054415615277321
    Two-Electron Energy =                 155.2653994959304384
    DFT Exchange-Correlation Energy =     -20.1177942510561607
    Empirical Dispersion Energy =           0.0000000000000000
    VV10 Nonlocal Energy =                  0.0000000000000000
    Total Energy =                       -274.8888475606403858

  UHF NO Occupations:
  HONO-2 :    2 B1 1.9994313
  HONO-1 :    2 B2 1.9994313
  HONO-0 :    6 A1 1.0000000
  LUNO+0 :    3 B2 0.0005687
  LUNO+1 :    3 B1 0.0005687
  LUNO+2 :    7 A1 0.0004041
  LUNO+3 :    8 A1 0.0000021


Computation Completed


Properties will be evaluated at   0.000000,   0.000000,   0.000000 [a0]

Properties computed using the SCF density matrix


 Multipole Moments:

 ------------------------------------------------------------------------------------
     Multipole            Electronic (a.u.)      Nuclear  (a.u.)        Total (a.u.)
 ------------------------------------------------------------------------------------

 L = 1.  Multiply by 2.5417464519 to convert [e a0] to [Debye]
 Dipole X            :          0.0000000            0.0000000            0.0000000
 Dipole Y            :          0.0000000            0.0000000            0.0000000
 Dipole Z            :         -2.9702629           -0.0042710           -2.9745339
 Magnitude           :                                                    2.9745339

 ------------------------------------------------------------------------------------

*** tstop() called on Joses-MacBook-Pro-2.local at Thu Jul 17 14:06:53 2025
Module time:
	user time   =       2.81 seconds =       0.05 minutes
	system time =       6.47 seconds =       0.11 minutes
	total time  =          1 seconds =       0.02 minutes
Total time:
	user time   =      13.46 seconds =       0.22 minutes
	system time =      34.10 seconds =       0.57 minutes
	total time  =          5 seconds =       0.08 minutes

*** tstart() called on Joses-MacBook-Pro-2.local
*** at Thu Jul 17 14:06:53 2025


         ------------------------------------------------------------
                                   SCF GRAD                          
                          Rob Parrish, Justin Turney,                
                       Andy Simmonett, and Alex Sokolov              
         ------------------------------------------------------------

  ==> Geometry <==

    Molecular point group: c2v
    Full point group: C_inf_v

    Geometry (in Angstrom), charge = 1, multiplicity = 2:

       Center              X                  Y                   Z               Mass       
    ------------   -----------------  -----------------  -----------------  -----------------
         O            0.000000000000     0.000000000000     0.924410568398    15.994914619570
         MG           0.000000000000     0.000000000000    -0.616462055882    23.985041697000

  Nuclear repulsion =   32.968988756013076

  ==> Basis Set <==

  Basis Set: CC-PVDZ
    Blend: CC-PVDZ
    Number of shells: 14
    Number of basis functions: 32
    Number of Cartesian functions: 34
    Spherical Harmonics?: true
    Max angular momentum: 2

  ==> DFJKGrad: Density-Fitted SCF Gradients <==

    Gradient:                    1
    J tasked:                  Yes
    K tasked:                  Yes
    wK tasked:                  No
    OpenMP threads:              1
    Integrals threads:           1
    Memory [MiB]:              375
    Schwarz Cutoff:          1E-12
    Fitting Condition:       1E-10

   => Auxiliary Basis Set <=

  Basis Set: (CC-PVDZ AUX)
    Blend: CC-PVDZ-JKFIT + DEF2-UNIVERSAL-JKFIT
    Number of shells: 58
    Number of basis functions: 182
    Number of Cartesian functions: 218
    Spherical Harmonics?: true
    Max angular momentum: 4

  ==> DFT Potential <==

   => LibXC <=

    Version 6.2.2
    S. Lehtola, C. Steigemann, M. J.T. Oliveira, and M. A.L. Marques.,  SoftwareX 7, 1–5 (2018) (10.1016/j.softx.2017.11.002)

   => Composite Functional: B3LYP <= 

    B3LYP Hyb-GGA Exchange-Correlation Functional

    P. J. Stephens, F. J. Devlin, C. F. Chabalowski, and M. J. Frisch.,  J. Phys. Chem. 98, 11623 (1994) (10.1021/j100096a001)

    Deriv               =              1
    GGA                 =           TRUE
    Meta                =          FALSE

    Exchange Hybrid     =           TRUE
    MP2 Hybrid          =          FALSE

   => Exchange Functionals <=

    0.0800   Slater exchange
    0.7200         Becke 88

   => Exact (HF) Exchange <=

    0.2000               HF 

   => Correlation Functionals <=

    0.1900   Vosko, Wilk & Nusair (VWN5_RPA)
    0.8100   Lee, Yang & Parr

   => LibXC Density Thresholds  <==

    XC_HYB_GGA_XC_B3LYP:  1.00E-15 

   => Molecular Quadrature <=

    Radial Scheme          =       TREUTLER
    Pruning Scheme         =           NONE
    Nuclear Scheme         =       TREUTLER

    Blocking Scheme        =         OCTREE
    BS radius alpha        =              1
    Pruning alpha          =              1
    Radial Points          =             75
    Spherical Points       =            302
    Total Points           =          43397
    Total Blocks           =            408
    Max Points             =            251
    Max Functions          =             32
    Weights Tolerance      =       1.00E-15


  -Total Gradient:
     Atom            X                  Y                   Z
    ------   -----------------  -----------------  -----------------
       1        0.000000000000     0.000000000000    -0.147131561625
       2        0.000000000000     0.000000000000     0.147090238235


*** tstop() called on Joses-MacBook-Pro-2.local at Thu Jul 17 14:06:54 2025
Module time:
	user time   =       1.09 seconds =       0.02 minutes
	system time =       1.97 seconds =       0.03 minutes
	total time  =          1 seconds =       0.02 minutes
Total time:
	user time   =      14.55 seconds =       0.24 minutes
	system time =      36.09 seconds =       0.60 minutes
	total time  =          6 seconds =       0.10 minutes

    			-----------------------------------------

    			 OPTKING 3.0: for geometry optimizations 

    			     By R.A. King, Bethel University     

    			        with contributions from          

    			    A.V. Copan, J. Cayton, A. Heide      

    			-----------------------------------------

    
	                            ===> Fragment 1 <== 

	 Z (Atomic Numbers)          Masses                          Geom                  
	       8.000000            15.994915          0.00000000  0.00000000  1.74688280   
	      12.000000            23.985042          0.00000000  0.00000000 -1.16494445   

	 - Coordinate -           - BOHR/RAD -       - ANG/DEG -
	 R(1,2)           =         2.911827           1.540873


	        --- Internal Coordinate Step in ANG or DEG, aJ/ANG or AJ/DEG ---
	-------------------------------------------------------------------------------
	           Coordinate      Previous         Force          Change          New 
	           ----------      --------        ------          ------        ------
	               R(1,2)       1.54087        1.21201        0.07325       1.61412
	-------------------------------------------------------------------------------

	                                 ==> Convergence Check <==                                  
    
	Measures of convergence in internal coordinates in au.
    
	Criteria marked as inactive (o), active & met (*), and active & unmet ( ).

	----------------------------------------------------------------------------------------------
	   Step    Total Energy     Delta E     Max Force     RMS Force      Max Disp      RMS Disp   
	----------------------------------------------------------------------------------------------
	  Convergence Criteria     1.00e-06 *    3.00e-04 *             o    1.20e-03 *             o
	----------------------------------------------------------------------------------------------
	     4    -274.88884756   -3.04e-02      1.47e-01      1.47e-01 o    1.38e-01      1.38e-01 o  ~
	----------------------------------------------------------------------------------------------

Next Geometry in Ang 
	Fragment 1 (Ang)

	    O   0.0000000000   0.0000000000   0.9610363073
	   Mg   0.0000000000   0.0000000000  -0.6530877948


    Structure for next step:
    Molecular point group: c2v
    Full point group: C_inf_v

    Geometry (in Angstrom), charge = 1, multiplicity = 2:

    O            0.000000000000     0.000000000000     0.968356082869
    MG           0.000000000000     0.000000000000    -0.645768019189


Scratch directory: /tmp/
gradient() will perform analytic gradient computation.
   => Libint2 <=

    Primary   basis highest AM E, G, H:  6, 6, 3
    Auxiliary basis highest AM E, G, H:  7, 7, 4
    Onebody   basis highest AM E, G, H:  -, -, -
    Solid Harmonics ordering:            Gaussian

*** tstart() called on Joses-MacBook-Pro-2.local
*** at Thu Jul 17 14:06:54 2025

   => Loading Basis Set <=

    Name: CC-PVDZ
    Role: ORBITAL
    Keyword: BASIS
    atoms 1 entry O          line   198 file /Users/joseantoniorodriguesromero/anaconda3/share/psi4/basis/cc-pvdz.gbs 
    atoms 2 entry MG         line   353 file /Users/joseantoniorodriguesromero/anaconda3/share/psi4/basis/cc-pvdz.gbs 


         ---------------------------------------------------------
                                   SCF
               by Justin Turney, Rob Parrish, Andy Simmonett
                          and Daniel G. A. Smith
                              UKS Reference
                        1 Threads,    500 MiB Core
         ---------------------------------------------------------

  ==> Geometry <==

    Molecular point group: c2v
    Full point group: C_inf_v

    Geometry (in Angstrom), charge = 1, multiplicity = 2:

       Center              X                  Y                   Z               Mass       
    ------------   -----------------  -----------------  -----------------  -----------------
         O            0.000000000000     0.000000000000     0.968356082869    15.994914619570
         MG           0.000000000000     0.000000000000    -0.645768019189    23.985041697000

  Running in c2v symmetry.

  Rotational constants: A = ************  B =      0.67428  C =      0.67428 [cm^-1]
  Rotational constants: A = ************  B =  20214.51220  C =  20214.51220 [MHz]
  Nuclear repulsion =   31.472804451364752

  Charge       = 1
  Multiplicity = 2
  Electrons    = 19
[...]
    
	Measures of convergence in internal coordinates in au.
    
	Criteria marked as inactive (o), active & met (*), and active & unmet ( ).

	----------------------------------------------------------------------------------------------
	   Step    Total Energy     Delta E     Max Force     RMS Force      Max Disp      RMS Disp   
	----------------------------------------------------------------------------------------------
	  Convergence Criteria     1.00e-06 *    3.00e-04 *             o    1.20e-03 *             o
	----------------------------------------------------------------------------------------------
	    10    -274.91191482   -1.49e-05      7.47e-04      7.47e-04 o    2.68e-03      2.68e-03 o  ~
	----------------------------------------------------------------------------------------------

Next Geometry in Ang 
	Fragment 1 (Ang)

	    O   0.0000000000   0.0000000000   1.0420404929
	   Mg   0.0000000000   0.0000000000  -0.6951426081


    Structure for next step:
    Molecular point group: c2v
    Full point group: C_inf_v

    Geometry (in Angstrom), charge = 1, multiplicity = 2:

    O            0.000000000000     0.000000000000     1.042182457203
    MG           0.000000000000     0.000000000000    -0.695000643800


Scratch directory: /tmp/
gradient() will perform analytic gradient computation.
   => Libint2 <=

    Primary   basis highest AM E, G, H:  6, 6, 3
    Auxiliary basis highest AM E, G, H:  7, 7, 4
    Onebody   basis highest AM E, G, H:  -, -, -
    Solid Harmonics ordering:            Gaussian

*** tstart() called on Joses-MacBook-Pro-2.local
*** at Thu Jul 17 14:07:01 2025

   => Loading Basis Set <=

    Name: CC-PVDZ
    Role: ORBITAL
    Keyword: BASIS
    atoms 1 entry O          line   198 file /Users/joseantoniorodriguesromero/anaconda3/share/psi4/basis/cc-pvdz.gbs 
    atoms 2 entry MG         line   353 file /Users/joseantoniorodriguesromero/anaconda3/share/psi4/basis/cc-pvdz.gbs 


         ---------------------------------------------------------
                                   SCF
               by Justin Turney, Rob Parrish, Andy Simmonett
                          and Daniel G. A. Smith
                              UKS Reference
                        1 Threads,    500 MiB Core
         ---------------------------------------------------------

  ==> Geometry <==

    Molecular point group: c2v
    Full point group: C_inf_v

    Geometry (in Angstrom), charge = 1, multiplicity = 2:

       Center              X                  Y                   Z               Mass       
    ------------   -----------------  -----------------  -----------------  -----------------
         O            0.000000000000     0.000000000000     1.042182457203    15.994914619570
         MG           0.000000000000     0.000000000000    -0.695000643800    23.985041697000

  Running in c2v symmetry.

  Rotational constants: A = ************  B =      0.58214  C =      0.58214 [cm^-1]
  Rotational constants: A = ************  B =  17452.02871  C =  17452.02871 [MHz]
  Nuclear repulsion =   29.243326276313866

  Charge       = 1
  Multiplicity = 2
  Electrons    = 19
  Nalpha       = 10
  Nbeta        = 9

  ==> Algorithm <==

  SCF Algorithm Type is DF.
  DIIS enabled.
  MOM disabled.
  Fractional occupation disabled.
  Guess Type is READ.
  Energy threshold   = 1.00e-08
  Density threshold  = 1.00e-08
  Integral threshold = 1.00e-12

  ==> Primary Basis <==

  Basis Set: CC-PVDZ
    Blend: CC-PVDZ
    Number of shells: 14
    Number of basis functions: 32
    Number of Cartesian functions: 34
    Spherical Harmonics?: true
    Max angular momentum: 2

  ==> DFT Potential <==

   => LibXC <=

    Version 6.2.2
    S. Lehtola, C. Steigemann, M. J.T. Oliveira, and M. A.L. Marques.,  SoftwareX 7, 1–5 (2018) (10.1016/j.softx.2017.11.002)

   => Composite Functional: B3LYP <= 

    B3LYP Hyb-GGA Exchange-Correlation Functional

    P. J. Stephens, F. J. Devlin, C. F. Chabalowski, and M. J. Frisch.,  J. Phys. Chem. 98, 11623 (1994) (10.1021/j100096a001)

    Deriv               =              1
    GGA                 =           TRUE
    Meta                =          FALSE

    Exchange Hybrid     =           TRUE
    MP2 Hybrid          =          FALSE

   => Exchange Functionals <=

    0.0800   Slater exchange
    0.7200         Becke 88

   => Exact (HF) Exchange <=

    0.2000               HF 

   => Correlation Functionals <=

    0.1900   Vosko, Wilk & Nusair (VWN5_RPA)
    0.8100   Lee, Yang & Parr

   => LibXC Density Thresholds  <==

    XC_HYB_GGA_XC_B3LYP:  1.00E-15 

   => Molecular Quadrature <=

    Radial Scheme          =       TREUTLER
    Pruning Scheme         =           NONE
    Nuclear Scheme         =       TREUTLER

    Blocking Scheme        =         OCTREE
    BS radius alpha        =              1
    Pruning alpha          =              1
    Radial Points          =             75
    Spherical Points       =            302
    Total Points           =          43420
    Total Blocks           =            407
    Max Points             =            255
    Max Functions          =             32
    Weights Tolerance      =       1.00E-15

   => Loading Basis Set <=

    Name: (CC-PVDZ AUX)
    Role: JKFIT
    Keyword: DF_BASIS_SCF
    atoms 1 entry O          line   221 file /Users/joseantoniorodriguesromero/anaconda3/share/psi4/basis/cc-pvdz-jkfit.gbs 
    atoms 2 entry MG         line   576 file /Users/joseantoniorodriguesromero/anaconda3/share/psi4/basis/def2-universal-jkfit.gbs 

   => Loading Basis Set <=

    Name: CC-PVDZ
    Role: ORBITAL
    Keyword: BASIS
    atoms 1 entry O          line   198 file /Users/joseantoniorodriguesromero/anaconda3/share/psi4/basis/cc-pvdz.gbs 
    atoms 2 entry MG         line   353 file /Users/joseantoniorodriguesromero/anaconda3/share/psi4/basis/cc-pvdz.gbs 

  Reading orbitals from file /tmp/doublet_OMg.default.74583.180.npy, no projection.

  ==> Integral Setup <==

  DFHelper Memory: AOs need 0.002 GiB; user supplied 0.328 GiB. 
  Using in-core AOs.

  ==> MemDFJK: Density-Fitted J/K Matrices <==

    J tasked:                   Yes
    K tasked:                   Yes
    wK tasked:                   No
    OpenMP threads:               1
    Memory [MiB]:               335
    Algorithm:                 Core
    Schwarz Cutoff:           1E-12
    Mask sparsity (%):       0.0000
    Fitting Condition:        1E-10

   => Auxiliary Basis Set <=

  Basis Set: (CC-PVDZ AUX)
    Blend: CC-PVDZ-JKFIT + DEF2-UNIVERSAL-JKFIT
    Number of shells: 58
    Number of basis functions: 182
    Number of Cartesian functions: 218
    Spherical Harmonics?: true
    Max angular momentum: 4

  Cached 100.0% of DFT collocation blocks in 0.038 [GiB].

  Minimum eigenvalue in the overlap matrix is 9.2283141166E-03.
  Reciprocal condition number of the overlap matrix is 3.2410782652E-03.
    Using symmetric orthogonalization.

  ==> Pre-Iterations <==

  SCF Guess: Orbitals guess was supplied from a previous computation.

   -------------------------------------------------------
    Irrep   Nso     Nmo     Nalpha   Nbeta   Ndocc  Nsocc
   -------------------------------------------------------
     A1        16      16       6       5       5       1
     A2         2       2       0       0       0       0
     B1         7       7       2       2       2       0
     B2         7       7       2       2       2       0
   -------------------------------------------------------
    Total      32      32      10       9       9       1
   -------------------------------------------------------

  ==> Iterations <==

                           Total Energy        Delta E     RMS |[F,P]|

   @DF-UKS iter   0:  -274.91141858502499   -2.74911e+02   1.07221e-04 
   @DF-UKS iter   1:  -274.91191569999404   -4.97115e-04   1.07924e-05 DIIS
   @DF-UKS iter   2:  -274.91191565441864    4.55754e-08   2.18327e-05 DIIS/DAMP=1%
   @DF-UKS iter   3:  -274.91190656351313    9.09091e-06   1.84765e-06 DIIS/DAMP=1%
   @DF-UKS iter   4:  -274.91191516354183   -8.60003e-06   3.86102e-07 DIIS/DAMP=1%
   @DF-UKS iter   5:  -274.91191553434476   -3.70803e-07   1.46321e-07 DIIS/DAMP=1%
   @DF-UKS iter   6:  -274.91191578309270   -2.48748e-07   2.43085e-08 DIIS/DAMP=1%
   @DF-UKS iter   7:  -274.91191574015448    4.29382e-08   4.10421e-09 DIIS/DAMP=1%
   @DF-UKS iter   8:  -274.91191573079499    9.35950e-09   2.48101e-10 DIIS/DAMP=1%
  Energy and wave function converged.


  ==> Post-Iterations <==

   Electrons on quadrature grid:
      Nalpha   =   10.0000017986 ; deviation = 1.799e-06
      Nbeta    =    9.0000023794 ; deviation = 2.379e-06
      Ntotal   =   19.0000041780 ; deviation = 4.178e-06 

   @Spin Contamination Metric:   3.126970645E-03
   @S^2 Expected:                7.500000000E-01
   @S^2 Observed:                7.531269706E-01
   @S   Expected:                5.000000000E-01
   @S   Observed:                5.000000000E-01

    Orbital Energies [Eh]
    ---------------------

    Alpha Occupied:                                                       

       1A1   -47.218657     2A1   -19.362295     3A1    -3.490873  
       4A1    -2.235622     1B1    -2.233999     1B2    -2.233999  
       5A1    -1.121575     6A1    -0.605472     2B2    -0.509572  
       2B1    -0.509572  

    Alpha Virtual:                                                        

       7A1    -0.381814     3B1    -0.228237     3B2    -0.228237  
       8A1    -0.160288     9A1    -0.086440     4B1    -0.034075  
       4B2    -0.034075    10A1     0.010878     1A2     0.059734  
      11A1     0.059734     5B2     0.118778     5B1     0.118778  
      12A1     0.298238    13A1     0.826743     6B1     0.844662  
       6B2     0.844662    14A1     1.688317    15A1     2.396826  
       7B1     2.417538     7B2     2.417538    16A1     2.420202  
       2A2     2.420234  

    Beta Occupied:                                                        

       1A1   -47.217623     2A1   -19.338902     3A1    -3.489205  
       1B1    -2.233108     1B2    -2.233108     4A1    -2.233081  
       5A1    -1.050602     2B2    -0.483185     2B1    -0.483185  

    Beta Virtual:                                                         

       6A1    -0.417828     7A1    -0.336885     3B1    -0.225192  
       3B2    -0.225192     8A1    -0.153563     9A1    -0.085769  
       4B1    -0.033391     4B2    -0.033391    10A1     0.024528  
       1A2     0.060820    11A1     0.060820     5B2     0.128823  
       5B1     0.128823    12A1     0.312106     6B1     0.860098  
       6B2     0.860098    13A1     0.915989    14A1     1.723693  
      15A1     2.436007     2A2     2.436036     7B1     2.492703  
       7B2     2.492703    16A1     2.494873  

    Final Occupation by Irrep:
             A1    A2    B1    B2 
    DOCC [     5,    0,    2,    2 ]
    SOCC [     1,    0,    0,    0 ]
    NA   [     6,    0,    2,    2 ]
    NB   [     5,    0,    2,    2 ]

  @DF-UKS Final Energy:  -274.91191573079499

   => Energetics <=

    Nuclear Repulsion Energy =             29.2433262763138657
    One-Electron Energy =                -435.6740170238153951
    Two-Electron Energy =                 151.5760184084289506
    DFT Exchange-Correlation Energy =     -20.0572433917223947
    Empirical Dispersion Energy =           0.0000000000000000
    VV10 Nonlocal Energy =                  0.0000000000000000
    Total Energy =                       -274.9119157307949877

  UHF NO Occupations:
  HONO-2 :    2 B2 1.9993965
  HONO-1 :    2 B1 1.9993965
  HONO-0 :    6 A1 1.0000000
  LUNO+0 :    3 B1 0.0006035
  LUNO+1 :    3 B2 0.0006035
  LUNO+2 :    7 A1 0.0003559
  LUNO+3 :    8 A1 0.0000008


Computation Completed


Properties will be evaluated at   0.000000,   0.000000,   0.000000 [a0]

Properties computed using the SCF density matrix


 Multipole Moments:

 ------------------------------------------------------------------------------------
     Multipole            Electronic (a.u.)      Nuclear  (a.u.)        Total (a.u.)
 ------------------------------------------------------------------------------------

 L = 1.  Multiply by 2.5417464519 to convert [e a0] to [Debye]
 Dipole X            :          0.0000000            0.0000000            0.0000000
 Dipole Y            :          0.0000000            0.0000000            0.0000000
 Dipole Z            :         -3.2767392           -0.0048152           -3.2815543
 Magnitude           :                                                    3.2815543

 ------------------------------------------------------------------------------------

*** tstop() called on Joses-MacBook-Pro-2.local at Thu Jul 17 14:07:02 2025
Module time:
	user time   =       2.02 seconds =       0.03 minutes
	system time =       4.61 seconds =       0.08 minutes
	total time  =          1 seconds =       0.02 minutes
Total time:
	user time   =      37.20 seconds =       0.62 minutes
	system time =      92.16 seconds =       1.54 minutes
	total time  =         14 seconds =       0.23 minutes

*** tstart() called on Joses-MacBook-Pro-2.local
*** at Thu Jul 17 14:07:02 2025


         ------------------------------------------------------------
                                   SCF GRAD                          
                          Rob Parrish, Justin Turney,                
                       Andy Simmonett, and Alex Sokolov              
         ------------------------------------------------------------

  ==> Geometry <==

    Molecular point group: c2v
    Full point group: C_inf_v

    Geometry (in Angstrom), charge = 1, multiplicity = 2:

       Center              X                  Y                   Z               Mass       
    ------------   -----------------  -----------------  -----------------  -----------------
         O            0.000000000000     0.000000000000     1.042182457203    15.994914619570
         MG           0.000000000000     0.000000000000    -0.695000643800    23.985041697000

  Nuclear repulsion =   29.243326276313866

  ==> Basis Set <==

  Basis Set: CC-PVDZ
    Blend: CC-PVDZ
    Number of shells: 14
    Number of basis functions: 32
    Number of Cartesian functions: 34
    Spherical Harmonics?: true
    Max angular momentum: 2

  ==> DFJKGrad: Density-Fitted SCF Gradients <==

    Gradient:                    1
    J tasked:                  Yes
    K tasked:                  Yes
    wK tasked:                  No
    OpenMP threads:              1
    Integrals threads:           1
    Memory [MiB]:              375
    Schwarz Cutoff:          1E-12
    Fitting Condition:       1E-10

   => Auxiliary Basis Set <=

  Basis Set: (CC-PVDZ AUX)
    Blend: CC-PVDZ-JKFIT + DEF2-UNIVERSAL-JKFIT
    Number of shells: 58
    Number of basis functions: 182
    Number of Cartesian functions: 218
    Spherical Harmonics?: true
    Max angular momentum: 4

  ==> DFT Potential <==

   => LibXC <=

    Version 6.2.2
    S. Lehtola, C. Steigemann, M. J.T. Oliveira, and M. A.L. Marques.,  SoftwareX 7, 1–5 (2018) (10.1016/j.softx.2017.11.002)

   => Composite Functional: B3LYP <= 

    B3LYP Hyb-GGA Exchange-Correlation Functional

    P. J. Stephens, F. J. Devlin, C. F. Chabalowski, and M. J. Frisch.,  J. Phys. Chem. 98, 11623 (1994) (10.1021/j100096a001)

    Deriv               =              1
    GGA                 =           TRUE
    Meta                =          FALSE

    Exchange Hybrid     =           TRUE
    MP2 Hybrid          =          FALSE

   => Exchange Functionals <=

    0.0800   Slater exchange
    0.7200         Becke 88

   => Exact (HF) Exchange <=

    0.2000               HF 

   => Correlation Functionals <=

    0.1900   Vosko, Wilk & Nusair (VWN5_RPA)
    0.8100   Lee, Yang & Parr

   => LibXC Density Thresholds  <==

    XC_HYB_GGA_XC_B3LYP:  1.00E-15 

   => Molecular Quadrature <=

    Radial Scheme          =       TREUTLER
    Pruning Scheme         =           NONE
    Nuclear Scheme         =       TREUTLER

    Blocking Scheme        =         OCTREE
    BS radius alpha        =              1
    Pruning alpha          =              1
    Radial Points          =             75
    Spherical Points       =            302
    Total Points           =          43420
    Total Blocks           =            407
    Max Points             =            255
    Max Functions          =             32
    Weights Tolerance      =       1.00E-15


  -Total Gradient:
     Atom            X                  Y                   Z
    ------   -----------------  -----------------  -----------------
       1        0.000000000000     0.000000000000    -0.000123530422
       2       -0.000000000000     0.000000000000     0.000080869904


*** tstop() called on Joses-MacBook-Pro-2.local at Thu Jul 17 14:07:02 2025
Module time:
	user time   =       0.88 seconds =       0.01 minutes
	system time =       2.15 seconds =       0.04 minutes
	total time  =          0 seconds =       0.00 minutes
Total time:
	user time   =      38.08 seconds =       0.63 minutes
	system time =      94.33 seconds =       1.57 minutes
	total time  =         14 seconds =       0.23 minutes

    			-----------------------------------------

    			 OPTKING 3.0: for geometry optimizations 

    			     By R.A. King, Bethel University     

    			        with contributions from          

    			    A.V. Copan, J. Cayton, A. Heide      

    			-----------------------------------------

    
	                            ===> Fragment 1 <== 

	 Z (Atomic Numbers)          Masses                          Geom                  
	       8.000000            15.994915          0.00000000  0.00000000  1.96943942   
	      12.000000            23.985042          0.00000000  0.00000000 -1.31336087   

	 - Coordinate -           - BOHR/RAD -       - ANG/DEG -
	 R(1,2)           =         3.282800           1.737183


	        --- Internal Coordinate Step in ANG or DEG, aJ/ANG or AJ/DEG ---
	-------------------------------------------------------------------------------
	           Coordinate      Previous         Force          Change          New 
	           ----------      --------        ------          ------        ------
	               R(1,2)       1.73718        0.00084        0.00021       1.73739
	-------------------------------------------------------------------------------

	                                 ==> Convergence Check <==                                  
    
	Measures of convergence in internal coordinates in au.
    
	Criteria marked as inactive (o), active & met (*), and active & unmet ( ).

	----------------------------------------------------------------------------------------------
	   Step    Total Energy     Delta E     Max Force     RMS Force      Max Disp      RMS Disp   
	----------------------------------------------------------------------------------------------
	  Convergence Criteria     1.00e-06 *    3.00e-04 *             o    1.20e-03 *             o
	----------------------------------------------------------------------------------------------
	    11    -274.91191573   -9.09e-07 *    1.02e-04 *    1.02e-04 o    3.97e-04 *    3.97e-04 o  ~
	----------------------------------------------------------------------------------------------

Next Geometry in Ang 
	Fragment 1 (Ang)

	    O   0.0000000000   0.0000000000   1.0422874285
	   Mg   0.0000000000   0.0000000000  -0.6951056151


    Final optimized geometry and variables:
    Molecular point group: c2v
    Full point group: C_inf_v

    Geometry (in Angstrom), charge = 1, multiplicity = 2:

    O            0.000000000000     0.000000000000     1.042182457203
    MG           0.000000000000     0.000000000000    -0.695000643800


    Psi4 stopped on: Thursday, 17 July 2025 02:07PM
    Psi4 wall time for execution: 0:00:14.69

*** Psi4 exiting successfully. Buy a developer a beer!
