
    -----------------------------------------------------------------------
          Psi4: An Open-Source Ab Initio Electronic Structure Package
                               Psi4 1.9.1 release

                         Git: Rev {} zzzzzzz 


    D. G. A. Smith, L. A. Burns, A. C. Simmonett, R. M. Parrish,
    M. C. Schieber, R. Galvelis, P. Kraus, H. Kruse, R. Di Remigio,
    A. Alenaizan, A. M. James, S. Lehtola, J. P. Misiewicz, M. Scheurer,
    R. A. Shaw, J. B. Schriber, Y. Xie, Z. L. Glick, D. A. Sirianni,
    J. S. O'Brien, J. M. Waldrop, A. Kumar, E. G. Hohenstein,
    B. P. Pritchard, B. R. Brooks, H. F. Schaefer III, A. Yu. Sokolov,
    K. Patkowski, A. E. DePrince III, U. Bozkaya, R. A. King,
    F. A. Evangelista, J. M. Turney, T. D. Crawford, C. D. Sherrill,
    J. Chem. Phys. 152(18) 184108 (2020). https://doi.org/10.1063/5.0006002

                            Additional Code Authors
    E. T. Seidl, C. L. Janssen, E. F. Valeev, M. L. Leininger,
    J. F. Gonthier, R. M. Richard, H. R. McAlexander, M. Saitow, X. Wang,
    P. Verma, M. H. Lechner, A. Jiang, S. Behnle, A. G. Heide,
    M. F. Herbst, and D. L. Poole

             Previous Authors, Complete List of Code Contributors,
                       and Citations for Specific Modules
    https://github.com/psi4/psi4/blob/master/codemeta.json
    https://github.com/psi4/psi4/graphs/contributors
    http://psicode.org/psi4manual/master/introduction.html#citing-psifour

    -----------------------------------------------------------------------


    Psi4 started on: Thursday, 17 July 2025 01:59PM

    Process ID: 74532
    Host:       Joses-MacBook-Pro-2.local
    PSIDATADIR: /Users/joseantoniorodriguesromero/anaconda3/share/psi4
    Memory:     500.0 MiB
    Threads:    1
    
  ==> Input File <==

--------------------------------------------------------------------------
molecule { 
1 4
O   0.00000        0.60000        0.00000
O   0.00000       -0.60000        0.00000
}

set { 
basis              cc-pvdz
reference          uks
maxiter            500
geom_maxiter       500
DAMPING_PERCENTAGE 1
guess              SAP
}

optimize('b3lyp')
--------------------------------------------------------------------------

Scratch directory: /tmp/
gradient() will perform analytic gradient computation.
   => Libint2 <=

    Primary   basis highest AM E, G, H:  6, 6, 3
    Auxiliary basis highest AM E, G, H:  7, 7, 4
    Onebody   basis highest AM E, G, H:  -, -, -
    Solid Harmonics ordering:            Gaussian

*** tstart() called on Joses-MacBook-Pro-2.local
*** at Thu Jul 17 13:59:21 2025

   => Loading Basis Set <=

    Name: CC-PVDZ
    Role: ORBITAL
    Keyword: BASIS
    atoms 1-2 entry O          line   198 file /Users/joseantoniorodriguesromero/anaconda3/share/psi4/basis/cc-pvdz.gbs 


         ---------------------------------------------------------
                                   SCF
               by Justin Turney, Rob Parrish, Andy Simmonett
                          and Daniel G. A. Smith
                              UKS Reference
                        1 Threads,    500 MiB Core
         ---------------------------------------------------------

  ==> Geometry <==

    Molecular point group: d2h
    Full point group: D_inf_h

    Geometry (in Angstrom), charge = 1, multiplicity = 4:

       Center              X                  Y                   Z               Mass       
    ------------   -----------------  -----------------  -----------------  -----------------
         O           -0.000000000000     0.600000000000     0.000000000000    15.994914619570
         O            0.000000000000    -0.600000000000     0.000000000000    15.994914619570

  Running in d2h symmetry.

  Rotational constants: A = ************  B =      1.46380  C =      1.46380 [cm^-1]
  Rotational constants: A = ************  B =  43883.65345  C =  43883.65345 [MHz]
  Nuclear repulsion =   28.222784569066672

  Charge       = 1
  Multiplicity = 4
  Electrons    = 15
  Nalpha       = 9
  Nbeta        = 6

  ==> Algorithm <==

  SCF Algorithm Type is DF.
  DIIS enabled.
  MOM disabled.
  Fractional occupation disabled.
  Guess Type is SAP.
  Energy threshold   = 1.00e-08
  Density threshold  = 1.00e-08
  Integral threshold = 1.00e-12

  ==> Primary Basis <==

  Basis Set: CC-PVDZ
    Blend: CC-PVDZ
    Number of shells: 12
    Number of basis functions: 28
    Number of Cartesian functions: 30
    Spherical Harmonics?: true
    Max angular momentum: 2

  ==> DFT Potential <==

   => LibXC <=

    Version 6.2.2
    S. Lehtola, C. Steigemann, M. J.T. Oliveira, and M. A.L. Marques.,  SoftwareX 7, 1–5 (2018) (10.1016/j.softx.2017.11.002)

   => Composite Functional: B3LYP <= 

    B3LYP Hyb-GGA Exchange-Correlation Functional

    P. J. Stephens, F. J. Devlin, C. F. Chabalowski, and M. J. Frisch.,  J. Phys. Chem. 98, 11623 (1994) (10.1021/j100096a001)

    Deriv               =              1
    GGA                 =           TRUE
    Meta                =          FALSE

    Exchange Hybrid     =           TRUE
    MP2 Hybrid          =          FALSE

   => Exchange Functionals <=

    0.0800   Slater exchange
    0.7200         Becke 88

   => Exact (HF) Exchange <=

    0.2000               HF 

   => Correlation Functionals <=

    0.1900   Vosko, Wilk & Nusair (VWN5_RPA)
    0.8100   Lee, Yang & Parr

   => LibXC Density Thresholds  <==

    XC_HYB_GGA_XC_B3LYP:  1.00E-15 

   => Molecular Quadrature <=

    Radial Scheme          =       TREUTLER
    Pruning Scheme         =           NONE
    Nuclear Scheme         =       TREUTLER

    Blocking Scheme        =         OCTREE
    BS radius alpha        =              1
    Pruning alpha          =              1
    Radial Points          =             75
    Spherical Points       =            302
    Total Points           =          41434
    Total Blocks           =            370
    Max Points             =            252
    Max Functions          =             28
    Weights Tolerance      =       1.00E-15

   => Loading Basis Set <=

    Name: (CC-PVDZ AUX)
    Role: JKFIT
    Keyword: DF_BASIS_SCF
    atoms 1-2 entry O          line   221 file /Users/joseantoniorodriguesromero/anaconda3/share/psi4/basis/cc-pvdz-jkfit.gbs 

  ==> Integral Setup <==

  DFHelper Memory: AOs need 0.001 GiB; user supplied 0.333 GiB. 
  Using in-core AOs.

  ==> MemDFJK: Density-Fitted J/K Matrices <==

    J tasked:                   Yes
    K tasked:                   Yes
    wK tasked:                   No
    OpenMP threads:               1
    Memory [MiB]:               340
    Algorithm:                 Core
    Schwarz Cutoff:           1E-12
    Mask sparsity (%):       0.0000
    Fitting Condition:        1E-10

   => Auxiliary Basis Set <=

  Basis Set: (CC-PVDZ AUX)
    Blend: CC-PVDZ-JKFIT
    Number of shells: 48
    Number of basis functions: 140
    Number of Cartesian functions: 162
    Spherical Harmonics?: true
    Max angular momentum: 3

  Cached 100.0% of DFT collocation blocks in 0.033 [GiB].

  Minimum eigenvalue in the overlap matrix is 2.9685108921E-02.
  Reciprocal condition number of the overlap matrix is 1.1564502554E-02.
    Using symmetric orthogonalization.

  ==> Pre-Iterations <==

  SCF Guess: Superposition of Atomic Potentials (doi:10.1021/acs.jctc.8b01089).

  ==> SAP guess <==

   => Molecular Quadrature <=

    Radial Scheme          =       TREUTLER
    Pruning Scheme         =           NONE
    Nuclear Scheme         =       TREUTLER

    Blocking Scheme        =         OCTREE
    BS radius alpha        =              1
    Pruning alpha          =              1
    Radial Points          =             75
    Spherical Points       =            302
    Total Points           =          41434
    Total Blocks           =            370
    Max Points             =            252
    Max Functions          =             28
    Weights Tolerance      =       1.00E-15

   -------------------------------------------------------
    Irrep   Nso     Nmo     Nalpha   Nbeta   Ndocc  Nsocc
   -------------------------------------------------------
     Ag         7       7       3       2       2       1
     B1g        3       3       1       0       0       1
     B2g        1       1       0       0       0       0
     B3g        3       3       1       0       0       1
     Au         1       1       0       0       0       0
     B1u        3       3       1       1       1       0
     B2u        7       7       2       2       2       0
     B3u        3       3       1       1       1       0
   -------------------------------------------------------
    Total      28      28       9       6       6       3
   -------------------------------------------------------

  ==> Iterations <==

                           Total Energy        Delta E     RMS |[F,P]|

   @DF-UKS iter   1:  -149.63987073604346   -1.49640e+02   2.40818e-02 DIIS/ADIIS
   @DF-UKS iter   2:  -149.66334129679606   -2.34706e-02   8.04930e-03 DIIS/ADIIS/DAMP=1%
   @DF-UKS iter   3:  -149.66627039923725   -2.92910e-03   1.00179e-03 DIIS/ADIIS/DAMP=1%
   @DF-UKS iter   4:  -149.66643921548166   -1.68816e-04   2.42193e-04 DIIS/ADIIS/DAMP=1%
   @DF-UKS iter   5:  -149.66618543876712    2.53777e-04   6.11069e-05 DIIS/DAMP=1%
   @DF-UKS iter   6:  -149.66630218557174   -1.16747e-04   3.46559e-06 DIIS/DAMP=1%
   @DF-UKS iter   7:  -149.66628332347523    1.88621e-05   4.49946e-07 DIIS/DAMP=1%
   @DF-UKS iter   8:  -149.66628354385421   -2.20379e-07   5.67430e-08 DIIS/DAMP=1%
   @DF-UKS iter   9:  -149.66628337096932    1.72885e-07   5.02890e-09 DIIS/DAMP=1%
   @DF-UKS iter  10:  -149.66628338883234   -1.78630e-08   7.85300e-11 DIIS/DAMP=1%
   @DF-UKS iter  11:  -149.66628338744226    1.39008e-09   7.89666e-12 DIIS/DAMP=1%
  Energy and wave function converged.


  ==> Post-Iterations <==

   Electrons on quadrature grid:
      Nalpha   =    8.9999999474 ; deviation = -5.261e-08
      Nbeta    =    6.0000001152 ; deviation = 1.152e-07
      Ntotal   =   15.0000000626 ; deviation = 6.264e-08 

   @Spin Contamination Metric:   8.926692378E-03
   @S^2 Expected:                3.750000000E+00
   @S^2 Observed:                3.758926692E+00
   @S   Expected:                1.500000000E+00
   @S   Observed:                1.500000000E+00

    Orbital Energies [Eh]
    ---------------------

    Alpha Occupied:                                                       

       1Ag   -19.825281     1B2u  -19.825187     2Ag    -1.798371  
       2B2u   -1.337497     3Ag    -1.075836     1B1u   -1.026132  
       1B3u   -1.026132     1B3g   -0.776657     1B1g   -0.776657  

    Alpha Virtual:                                                        

       3B2u   -0.265443     4B2u    0.366276     2B1u    0.408184  
       2B3u    0.408184     4Ag     0.482652     2B3g    0.537647  
       2B1g    0.537647     5Ag     0.630927     5B2u    1.270682  
       3B1u    1.565167     3B3u    1.565167     1B2g    1.849161  
       6Ag     1.849162     1Au     2.152101     6B2u    2.152101  
       7Ag     2.285807     3B3g    2.780689     3B1g    2.780689  
       7B2u    3.265189  

    Beta Occupied:                                                        

       1Ag   -19.778597     1B2u  -19.778465     2Ag    -1.708294  
       2B2u   -1.157434     1B1u   -0.900593     1B3u   -0.900593  

    Beta Virtual:                                                         

       3Ag    -0.830234     1B3g   -0.548754     1B1g   -0.548754  
       3B2u   -0.157449     4B2u    0.440879     2B1u    0.469709  
       2B3u    0.469709     4Ag     0.537317     2B3g    0.599990  
       2B1g    0.599990     5Ag     0.689769     5B2u    1.328367  
       3B1u    1.659955     3B3u    1.659955     6Ag     1.941276  
       1B2g    1.941276     6B2u    2.255819     1Au     2.255819  
       7Ag     2.389713     3B3g    2.881665     3B1g    2.881665  
       7B2u    3.365918  

    Final Occupation by Irrep:
             Ag   B1g   B2g   B3g    Au   B1u   B2u   B3u 
    DOCC [     2,    0,    0,    0,    0,    1,    2,    1 ]
    SOCC [     1,    1,    0,    1,    0,    0,    0,    0 ]
    NA   [     3,    1,    0,    1,    0,    1,    2,    1 ]
    NB   [     2,    0,    0,    0,    0,    1,    2,    1 ]

  @DF-UKS Final Energy:  -149.66628338744226

   => Energetics <=

    Nuclear Repulsion Energy =             28.2227845690666719
    One-Electron Energy =                -254.4402809061455173
    Two-Electron Energy =                  89.9796220992926692
    DFT Exchange-Correlation Energy =     -13.4284091496560922
    Empirical Dispersion Energy =           0.0000000000000000
    VV10 Nonlocal Energy =                  0.0000000000000000
    Total Energy =                       -149.6662833874422631

  UHF NO Occupations:
  HONO-2 :    3 Ag 1.0000000
  HONO-1 :    1B3g 1.0000000
  HONO-0 :    1B1g 1.0000000
  LUNO+0 :    2B1u 0.0014913
  LUNO+1 :    2B3u 0.0014913
  LUNO+2 :    3B2u 0.0013114
  LUNO+3 :    4 Ag 0.0001720


Computation Completed


Properties will be evaluated at   0.000000,   0.000000,   0.000000 [a0]

Properties computed using the SCF density matrix


 Multipole Moments:

 ------------------------------------------------------------------------------------
     Multipole            Electronic (a.u.)      Nuclear  (a.u.)        Total (a.u.)
 ------------------------------------------------------------------------------------

 L = 1.  Multiply by 2.5417464519 to convert [e a0] to [Debye]
 Dipole X            :          0.0000000            0.0000000            0.0000000
 Dipole Y            :          0.0000000            0.0000000            0.0000000
 Dipole Z            :          0.0000000            0.0000000            0.0000000
 Magnitude           :                                                    0.0000000

 ------------------------------------------------------------------------------------

*** tstop() called on Joses-MacBook-Pro-2.local at Thu Jul 17 13:59:22 2025
Module time:
	user time   =       2.18 seconds =       0.04 minutes
	system time =       5.64 seconds =       0.09 minutes
	total time  =          1 seconds =       0.02 minutes
Total time:
	user time   =       2.18 seconds =       0.04 minutes
	system time =       5.64 seconds =       0.09 minutes
	total time  =          1 seconds =       0.02 minutes

*** tstart() called on Joses-MacBook-Pro-2.local
*** at Thu Jul 17 13:59:22 2025


         ------------------------------------------------------------
                                   SCF GRAD                          
                          Rob Parrish, Justin Turney,                
                       Andy Simmonett, and Alex Sokolov              
         ------------------------------------------------------------

  ==> Geometry <==

    Molecular point group: d2h
    Full point group: D_inf_h

    Geometry (in Angstrom), charge = 1, multiplicity = 4:

       Center              X                  Y                   Z               Mass       
    ------------   -----------------  -----------------  -----------------  -----------------
         O           -0.000000000000     0.600000000000     0.000000000000    15.994914619570
         O            0.000000000000    -0.600000000000     0.000000000000    15.994914619570

  Nuclear repulsion =   28.222784569066672

  ==> Basis Set <==

  Basis Set: CC-PVDZ
    Blend: CC-PVDZ
    Number of shells: 12
    Number of basis functions: 28
    Number of Cartesian functions: 30
    Spherical Harmonics?: true
    Max angular momentum: 2

  ==> DFJKGrad: Density-Fitted SCF Gradients <==

    Gradient:                    1
    J tasked:                  Yes
    K tasked:                  Yes
    wK tasked:                  No
    OpenMP threads:              1
    Integrals threads:           1
    Memory [MiB]:              375
    Schwarz Cutoff:          1E-12
    Fitting Condition:       1E-10

   => Auxiliary Basis Set <=

  Basis Set: (CC-PVDZ AUX)
    Blend: CC-PVDZ-JKFIT
    Number of shells: 48
    Number of basis functions: 140
    Number of Cartesian functions: 162
    Spherical Harmonics?: true
    Max angular momentum: 3

  ==> DFT Potential <==

   => LibXC <=

    Version 6.2.2
    S. Lehtola, C. Steigemann, M. J.T. Oliveira, and M. A.L. Marques.,  SoftwareX 7, 1–5 (2018) (10.1016/j.softx.2017.11.002)

   => Composite Functional: B3LYP <= 

    B3LYP Hyb-GGA Exchange-Correlation Functional

    P. J. Stephens, F. J. Devlin, C. F. Chabalowski, and M. J. Frisch.,  J. Phys. Chem. 98, 11623 (1994) (10.1021/j100096a001)

    Deriv               =              1
    GGA                 =           TRUE
    Meta                =          FALSE

    Exchange Hybrid     =           TRUE
    MP2 Hybrid          =          FALSE

   => Exchange Functionals <=

    0.0800   Slater exchange
    0.7200         Becke 88

   => Exact (HF) Exchange <=

    0.2000               HF 

   => Correlation Functionals <=

    0.1900   Vosko, Wilk & Nusair (VWN5_RPA)
    0.8100   Lee, Yang & Parr

   => LibXC Density Thresholds  <==

    XC_HYB_GGA_XC_B3LYP:  1.00E-15 

   => Molecular Quadrature <=

    Radial Scheme          =       TREUTLER
    Pruning Scheme         =           NONE
    Nuclear Scheme         =       TREUTLER

    Blocking Scheme        =         OCTREE
    BS radius alpha        =              1
    Pruning alpha          =              1
    Radial Points          =             75
    Spherical Points       =            302
    Total Points           =          41434
    Total Blocks           =            370
    Max Points             =            252
    Max Functions          =             28
    Weights Tolerance      =       1.00E-15


  -Total Gradient:
     Atom            X                  Y                   Z
    ------   -----------------  -----------------  -----------------
       1        0.000000000000    -0.080679451213     0.000000000000
       2       -0.000000000000     0.080679451213     0.000000000000


*** tstop() called on Joses-MacBook-Pro-2.local at Thu Jul 17 13:59:22 2025
Module time:
	user time   =       0.50 seconds =       0.01 minutes
	system time =       1.07 seconds =       0.02 minutes
	total time  =          0 seconds =       0.00 minutes
Total time:
	user time   =       2.68 seconds =       0.04 minutes
	system time =       6.71 seconds =       0.11 minutes
	total time  =          1 seconds =       0.02 minutes

    			-----------------------------------------

    			 OPTKING 3.0: for geometry optimizations 

    			     By R.A. King, Bethel University     

    			        with contributions from          

    			    A.V. Copan, J. Cayton, A. Heide      

    			-----------------------------------------

    
	                            ===> Fragment 1 <== 

	 Z (Atomic Numbers)          Masses                          Geom                  
	       8.000000            15.994915         -0.00000000  1.13383568  0.00000000   
	       8.000000            15.994915          0.00000000 -1.13383568  0.00000000   

	 - Coordinate -           - BOHR/RAD -       - ANG/DEG -
	 R(1,2)           =         2.267671           1.200000


	        --- Internal Coordinate Step in ANG or DEG, aJ/ANG or AJ/DEG ---
	-------------------------------------------------------------------------------
	           Coordinate      Previous         Force          Change          New 
	           ----------      --------        ------          ------        ------
	               R(1,2)       1.20000        0.66470        0.04049       1.24049
	-------------------------------------------------------------------------------

	                                 ==> Convergence Check <==                                  
    
	Measures of convergence in internal coordinates in au.
    
	Criteria marked as inactive (o), active & met (*), and active & unmet ( ).

	----------------------------------------------------------------------------------------------
	   Step    Total Energy     Delta E     Max Force     RMS Force      Max Disp      RMS Disp   
	----------------------------------------------------------------------------------------------
	  Convergence Criteria     1.00e-06 *    3.00e-04 *             o    1.20e-03 *             o
	----------------------------------------------------------------------------------------------
	     1    -149.66628339   -1.50e+02      8.07e-02      8.07e-02 o    7.65e-02      7.65e-02 o  ~
	----------------------------------------------------------------------------------------------

Next Geometry in Ang 
	Fragment 1 (Ang)

	    O  -0.0000000000   0.6202454312   0.0000000000
	    O   0.0000000000  -0.6202454312   0.0000000000


    Structure for next step:
    Molecular point group: d2h
    Full point group: D_inf_h

    Geometry (in Angstrom), charge = 1, multiplicity = 4:

    O           -0.000000000000     0.620245431165     0.000000000000
    O            0.000000000000    -0.620245431165     0.000000000000


Scratch directory: /tmp/
gradient() will perform analytic gradient computation.
   => Libint2 <=

    Primary   basis highest AM E, G, H:  6, 6, 3
    Auxiliary basis highest AM E, G, H:  7, 7, 4
    Onebody   basis highest AM E, G, H:  -, -, -
    Solid Harmonics ordering:            Gaussian

*** tstart() called on Joses-MacBook-Pro-2.local
*** at Thu Jul 17 13:59:22 2025

   => Loading Basis Set <=

    Name: CC-PVDZ
    Role: ORBITAL
    Keyword: BASIS
    atoms 1-2 entry O          line   198 file /Users/joseantoniorodriguesromero/anaconda3/share/psi4/basis/cc-pvdz.gbs 


         ---------------------------------------------------------
                                   SCF
               by Justin Turney, Rob Parrish, Andy Simmonett
                          and Daniel G. A. Smith
                              UKS Reference
                        1 Threads,    500 MiB Core
         ---------------------------------------------------------

  ==> Geometry <==

    Molecular point group: d2h
    Full point group: D_inf_h

    Geometry (in Angstrom), charge = 1, multiplicity = 4:

       Center              X                  Y                   Z               Mass       
    ------------   -----------------  -----------------  -----------------  -----------------
         O           -0.000000000000     0.620245431165     0.000000000000    15.994914619570
         O            0.000000000000    -0.620245431165     0.000000000000    15.994914619570

  Running in d2h symmetry.

  Rotational constants: A = ************  B =      1.36980  C =      1.36980 [cm^-1]
  Rotational constants: A = ************  B =  41065.59595  C =  41065.59595 [MHz]
  Nuclear repulsion =   27.301564655856581

  Charge       = 1
  Multiplicity = 4
  Electrons    = 15
  Nalpha       = 9
  Nbeta        = 6

  ==> Algorithm <==

  SCF Algorithm Type is DF.
  DIIS enabled.
  MOM disabled.
  Fractional occupation disabled.
  Guess Type is READ.
  Energy threshold   = 1.00e-08
  Density threshold  = 1.00e-08
  Integral threshold = 1.00e-12

  ==> Primary Basis <==

  Basis Set: CC-PVDZ
    Blend: CC-PVDZ
    Number of shells: 12
    Number of basis functions: 28
    Number of Cartesian functions: 30
    Spherical Harmonics?: true
    Max angular momentum: 2

  ==> DFT Potential <==

   => LibXC <=

    Version 6.2.2
    S. Lehtola, C. Steigemann, M. J.T. Oliveira, and M. A.L. Marques.,  SoftwareX 7, 1–5 (2018) (10.1016/j.softx.2017.11.002)

   => Composite Functional: B3LYP <= 

    B3LYP Hyb-GGA Exchange-Correlation Functional

    P. J. Stephens, F. J. Devlin, C. F. Chabalowski, and M. J. Frisch.,  J. Phys. Chem. 98, 11623 (1994) (10.1021/j100096a001)

    Deriv               =              1
    GGA                 =           TRUE
    Meta                =          FALSE

    Exchange Hybrid     =           TRUE
    MP2 Hybrid          =          FALSE

   => Exchange Functionals <=

    0.0800   Slater exchange
    0.7200         Becke 88

   => Exact (HF) Exchange <=

    0.2000               HF 

   => Correlation Functionals <=

    0.1900   Vosko, Wilk & Nusair (VWN5_RPA)
    0.8100   Lee, Yang & Parr

   => LibXC Density Thresholds  <==

    XC_HYB_GGA_XC_B3LYP:  1.00E-15 

   => Molecular Quadrature <=

    Radial Scheme          =       TREUTLER
    Pruning Scheme         =           NONE
    Nuclear Scheme         =       TREUTLER

    Blocking Scheme        =         OCTREE
    BS radius alpha        =              1
    Pruning alpha          =              1
    Radial Points          =             75
    Spherical Points       =            302
    Total Points           =          41436
    Total Blocks           =            372
    Max Points             =            252
    Max Functions          =             28
    Weights Tolerance      =       1.00E-15

   => Loading Basis Set <=

    Name: (CC-PVDZ AUX)
    Role: JKFIT
    Keyword: DF_BASIS_SCF
    atoms 1-2 entry O          line   221 file /Users/joseantoniorodriguesromero/anaconda3/share/psi4/basis/cc-pvdz-jkfit.gbs 

   => Loading Basis Set <=

    Name: CC-PVDZ
    Role: ORBITAL
    Keyword: BASIS
    atoms 1-2 entry O          line   198 file /Users/joseantoniorodriguesromero/anaconda3/share/psi4/basis/cc-pvdz.gbs 

  Reading orbitals from file /tmp/quartet_OO.default.74532.180.npy, no projection.

  ==> Integral Setup <==

  DFHelper Memory: AOs need 0.001 GiB; user supplied 0.333 GiB. 
  Using in-core AOs.

  ==> MemDFJK: Density-Fitted J/K Matrices <==

    J tasked:                   Yes
    K tasked:                   Yes
    wK tasked:                   No
    OpenMP threads:               1
    Memory [MiB]:               340
    Algorithm:                 Core
    Schwarz Cutoff:           1E-12
    Mask sparsity (%):       0.0000
    Fitting Condition:        1E-10

   => Auxiliary Basis Set <=

  Basis Set: (CC-PVDZ AUX)
    Blend: CC-PVDZ-JKFIT
    Number of shells: 48
    Number of basis functions: 140
    Number of Cartesian functions: 162
    Spherical Harmonics?: true
    Max angular momentum: 3

  Cached 100.0% of DFT collocation blocks in 0.033 [GiB].

  Minimum eigenvalue in the overlap matrix is 3.3227980551E-02.
  Reciprocal condition number of the overlap matrix is 1.3111432162E-02.
    Using symmetric orthogonalization.

  ==> Pre-Iterations <==

  SCF Guess: Orbitals guess was supplied from a previous computation.

   -------------------------------------------------------
    Irrep   Nso     Nmo     Nalpha   Nbeta   Ndocc  Nsocc
   -------------------------------------------------------
     Ag         7       7       3       2       2       1
     B1g        3       3       1       0       0       1
     B2g        1       1       0       0       0       0
     B3g        3       3       1       0       0       1
     Au         1       1       0       0       0       0
     B1u        3       3       1       1       1       0
     B2u        7       7       2       2       2       0
     B3u        3       3       1       1       1       0
   -------------------------------------------------------
    Total      28      28       9       6       6       3
   -------------------------------------------------------

  ==> Iterations <==

                           Total Energy        Delta E     RMS |[F,P]|

   @DF-UKS iter   0:  -149.61718448160835   -1.49617e+02   1.09500e-02 
   @DF-UKS iter   1:  -149.66996602260281   -5.27815e-02   2.06068e-03 DIIS/ADIIS
   @DF-UKS iter   2:  -149.67012276894775   -1.56746e-04   1.08064e-03 DIIS/ADIIS/DAMP=1%
   @DF-UKS iter   3:  -149.66994485610934    1.77913e-04   8.70126e-05 DIIS/DAMP=1%
   @DF-UKS iter   4:  -149.67020701396245   -2.62158e-04   2.40752e-05 DIIS/DAMP=1%
   @DF-UKS iter   5:  -149.67016853698894    3.84770e-05   1.46122e-06 DIIS/DAMP=1%
   @DF-UKS iter   6:  -149.67017545768132   -6.92069e-06   1.70979e-07 DIIS/DAMP=1%
   @DF-UKS iter   7:  -149.67017531811979    1.39562e-07   1.57618e-08 DIIS/DAMP=1%
   @DF-UKS iter   8:  -149.67017536937195   -5.12522e-08   1.76003e-09 DIIS/DAMP=1%
   @DF-UKS iter   9:  -149.67017536582981    3.54214e-09   1.60763e-10 DIIS/DAMP=1%
  Energy and wave function converged.


  ==> Post-Iterations <==

   Electrons on quadrature grid:
      Nalpha   =    8.9999998121 ; deviation = -1.879e-07
      Nbeta    =    6.0000000212 ; deviation = 2.124e-08
      Ntotal   =   14.9999998334 ; deviation = -1.666e-07 

   @Spin Contamination Metric:   9.502948362E-03
   @S^2 Expected:                3.750000000E+00
   @S^2 Observed:                3.759502948E+00
   @S   Expected:                1.500000000E+00
   @S   Observed:                1.500000000E+00

    Orbital Energies [Eh]
    ---------------------

    Alpha Occupied:                                                       

       1Ag   -19.826471     1B2u  -19.826409     2Ag    -1.764924  
       2B2u   -1.346238     3Ag    -1.067397     1B3u   -1.010292  
       1B1u   -1.010292     1B1g   -0.786593     1B3g   -0.786593  

    Alpha Virtual:                                                        

       3B2u   -0.321751     4B2u    0.368423     2B3u    0.409018  
       2B1u    0.409018     4Ag     0.496409     2B1g    0.538581  
       2B3g    0.538581     5Ag     0.645707     5B2u    1.245953  
       3B3u    1.575510     3B1u    1.575510     1B2g    1.873743  
       6Ag     1.873744     1Au     2.134848     6B2u    2.134849  
       7Ag     2.178849     3B1g    2.713299     3B3g    2.713299  
       7B2u    3.268783  

    Beta Occupied:                                                        

       1Ag   -19.779989     1B2u  -19.779895     2Ag    -1.672390  
       2B2u   -1.169463     1B3u   -0.883865     1B1u   -0.883865  

    Beta Virtual:                                                         

       3Ag    -0.823782     1B1g   -0.560635     1B3g   -0.560635  
       3B2u   -0.208881     4B2u    0.440915     2B3u    0.471734  
       2B1u    0.471734     4Ag     0.555907     2B1g    0.600140  
       2B3g    0.600140     5Ag     0.700150     5B2u    1.303030  
       3B3u    1.670111     3B1u    1.670111     1B2g    1.966338  
       6Ag     1.966338     1Au     2.237419     6B2u    2.237419  
       7Ag     2.283411     3B1g    2.813634     3B3g    2.813634  
       7B2u    3.369155  

    Final Occupation by Irrep:
             Ag   B1g   B2g   B3g    Au   B1u   B2u   B3u 
    DOCC [     2,    0,    0,    0,    0,    1,    2,    1 ]
    SOCC [     1,    1,    0,    1,    0,    0,    0,    0 ]
    NA   [     3,    1,    0,    1,    0,    1,    2,    1 ]
    NB   [     2,    0,    0,    0,    0,    1,    2,    1 ]

  @DF-UKS Final Energy:  -149.67017536582981

   => Energetics <=

    Nuclear Repulsion Energy =             27.3015646558565805
    One-Electron Energy =                -252.7198247330440779
    Two-Electron Energy =                  89.1504100963605879
    DFT Exchange-Correlation Energy =     -13.4023253850029107
    Empirical Dispersion Energy =           0.0000000000000000
    VV10 Nonlocal Energy =                  0.0000000000000000
    Total Energy =                       -149.6701753658298060

  UHF NO Occupations:
  HONO-2 :    3 Ag 1.0000000
  HONO-1 :    1B3g 1.0000000
  HONO-0 :    1B1g 1.0000000
  LUNO+0 :    2B3u 0.0015601
  LUNO+1 :    2B1u 0.0015601
  LUNO+2 :    3B2u 0.0014509
  LUNO+3 :    4 Ag 0.0001835


Computation Completed


Properties will be evaluated at   0.000000,   0.000000,   0.000000 [a0]

Properties computed using the SCF density matrix


 Multipole Moments:

 ------------------------------------------------------------------------------------
     Multipole            Electronic (a.u.)      Nuclear  (a.u.)        Total (a.u.)
 ------------------------------------------------------------------------------------

 L = 1.  Multiply by 2.5417464519 to convert [e a0] to [Debye]
 Dipole X            :          0.0000000            0.0000000            0.0000000
 Dipole Y            :          0.0000000            0.0000000            0.0000000
 Dipole Z            :          0.0000000            0.0000000            0.0000000
 Magnitude           :                                                    0.0000000

 ------------------------------------------------------------------------------------

*** tstop() called on Joses-MacBook-Pro-2.local at Thu Jul 17 13:59:22 2025
Module time:
	user time   =       2.13 seconds =       0.04 minutes
	system time =       4.47 seconds =       0.07 minutes
	total time  =          0 seconds =       0.00 minutes
Total time:
	user time   =       4.85 seconds =       0.08 minutes
	system time =      11.40 seconds =       0.19 minutes
	total time  =          1 seconds =       0.02 minutes

*** tstart() called on Joses-MacBook-Pro-2.local
*** at Thu Jul 17 13:59:22 2025


         ------------------------------------------------------------
                                   SCF GRAD                          
                          Rob Parrish, Justin Turney,                
                       Andy Simmonett, and Alex Sokolov              
         ------------------------------------------------------------

  ==> Geometry <==

    Molecular point group: d2h
    Full point group: D_inf_h

    Geometry (in Angstrom), charge = 1, multiplicity = 4:

       Center              X                  Y                   Z               Mass       
    ------------   -----------------  -----------------  -----------------  -----------------
         O           -0.000000000000     0.620245431165     0.000000000000    15.994914619570
         O            0.000000000000    -0.620245431165     0.000000000000    15.994914619570

  Nuclear repulsion =   27.301564655856581

  ==> Basis Set <==

  Basis Set: CC-PVDZ
    Blend: CC-PVDZ
    Number of shells: 12
    Number of basis functions: 28
    Number of Cartesian functions: 30
    Spherical Harmonics?: true
    Max angular momentum: 2

  ==> DFJKGrad: Density-Fitted SCF Gradients <==

    Gradient:                    1
    J tasked:                  Yes
    K tasked:                  Yes
    wK tasked:                  No
    OpenMP threads:              1
    Integrals threads:           1
    Memory [MiB]:              375
    Schwarz Cutoff:          1E-12
    Fitting Condition:       1E-10

   => Auxiliary Basis Set <=

  Basis Set: (CC-PVDZ AUX)
    Blend: CC-PVDZ-JKFIT
    Number of shells: 48
    Number of basis functions: 140
    Number of Cartesian functions: 162
    Spherical Harmonics?: true
    Max angular momentum: 3

  ==> DFT Potential <==

   => LibXC <=

    Version 6.2.2
    S. Lehtola, C. Steigemann, M. J.T. Oliveira, and M. A.L. Marques.,  SoftwareX 7, 1–5 (2018) (10.1016/j.softx.2017.11.002)

   => Composite Functional: B3LYP <= 

    B3LYP Hyb-GGA Exchange-Correlation Functional

    P. J. Stephens, F. J. Devlin, C. F. Chabalowski, and M. J. Frisch.,  J. Phys. Chem. 98, 11623 (1994) (10.1021/j100096a001)

    Deriv               =              1
    GGA                 =           TRUE
    Meta                =          FALSE

    Exchange Hybrid     =           TRUE
    MP2 Hybrid          =          FALSE

   => Exchange Functionals <=

    0.0800   Slater exchange
    0.7200         Becke 88

   => Exact (HF) Exchange <=

    0.2000               HF 

   => Correlation Functionals <=

    0.1900   Vosko, Wilk & Nusair (VWN5_RPA)
    0.8100   Lee, Yang & Parr

   => LibXC Density Thresholds  <==

    XC_HYB_GGA_XC_B3LYP:  1.00E-15 

   => Molecular Quadrature <=

    Radial Scheme          =       TREUTLER
    Pruning Scheme         =           NONE
    Nuclear Scheme         =       TREUTLER

    Blocking Scheme        =         OCTREE
    BS radius alpha        =              1
    Pruning alpha          =              1
    Radial Points          =             75
    Spherical Points       =            302
    Total Points           =          41436
    Total Blocks           =            372
    Max Points             =            252
    Max Functions          =             28
    Weights Tolerance      =       1.00E-15


  -Total Gradient:
     Atom            X                  Y                   Z
    ------   -----------------  -----------------  -----------------
       1        0.000000000000    -0.023996391559     0.000000000000
       2       -0.000000000000     0.023996391559     0.000000000000


*** tstop() called on Joses-MacBook-Pro-2.local at Thu Jul 17 13:59:23 2025
Module time:
	user time   =       0.53 seconds =       0.01 minutes
	system time =       1.17 seconds =       0.02 minutes
	total time  =          1 seconds =       0.02 minutes
Total time:
	user time   =       5.38 seconds =       0.09 minutes
	system time =      12.57 seconds =       0.21 minutes
	total time  =          2 seconds =       0.03 minutes

    			-----------------------------------------

    			 OPTKING 3.0: for geometry optimizations 

    			     By R.A. King, Bethel University     

    			        with contributions from          

    			    A.V. Copan, J. Cayton, A. Heide      

    			-----------------------------------------

    
	                            ===> Fragment 1 <== 

	 Z (Atomic Numbers)          Masses                          Geom                  
	       8.000000            15.994915         -0.00000000  1.17209400  0.00000000   
	       8.000000            15.994915          0.00000000 -1.17209400  0.00000000   

	 - Coordinate -           - BOHR/RAD -       - ANG/DEG -
	 R(1,2)           =         2.344188           1.240491


	        --- Internal Coordinate Step in ANG or DEG, aJ/ANG or AJ/DEG ---
	-------------------------------------------------------------------------------
	           Coordinate      Previous         Force          Change          New 
	           ----------      --------        ------          ------        ------
	               R(1,2)       1.24049        0.19770        0.01712       1.25761
	-------------------------------------------------------------------------------

	                                 ==> Convergence Check <==                                  
    
	Measures of convergence in internal coordinates in au.
    
	Criteria marked as inactive (o), active & met (*), and active & unmet ( ).

	----------------------------------------------------------------------------------------------
	   Step    Total Energy     Delta E     Max Force     RMS Force      Max Disp      RMS Disp   
	----------------------------------------------------------------------------------------------
	  Convergence Criteria     1.00e-06 *    3.00e-04 *             o    1.20e-03 *             o
	----------------------------------------------------------------------------------------------
	     2    -149.67017537   -3.89e-03      2.40e-02      2.40e-02 o    3.24e-02      3.24e-02 o  ~
	----------------------------------------------------------------------------------------------

Next Geometry in Ang 
	Fragment 1 (Ang)

	    O  -0.0000000000   0.6288072237   0.0000000000
	    O   0.0000000000  -0.6288072237   0.0000000000


    Structure for next step:
    Molecular point group: d2h
    Full point group: D_inf_h

    Geometry (in Angstrom), charge = 1, multiplicity = 4:

    O           -0.000000000000     0.628807223672     0.000000000000
    O            0.000000000000    -0.628807223672     0.000000000000


Scratch directory: /tmp/
gradient() will perform analytic gradient computation.
   => Libint2 <=

    Primary   basis highest AM E, G, H:  6, 6, 3
    Auxiliary basis highest AM E, G, H:  7, 7, 4
    Onebody   basis highest AM E, G, H:  -, -, -
    Solid Harmonics ordering:            Gaussian

*** tstart() called on Joses-MacBook-Pro-2.local
*** at Thu Jul 17 13:59:23 2025

   => Loading Basis Set <=

    Name: CC-PVDZ
    Role: ORBITAL
    Keyword: BASIS
    atoms 1-2 entry O          line   198 file /Users/joseantoniorodriguesromero/anaconda3/share/psi4/basis/cc-pvdz.gbs 


         ---------------------------------------------------------
                                   SCF
               by Justin Turney, Rob Parrish, Andy Simmonett
                          and Daniel G. A. Smith
                              UKS Reference
                        1 Threads,    500 MiB Core
         ---------------------------------------------------------

  ==> Geometry <==

    Molecular point group: d2h
    Full point group: D_inf_h

    Geometry (in Angstrom), charge = 1, multiplicity = 4:

       Center              X                  Y                   Z               Mass       
    ------------   -----------------  -----------------  -----------------  -----------------
         O           -0.000000000000     0.628807223672     0.000000000000    15.994914619570
         O            0.000000000000    -0.628807223672     0.000000000000    15.994914619570

  Running in d2h symmetry.

  Rotational constants: A = ************  B =      1.33275  C =      1.33275 [cm^-1]
  Rotational constants: A = ************  B =  39954.91703  C =  39954.91703 [MHz]
  Nuclear repulsion =   26.929828576964056

  Charge       = 1
  Multiplicity = 4
  Electrons    = 15
  Nalpha       = 9
  Nbeta        = 6

  ==> Algorithm <==

  SCF Algorithm Type is DF.
  DIIS enabled.
  MOM disabled.
  Fractional occupation disabled.
  Guess Type is READ.
  Energy threshold   = 1.00e-08
  Density threshold  = 1.00e-08
  Integral threshold = 1.00e-12

  ==> Primary Basis <==

  Basis Set: CC-PVDZ
    Blend: CC-PVDZ
    Number of shells: 12
    Number of basis functions: 28
    Number of Cartesian functions: 30
    Spherical Harmonics?: true
    Max angular momentum: 2

  ==> DFT Potential <==

   => LibXC <=

    Version 6.2.2
    S. Lehtola, C. Steigemann, M. J.T. Oliveira, and M. A.L. Marques.,  SoftwareX 7, 1–5 (2018) (10.1016/j.softx.2017.11.002)

   => Composite Functional: B3LYP <= 

    B3LYP Hyb-GGA Exchange-Correlation Functional

    P. J. Stephens, F. J. Devlin, C. F. Chabalowski, and M. J. Frisch.,  J. Phys. Chem. 98, 11623 (1994) (10.1021/j100096a001)

    Deriv               =              1
    GGA                 =           TRUE
    Meta                =          FALSE

    Exchange Hybrid     =           TRUE
    MP2 Hybrid          =          FALSE

   => Exchange Functionals <=

    0.0800   Slater exchange
    0.7200         Becke 88

   => Exact (HF) Exchange <=

    0.2000               HF 

   => Correlation Functionals <=

    0.1900   Vosko, Wilk & Nusair (VWN5_RPA)
    0.8100   Lee, Yang & Parr

   => LibXC Density Thresholds  <==

    XC_HYB_GGA_XC_B3LYP:  1.00E-15 

   => Molecular Quadrature <=

    Radial Scheme          =       TREUTLER
    Pruning Scheme         =           NONE
    Nuclear Scheme         =       TREUTLER

    Blocking Scheme        =         OCTREE
    BS radius alpha        =              1
    Pruning alpha          =              1
    Radial Points          =             75
    Spherical Points       =            302
    Total Points           =          41436
    Total Blocks           =            372
    Max Points             =            255
    Max Functions          =             28
    Weights Tolerance      =       1.00E-15

   => Loading Basis Set <=

    Name: (CC-PVDZ AUX)
    Role: JKFIT
    Keyword: DF_BASIS_SCF
    atoms 1-2 entry O          line   221 file /Users/joseantoniorodriguesromero/anaconda3/share/psi4/basis/cc-pvdz-jkfit.gbs 

   => Loading Basis Set <=

    Name: CC-PVDZ
    Role: ORBITAL
    Keyword: BASIS
    atoms 1-2 entry O          line   198 file /Users/joseantoniorodriguesromero/anaconda3/share/psi4/basis/cc-pvdz.gbs 

  Reading orbitals from file /tmp/quartet_OO.default.74532.180.npy, no projection.

  ==> Integral Setup <==

  DFHelper Memory: AOs need 0.001 GiB; user supplied 0.333 GiB. 
  Using in-core AOs.

  ==> MemDFJK: Density-Fitted J/K Matrices <==

    J tasked:                   Yes
    K tasked:                   Yes
    wK tasked:                   No
    OpenMP threads:               1
    Memory [MiB]:               340
    Algorithm:                 Core
    Schwarz Cutoff:           1E-12
    Mask sparsity (%):       0.0000
    Fitting Condition:        1E-10

   => Auxiliary Basis Set <=

  Basis Set: (CC-PVDZ AUX)
    Blend: CC-PVDZ-JKFIT
    Number of shells: 48
    Number of basis functions: 140
    Number of Cartesian functions: 162
    Spherical Harmonics?: true
    Max angular momentum: 3

  Cached 100.0% of DFT collocation blocks in 0.033 [GiB].

  Minimum eigenvalue in the overlap matrix is 3.4825426422E-02.
  Reciprocal condition number of the overlap matrix is 1.3815712007E-02.
    Using symmetric orthogonalization.

  ==> Pre-Iterations <==

  SCF Guess: Orbitals guess was supplied from a previous computation.

   -------------------------------------------------------
    Irrep   Nso     Nmo     Nalpha   Nbeta   Ndocc  Nsocc
   -------------------------------------------------------
     Ag         7       7       3       2       2       1
     B1g        3       3       1       0       0       1
     B2g        1       1       0       0       0       0
     B3g        3       3       1       0       0       1
     Au         1       1       0       0       0       0
     B1u        3       3       1       1       1       0
     B2u        7       7       2       2       2       0
     B3u        3       3       1       1       1       0
   -------------------------------------------------------
    Total      28      28       9       6       6       3
   -------------------------------------------------------

  ==> Iterations <==

                           Total Energy        Delta E     RMS |[F,P]|

   @DF-UKS iter   0:  -149.64941803694657   -1.49649e+02   4.32744e-03 
   @DF-UKS iter   1:  -149.67060194717084   -2.11839e-02   8.24063e-04 DIIS/ADIIS
   @DF-UKS iter   2:  -149.67062733459045   -2.53874e-05   4.37693e-04 DIIS/ADIIS/DAMP=1%
   @DF-UKS iter   3:  -149.67054473523805    8.25994e-05   3.46001e-05 DIIS/DAMP=1%
   @DF-UKS iter   4:  -149.67064868715843   -1.03952e-04   1.04642e-05 DIIS/DAMP=1%
   @DF-UKS iter   5:  -149.67063305053267    1.56366e-05   6.90163e-07 DIIS/DAMP=1%
   @DF-UKS iter   6:  -149.67063604148683   -2.99095e-06   7.28204e-08 DIIS/DAMP=1%
   @DF-UKS iter   7:  -149.67063599197692    4.95099e-08   6.74692e-09 DIIS/DAMP=1%
   @DF-UKS iter   8:  -149.67063601269845   -2.07215e-08   8.24521e-10 DIIS/DAMP=1%
   @DF-UKS iter   9:  -149.67063601128359    1.41486e-09   7.90744e-11 DIIS/DAMP=1%
  Energy and wave function converged.


  ==> Post-Iterations <==

   Electrons on quadrature grid:
      Nalpha   =    8.9999997342 ; deviation = -2.658e-07
      Nbeta    =    5.9999999622 ; deviation = -3.782e-08
      Ntotal   =   14.9999996964 ; deviation = -3.036e-07 

   @Spin Contamination Metric:   9.736306427E-03
   @S^2 Expected:                3.750000000E+00
   @S^2 Observed:                3.759736306E+00
   @S   Expected:                1.500000000E+00
   @S   Observed:                1.500000000E+00

    Orbital Energies [Eh]
    ---------------------

    Alpha Occupied:                                                       

       1Ag   -19.826860     1B2u  -19.826807     2Ag    -1.751570  
       2B2u   -1.349782     3Ag    -1.063737     1B1u   -1.003993  
       1B3u   -1.003993     1B3g   -0.790364     1B1g   -0.790364  

    Alpha Virtual:                                                        

       3B2u   -0.343783     4B2u    0.369902     2B1u    0.408981  
       2B3u    0.408981     4Ag     0.501709     2B1g    0.539080  
       2B3g    0.539080     5Ag     0.652449     5B2u    1.236241  
       3B1u    1.581970     3B3u    1.581970     1B2g    1.883579  
       6Ag     1.883580     1Au     2.128221     6B2u    2.128222  
       7Ag     2.135605     3B3g    2.685375     3B1g    2.685375  
       7B2u    3.268864  

    Beta Occupied:                                                        

       1Ag   -19.780471     1B2u  -19.780388     2Ag    -1.658008  
       2B2u   -1.174436     1B1u   -0.877196     1B3u   -0.877196  

    Beta Virtual:                                                         

       3Ag    -0.821031     1B3g   -0.565233     1B1g   -0.565233  
       3B2u   -0.229072     4B2u    0.441726     2B1u    0.472136  
       2B3u    0.472136     4Ag     0.563173     2B1g    0.600340  
       2B3g    0.600340     5Ag     0.705102     5B2u    1.293076  
       3B1u    1.676540     3B3u    1.676540     1B2g    1.976338  
       6Ag     1.976339     1Au     2.230338     6B2u    2.230339  
       7Ag     2.240486     3B3g    2.785456     3B1g    2.785456  
       7B2u    3.369036  

    Final Occupation by Irrep:
             Ag   B1g   B2g   B3g    Au   B1u   B2u   B3u 
    DOCC [     2,    0,    0,    0,    0,    1,    2,    1 ]
    SOCC [     1,    1,    0,    1,    0,    0,    0,    0 ]
    NA   [     3,    1,    0,    1,    0,    1,    2,    1 ]
    NB   [     2,    0,    0,    0,    0,    1,    2,    1 ]

  @DF-UKS Final Energy:  -149.67063601128359

   => Energetics <=

    Nuclear Repulsion Energy =             26.9298285769640557
    One-Electron Energy =                -252.0234238636678015
    Two-Electron Energy =                  88.8151477118390176
    DFT Exchange-Correlation Energy =     -13.3921884364188521
    Empirical Dispersion Energy =           0.0000000000000000
    VV10 Nonlocal Energy =                  0.0000000000000000
    Total Energy =                       -149.6706360112835910

  UHF NO Occupations:
  HONO-2 :    3 Ag 1.0000000
  HONO-1 :    1B1g 1.0000000
  HONO-0 :    1B3g 1.0000000
  LUNO+0 :    2B1u 0.0015866
  LUNO+1 :    2B3u 0.0015866
  LUNO+2 :    3B2u 0.0015102
  LUNO+3 :    4 Ag 0.0001880


Computation Completed


Properties will be evaluated at   0.000000,   0.000000,   0.000000 [a0]

Properties computed using the SCF density matrix


 Multipole Moments:

 ------------------------------------------------------------------------------------
     Multipole            Electronic (a.u.)      Nuclear  (a.u.)        Total (a.u.)
 ------------------------------------------------------------------------------------

 L = 1.  Multiply by 2.5417464519 to convert [e a0] to [Debye]
 Dipole X            :          0.0000000            0.0000000            0.0000000
 Dipole Y            :          0.0000000            0.0000000            0.0000000
 Dipole Z            :          0.0000000            0.0000000            0.0000000
 Magnitude           :                                                    0.0000000

 ------------------------------------------------------------------------------------

*** tstop() called on Joses-MacBook-Pro-2.local at Thu Jul 17 13:59:23 2025
Module time:
	user time   =       2.14 seconds =       0.04 minutes
	system time =       4.65 seconds =       0.08 minutes
	total time  =          0 seconds =       0.00 minutes
Total time:
	user time   =       7.56 seconds =       0.13 minutes
	system time =      17.46 seconds =       0.29 minutes
	total time  =          2 seconds =       0.03 minutes

*** tstart() called on Joses-MacBook-Pro-2.local
*** at Thu Jul 17 13:59:23 2025


         ------------------------------------------------------------
                                   SCF GRAD                          
                          Rob Parrish, Justin Turney,                
                       Andy Simmonett, and Alex Sokolov              
         ------------------------------------------------------------

  ==> Geometry <==

    Molecular point group: d2h
    Full point group: D_inf_h

    Geometry (in Angstrom), charge = 1, multiplicity = 4:

       Center              X                  Y                   Z               Mass       
    ------------   -----------------  -----------------  -----------------  -----------------
         O           -0.000000000000     0.628807223672     0.000000000000    15.994914619570
         O            0.000000000000    -0.628807223672     0.000000000000    15.994914619570

  Nuclear repulsion =   26.929828576964056

  ==> Basis Set <==

  Basis Set: CC-PVDZ
    Blend: CC-PVDZ
    Number of shells: 12
    Number of basis functions: 28
    Number of Cartesian functions: 30
    Spherical Harmonics?: true
    Max angular momentum: 2

  ==> DFJKGrad: Density-Fitted SCF Gradients <==

    Gradient:                    1
    J tasked:                  Yes
    K tasked:                  Yes
    wK tasked:                  No
    OpenMP threads:              1
    Integrals threads:           1
    Memory [MiB]:              375
    Schwarz Cutoff:          1E-12
    Fitting Condition:       1E-10

   => Auxiliary Basis Set <=

  Basis Set: (CC-PVDZ AUX)
    Blend: CC-PVDZ-JKFIT
    Number of shells: 48
    Number of basis functions: 140
    Number of Cartesian functions: 162
    Spherical Harmonics?: true
    Max angular momentum: 3

  ==> DFT Potential <==

   => LibXC <=

    Version 6.2.2
    S. Lehtola, C. Steigemann, M. J.T. Oliveira, and M. A.L. Marques.,  SoftwareX 7, 1–5 (2018) (10.1016/j.softx.2017.11.002)

   => Composite Functional: B3LYP <= 

    B3LYP Hyb-GGA Exchange-Correlation Functional

    P. J. Stephens, F. J. Devlin, C. F. Chabalowski, and M. J. Frisch.,  J. Phys. Chem. 98, 11623 (1994) (10.1021/j100096a001)

    Deriv               =              1
    GGA                 =           TRUE
    Meta                =          FALSE

    Exchange Hybrid     =           TRUE
    MP2 Hybrid          =          FALSE

   => Exchange Functionals <=

    0.0800   Slater exchange
    0.7200         Becke 88

   => Exact (HF) Exchange <=

    0.2000               HF 

   => Correlation Functionals <=

    0.1900   Vosko, Wilk & Nusair (VWN5_RPA)
    0.8100   Lee, Yang & Parr

   => LibXC Density Thresholds  <==

    XC_HYB_GGA_XC_B3LYP:  1.00E-15 

   => Molecular Quadrature <=

    Radial Scheme          =       TREUTLER
    Pruning Scheme         =           NONE
    Nuclear Scheme         =       TREUTLER

    Blocking Scheme        =         OCTREE
    BS radius alpha        =              1
    Pruning alpha          =              1
    Radial Points          =             75
    Spherical Points       =            302
    Total Points           =          41436
    Total Blocks           =            372
    Max Points             =            255
    Max Functions          =             28
    Weights Tolerance      =       1.00E-15


  -Total Gradient:
     Atom            X                  Y                   Z
    ------   -----------------  -----------------  -----------------
       1        0.000000000000    -0.004914078511     0.000000000000
       2       -0.000000000000     0.004914078511    -0.000000000000


*** tstop() called on Joses-MacBook-Pro-2.local at Thu Jul 17 13:59:24 2025
Module time:
	user time   =       0.63 seconds =       0.01 minutes
	system time =       1.20 seconds =       0.02 minutes
	total time  =          1 seconds =       0.02 minutes
Total time:
	user time   =       8.20 seconds =       0.14 minutes
	system time =      18.68 seconds =       0.31 minutes
	total time  =          3 seconds =       0.05 minutes

    			-----------------------------------------

    			 OPTKING 3.0: for geometry optimizations 

    			     By R.A. King, Bethel University     

    			        with contributions from          

    			    A.V. Copan, J. Cayton, A. Heide      

    			-----------------------------------------

    
	                            ===> Fragment 1 <== 

	 Z (Atomic Numbers)          Masses                          Geom                  
	       8.000000            15.994915         -0.00000000  1.18827344  0.00000000   
	       8.000000            15.994915          0.00000000 -1.18827344  0.00000000   

	 - Coordinate -           - BOHR/RAD -       - ANG/DEG -
	 R(1,2)           =         2.376547           1.257614


	        --- Internal Coordinate Step in ANG or DEG, aJ/ANG or AJ/DEG ---
	-------------------------------------------------------------------------------
	           Coordinate      Previous         Force          Change          New 
	           ----------      --------        ------          ------        ------
	               R(1,2)       1.25761        0.04049        0.00374       1.26135
	-------------------------------------------------------------------------------

	                                 ==> Convergence Check <==                                  
    
	Measures of convergence in internal coordinates in au.
    
	Criteria marked as inactive (o), active & met (*), and active & unmet ( ).

	----------------------------------------------------------------------------------------------
	   Step    Total Energy     Delta E     Max Force     RMS Force      Max Disp      RMS Disp   
	----------------------------------------------------------------------------------------------
	  Convergence Criteria     1.00e-06 *    3.00e-04 *             o    1.20e-03 *             o
	----------------------------------------------------------------------------------------------
	     3    -149.67063601   -4.61e-04      4.91e-03      4.91e-03 o    7.06e-03      7.06e-03 o  ~
	----------------------------------------------------------------------------------------------

Next Geometry in Ang 
	Fragment 1 (Ang)

	    O  -0.0000000000   0.6306755429   0.0000000000
	    O   0.0000000000  -0.6306755429   0.0000000000


    Structure for next step:
    Molecular point group: d2h
    Full point group: D_inf_h

    Geometry (in Angstrom), charge = 1, multiplicity = 4:

    O           -0.000000000000     0.630675542871     0.000000000000
    O            0.000000000000    -0.630675542871     0.000000000000


Scratch directory: /tmp/
gradient() will perform analytic gradient computation.
   => Libint2 <=

    Primary   basis highest AM E, G, H:  6, 6, 3
    Auxiliary basis highest AM E, G, H:  7, 7, 4
    Onebody   basis highest AM E, G, H:  -, -, -
    Solid Harmonics ordering:            Gaussian

*** tstart() called on Joses-MacBook-Pro-2.local
*** at Thu Jul 17 13:59:24 2025

   => Loading Basis Set <=

    Name: CC-PVDZ
    Role: ORBITAL
    Keyword: BASIS
    atoms 1-2 entry O          line   198 file /Users/joseantoniorodriguesromero/anaconda3/share/psi4/basis/cc-pvdz.gbs 


         ---------------------------------------------------------
                                   SCF
               by Justin Turney, Rob Parrish, Andy Simmonett
                          and Daniel G. A. Smith
                              UKS Reference
                        1 Threads,    500 MiB Core
         ---------------------------------------------------------

  ==> Geometry <==

    Molecular point group: d2h
    Full point group: D_inf_h

    Geometry (in Angstrom), charge = 1, multiplicity = 4:

       Center              X                  Y                   Z               Mass       
    ------------   -----------------  -----------------  -----------------  -----------------
         O           -0.000000000000     0.630675542871     0.000000000000    15.994914619570
         O            0.000000000000    -0.630675542871     0.000000000000    15.994914619570

  Running in d2h symmetry.

  Rotational constants: A = ************  B =      1.32487  C =      1.32487 [cm^-1]
  Rotational constants: A = ************  B =  39718.54202  C =  39718.54202 [MHz]
  Nuclear repulsion =   26.850051397824711

  Charge       = 1
  Multiplicity = 4
  Electrons    = 15
  Nalpha       = 9
  Nbeta        = 6

  ==> Algorithm <==

  SCF Algorithm Type is DF.
  DIIS enabled.
  MOM disabled.
  Fractional occupation disabled.
  Guess Type is READ.
  Energy threshold   = 1.00e-08
  Density threshold  = 1.00e-08
  Integral threshold = 1.00e-12

  ==> Primary Basis <==

  Basis Set: CC-PVDZ
    Blend: CC-PVDZ
    Number of shells: 12
    Number of basis functions: 28
    Number of Cartesian functions: 30
    Spherical Harmonics?: true
    Max angular momentum: 2

  ==> DFT Potential <==

   => LibXC <=

    Version 6.2.2
    S. Lehtola, C. Steigemann, M. J.T. Oliveira, and M. A.L. Marques.,  SoftwareX 7, 1–5 (2018) (10.1016/j.softx.2017.11.002)

   => Composite Functional: B3LYP <= 

    B3LYP Hyb-GGA Exchange-Correlation Functional

    P. J. Stephens, F. J. Devlin, C. F. Chabalowski, and M. J. Frisch.,  J. Phys. Chem. 98, 11623 (1994) (10.1021/j100096a001)

    Deriv               =              1
    GGA                 =           TRUE
    Meta                =          FALSE

    Exchange Hybrid     =           TRUE
    MP2 Hybrid          =          FALSE

   => Exchange Functionals <=

    0.0800   Slater exchange
    0.7200         Becke 88

   => Exact (HF) Exchange <=

    0.2000               HF 

   => Correlation Functionals <=

    0.1900   Vosko, Wilk & Nusair (VWN5_RPA)
    0.8100   Lee, Yang & Parr

   => LibXC Density Thresholds  <==

    XC_HYB_GGA_XC_B3LYP:  1.00E-15 

   => Molecular Quadrature <=

    Radial Scheme          =       TREUTLER
    Pruning Scheme         =           NONE
    Nuclear Scheme         =       TREUTLER

    Blocking Scheme        =         OCTREE
    BS radius alpha        =              1
    Pruning alpha          =              1
    Radial Points          =             75
    Spherical Points       =            302
    Total Points           =          41436
    Total Blocks           =            372
    Max Points             =            255
    Max Functions          =             28
    Weights Tolerance      =       1.00E-15

   => Loading Basis Set <=

    Name: (CC-PVDZ AUX)
    Role: JKFIT
    Keyword: DF_BASIS_SCF
    atoms 1-2 entry O          line   221 file /Users/joseantoniorodriguesromero/anaconda3/share/psi4/basis/cc-pvdz-jkfit.gbs 

   => Loading Basis Set <=

    Name: CC-PVDZ
    Role: ORBITAL
    Keyword: BASIS
    atoms 1-2 entry O          line   198 file /Users/joseantoniorodriguesromero/anaconda3/share/psi4/basis/cc-pvdz.gbs 

  Reading orbitals from file /tmp/quartet_OO.default.74532.180.npy, no projection.

  ==> Integral Setup <==

  DFHelper Memory: AOs need 0.001 GiB; user supplied 0.333 GiB. 
  Using in-core AOs.

  ==> MemDFJK: Density-Fitted J/K Matrices <==

    J tasked:                   Yes
    K tasked:                   Yes
    wK tasked:                   No
    OpenMP threads:               1
    Memory [MiB]:               340
    Algorithm:                 Core
    Schwarz Cutoff:           1E-12
    Mask sparsity (%):       0.0000
    Fitting Condition:        1E-10

   => Auxiliary Basis Set <=

  Basis Set: (CC-PVDZ AUX)
    Blend: CC-PVDZ-JKFIT
    Number of shells: 48
    Number of basis functions: 140
    Number of Cartesian functions: 162
    Spherical Harmonics?: true
    Max angular momentum: 3

  Cached 100.0% of DFT collocation blocks in 0.033 [GiB].

  Minimum eigenvalue in the overlap matrix is 3.5181877145E-02.
  Reciprocal condition number of the overlap matrix is 1.3973447732E-02.
    Using symmetric orthogonalization.

  ==> Pre-Iterations <==

  SCF Guess: Orbitals guess was supplied from a previous computation.

   -------------------------------------------------------
    Irrep   Nso     Nmo     Nalpha   Nbeta   Ndocc  Nsocc
   -------------------------------------------------------
     Ag         7       7       3       2       2       1
     B1g        3       3       1       0       0       1
     B2g        1       1       0       0       0       0
     B3g        3       3       1       0       0       1
     Au         1       1       0       0       0       0
     B1u        3       3       1       1       1       0
     B2u        7       7       2       2       2       0
     B3u        3       3       1       1       1       0
   -------------------------------------------------------
    Total      28      28       9       6       6       3
   -------------------------------------------------------

  ==> Iterations <==

                           Total Energy        Delta E     RMS |[F,P]|

   @DF-UKS iter   0:  -149.66611181523632   -1.49666e+02   9.23011e-04 
   @DF-UKS iter   1:  -149.67065553961447   -4.54372e-03   1.75745e-04 DIIS/ADIIS
   @DF-UKS iter   2:  -149.67065669995048   -1.16034e-06   9.37160e-05 DIIS/DAMP=1%
   @DF-UKS iter   3:  -149.67063764193296    1.90580e-05   7.39616e-06 DIIS/DAMP=1%
   @DF-UKS iter   4:  -149.67065981859491   -2.21767e-05   2.30283e-06 DIIS/DAMP=1%
   @DF-UKS iter   5:  -149.67065644640445    3.37219e-06   1.54569e-07 DIIS/DAMP=1%
   @DF-UKS iter   6:  -149.67065710424356   -6.57839e-07   1.58479e-08 DIIS/DAMP=1%
   @DF-UKS iter   7:  -149.67065709407174    1.01718e-08   1.46882e-09 DIIS/DAMP=1%
   @DF-UKS iter   8:  -149.67065709851121   -4.43947e-09   1.81812e-10 DIIS/DAMP=1%
  Energy and wave function converged.


  ==> Post-Iterations <==

   Electrons on quadrature grid:
      Nalpha   =    8.9999997157 ; deviation = -2.843e-07
      Nbeta    =    5.9999999475 ; deviation = -5.247e-08
      Ntotal   =   14.9999996633 ; deviation = -3.367e-07 

   @Spin Contamination Metric:   9.786162736E-03
   @S^2 Expected:                3.750000000E+00
   @S^2 Observed:                3.759786163E+00
   @S   Expected:                1.500000000E+00
   @S   Observed:                1.500000000E+00

    Orbital Energies [Eh]
    ---------------------

    Alpha Occupied:                                                       

       1Ag   -19.826936     1B2u  -19.826885     2Ag    -1.748718  
       2B2u   -1.350543     3Ag    -1.062931     1B1u   -1.002649  
       1B3u   -1.002649     1B3g   -0.791155     1B1g   -0.791155  

    Alpha Virtual:                                                        

       3B2u   -0.348453     4B2u    0.370262     2B3u    0.408946  
       2B1u    0.408946     4Ag     0.502825     2B1g    0.539197  
       2B3g    0.539197     5Ag     0.653951     5B2u    1.234178  
       3B1u    1.583533     3B3u    1.583533     1B2g    1.885680  
       6Ag     1.885681     7Ag     2.126351     1Au     2.126826  
       6B2u    2.126827     3B3g    2.679334     3B1g    2.679334  
       7B2u    3.268727  

    Beta Occupied:                                                        

       1Ag   -19.780568     1B2u  -19.780487     2Ag    -1.654932  
       2B2u   -1.175511     1B1u   -0.875771     1B3u   -0.875771  

    Beta Virtual:                                                         

       3Ag    -0.820429     1B3g   -0.566204     1B1g   -0.566204  
       3B2u   -0.233354     4B2u    0.441955     2B3u    0.472191  
       2B1u    0.472191     4Ag     0.564708     2B1g    0.600393  
       2B3g    0.600393     5Ag     0.706223     5B2u    1.290962  
       3B1u    1.678100     3B3u    1.678100     1B2g    1.978472  
       6Ag     1.978473     1Au     2.228847     6B2u    2.228848  
       7Ag     2.231306     3B3g    2.779361     3B1g    2.779361  
       7B2u    3.368852  

    Final Occupation by Irrep:
             Ag   B1g   B2g   B3g    Au   B1u   B2u   B3u 
    DOCC [     2,    0,    0,    0,    0,    1,    2,    1 ]
    SOCC [     1,    1,    0,    1,    0,    0,    0,    0 ]
    NA   [     3,    1,    0,    1,    0,    1,    2,    1 ]
    NB   [     2,    0,    0,    0,    0,    1,    2,    1 ]

  @DF-UKS Final Energy:  -149.67065709851121

   => Energetics <=

    Nuclear Repulsion Energy =             26.8500513978247106
    One-Electron Energy =                -251.8738236132957695
    Two-Electron Energy =                  88.7431581481116467
    DFT Exchange-Correlation Energy =     -13.3900430311518104
    Empirical Dispersion Energy =           0.0000000000000000
    VV10 Nonlocal Energy =                  0.0000000000000000
    Total Energy =                       -149.6706570985112137

  UHF NO Occupations:
  HONO-2 :    1B3g 1.0000000
  HONO-1 :    3 Ag 1.0000000
  HONO-0 :    1B1g 1.0000000
  LUNO+0 :    2B3u 0.0015922
  LUNO+1 :    2B1u 0.0015922
  LUNO+2 :    3B2u 0.0015230
  LUNO+3 :    4 Ag 0.0001889


Computation Completed


Properties will be evaluated at   0.000000,   0.000000,   0.000000 [a0]

Properties computed using the SCF density matrix


 Multipole Moments:

 ------------------------------------------------------------------------------------
     Multipole            Electronic (a.u.)      Nuclear  (a.u.)        Total (a.u.)
 ------------------------------------------------------------------------------------

 L = 1.  Multiply by 2.5417464519 to convert [e a0] to [Debye]
 Dipole X            :          0.0000000            0.0000000            0.0000000
 Dipole Y            :          0.0000000            0.0000000            0.0000000
 Dipole Z            :          0.0000000            0.0000000            0.0000000
 Magnitude           :                                                    0.0000000

 ------------------------------------------------------------------------------------

*** tstop() called on Joses-MacBook-Pro-2.local at Thu Jul 17 13:59:24 2025
Module time:
	user time   =       1.75 seconds =       0.03 minutes
	system time =       4.73 seconds =       0.08 minutes
	total time  =          0 seconds =       0.00 minutes
Total time:
	user time   =       9.99 seconds =       0.17 minutes
	system time =      23.64 seconds =       0.39 minutes
	total time  =          3 seconds =       0.05 minutes

*** tstart() called on Joses-MacBook-Pro-2.local
*** at Thu Jul 17 13:59:24 2025


         ------------------------------------------------------------
                                   SCF GRAD                          
                          Rob Parrish, Justin Turney,                
                       Andy Simmonett, and Alex Sokolov              
         ------------------------------------------------------------

  ==> Geometry <==

    Molecular point group: d2h
    Full point group: D_inf_h

    Geometry (in Angstrom), charge = 1, multiplicity = 4:

       Center              X                  Y                   Z               Mass       
    ------------   -----------------  -----------------  -----------------  -----------------
         O           -0.000000000000     0.630675542871     0.000000000000    15.994914619570
         O            0.000000000000    -0.630675542871     0.000000000000    15.994914619570

  Nuclear repulsion =   26.850051397824711

  ==> Basis Set <==

  Basis Set: CC-PVDZ
    Blend: CC-PVDZ
    Number of shells: 12
    Number of basis functions: 28
    Number of Cartesian functions: 30
    Spherical Harmonics?: true
    Max angular momentum: 2

  ==> DFJKGrad: Density-Fitted SCF Gradients <==

    Gradient:                    1
    J tasked:                  Yes
    K tasked:                  Yes
    wK tasked:                  No
    OpenMP threads:              1
    Integrals threads:           1
    Memory [MiB]:              375
    Schwarz Cutoff:          1E-12
    Fitting Condition:       1E-10

   => Auxiliary Basis Set <=

  Basis Set: (CC-PVDZ AUX)
    Blend: CC-PVDZ-JKFIT
    Number of shells: 48
    Number of basis functions: 140
    Number of Cartesian functions: 162
    Spherical Harmonics?: true
    Max angular momentum: 3

  ==> DFT Potential <==

   => LibXC <=

    Version 6.2.2
    S. Lehtola, C. Steigemann, M. J.T. Oliveira, and M. A.L. Marques.,  SoftwareX 7, 1–5 (2018) (10.1016/j.softx.2017.11.002)

   => Composite Functional: B3LYP <= 

    B3LYP Hyb-GGA Exchange-Correlation Functional

    P. J. Stephens, F. J. Devlin, C. F. Chabalowski, and M. J. Frisch.,  J. Phys. Chem. 98, 11623 (1994) (10.1021/j100096a001)

    Deriv               =              1
    GGA                 =           TRUE
    Meta                =          FALSE

    Exchange Hybrid     =           TRUE
    MP2 Hybrid          =          FALSE

   => Exchange Functionals <=

    0.0800   Slater exchange
    0.7200         Becke 88

   => Exact (HF) Exchange <=

    0.2000               HF 

   => Correlation Functionals <=

    0.1900   Vosko, Wilk & Nusair (VWN5_RPA)
    0.8100   Lee, Yang & Parr

   => LibXC Density Thresholds  <==

    XC_HYB_GGA_XC_B3LYP:  1.00E-15 

   => Molecular Quadrature <=

    Radial Scheme          =       TREUTLER
    Pruning Scheme         =           NONE
    Nuclear Scheme         =       TREUTLER

    Blocking Scheme        =         OCTREE
    BS radius alpha        =              1
    Pruning alpha          =              1
    Radial Points          =             75
    Spherical Points       =            302
    Total Points           =          41436
    Total Blocks           =            372
    Max Points             =            255
    Max Functions          =             28
    Weights Tolerance      =       1.00E-15


  -Total Gradient:
     Atom            X                  Y                   Z
    ------   -----------------  -----------------  -----------------
       1        0.000000000000    -0.001085238530     0.000000000000
       2       -0.000000000000     0.001085238530     0.000000000000


*** tstop() called on Joses-MacBook-Pro-2.local at Thu Jul 17 13:59:24 2025
Module time:
	user time   =       0.44 seconds =       0.01 minutes
	system time =       1.19 seconds =       0.02 minutes
	total time  =          0 seconds =       0.00 minutes
Total time:
	user time   =      10.44 seconds =       0.17 minutes
	system time =      24.83 seconds =       0.41 minutes
	total time  =          3 seconds =       0.05 minutes

    			-----------------------------------------

    			 OPTKING 3.0: for geometry optimizations 

    			     By R.A. King, Bethel University     

    			        with contributions from          

    			    A.V. Copan, J. Cayton, A. Heide      

    			-----------------------------------------

    
	                            ===> Fragment 1 <== 

	 Z (Atomic Numbers)          Masses                          Geom                  
	       8.000000            15.994915         -0.00000000  1.19180405  0.00000000   
	       8.000000            15.994915          0.00000000 -1.19180405  0.00000000   

	 - Coordinate -           - BOHR/RAD -       - ANG/DEG -
	 R(1,2)           =         2.383608           1.261351


	        --- Internal Coordinate Step in ANG or DEG, aJ/ANG or AJ/DEG ---
	-------------------------------------------------------------------------------
	           Coordinate      Previous         Force          Change          New 
	           ----------      --------        ------          ------        ------
	               R(1,2)       1.26135        0.00894        0.00084       1.26219
	-------------------------------------------------------------------------------

	                                 ==> Convergence Check <==                                  
    
	Measures of convergence in internal coordinates in au.
    
	Criteria marked as inactive (o), active & met (*), and active & unmet ( ).

	----------------------------------------------------------------------------------------------
	   Step    Total Energy     Delta E     Max Force     RMS Force      Max Disp      RMS Disp   
	----------------------------------------------------------------------------------------------
	  Convergence Criteria     1.00e-06 *    3.00e-04 *             o    1.20e-03 *             o
	----------------------------------------------------------------------------------------------
	     4    -149.67065710   -2.11e-05      1.09e-03      1.09e-03 o    1.58e-03      1.58e-03 o  ~
	----------------------------------------------------------------------------------------------

Next Geometry in Ang 
	Fragment 1 (Ang)

	    O  -0.0000000000   0.6310937918   0.0000000000
	    O   0.0000000000  -0.6310937918   0.0000000000


    Structure for next step:
    Molecular point group: d2h
    Full point group: D_inf_h

    Geometry (in Angstrom), charge = 1, multiplicity = 4:

    O           -0.000000000000     0.631093791846     0.000000000000
    O            0.000000000000    -0.631093791846     0.000000000000


Scratch directory: /tmp/
gradient() will perform analytic gradient computation.
   => Libint2 <=

    Primary   basis highest AM E, G, H:  6, 6, 3
    Auxiliary basis highest AM E, G, H:  7, 7, 4
    Onebody   basis highest AM E, G, H:  -, -, -
    Solid Harmonics ordering:            Gaussian

*** tstart() called on Joses-MacBook-Pro-2.local
*** at Thu Jul 17 13:59:24 2025

   => Loading Basis Set <=

    Name: CC-PVDZ
    Role: ORBITAL
    Keyword: BASIS
    atoms 1-2 entry O          line   198 file /Users/joseantoniorodriguesromero/anaconda3/share/psi4/basis/cc-pvdz.gbs 


         ---------------------------------------------------------
                                   SCF
               by Justin Turney, Rob Parrish, Andy Simmonett
                          and Daniel G. A. Smith
                              UKS Reference
                        1 Threads,    500 MiB Core
         ---------------------------------------------------------

  ==> Geometry <==

    Molecular point group: d2h
    Full point group: D_inf_h

    Geometry (in Angstrom), charge = 1, multiplicity = 4:

       Center              X                  Y                   Z               Mass       
    ------------   -----------------  -----------------  -----------------  -----------------
         O           -0.000000000000     0.631093791846     0.000000000000    15.994914619570
         O            0.000000000000    -0.631093791846     0.000000000000    15.994914619570

  Running in d2h symmetry.

  Rotational constants: A = ************  B =      1.32311  C =      1.32311 [cm^-1]
  Rotational constants: A = ************  B =  39665.91360  C =  39665.91360 [MHz]
  Nuclear repulsion =   26.832256885162945

  Charge       = 1
  Multiplicity = 4
  Electrons    = 15
  Nalpha       = 9
  Nbeta        = 6

  ==> Algorithm <==

  SCF Algorithm Type is DF.
  DIIS enabled.
  MOM disabled.
  Fractional occupation disabled.
  Guess Type is READ.
  Energy threshold   = 1.00e-08
  Density threshold  = 1.00e-08
  Integral threshold = 1.00e-12

  ==> Primary Basis <==

  Basis Set: CC-PVDZ
    Blend: CC-PVDZ
    Number of shells: 12
    Number of basis functions: 28
    Number of Cartesian functions: 30
    Spherical Harmonics?: true
    Max angular momentum: 2

  ==> DFT Potential <==

   => LibXC <=

    Version 6.2.2
    S. Lehtola, C. Steigemann, M. J.T. Oliveira, and M. A.L. Marques.,  SoftwareX 7, 1–5 (2018) (10.1016/j.softx.2017.11.002)

   => Composite Functional: B3LYP <= 

    B3LYP Hyb-GGA Exchange-Correlation Functional

    P. J. Stephens, F. J. Devlin, C. F. Chabalowski, and M. J. Frisch.,  J. Phys. Chem. 98, 11623 (1994) (10.1021/j100096a001)

    Deriv               =              1
    GGA                 =           TRUE
    Meta                =          FALSE

    Exchange Hybrid     =           TRUE
    MP2 Hybrid          =          FALSE

   => Exchange Functionals <=

    0.0800   Slater exchange
    0.7200         Becke 88

   => Exact (HF) Exchange <=

    0.2000               HF 

   => Correlation Functionals <=

    0.1900   Vosko, Wilk & Nusair (VWN5_RPA)
    0.8100   Lee, Yang & Parr

   => LibXC Density Thresholds  <==

    XC_HYB_GGA_XC_B3LYP:  1.00E-15 

   => Molecular Quadrature <=

    Radial Scheme          =       TREUTLER
    Pruning Scheme         =           NONE
    Nuclear Scheme         =       TREUTLER

    Blocking Scheme        =         OCTREE
    BS radius alpha        =              1
    Pruning alpha          =              1
    Radial Points          =             75
    Spherical Points       =            302
    Total Points           =          41436
    Total Blocks           =            372
    Max Points             =            255
    Max Functions          =             28
    Weights Tolerance      =       1.00E-15

   => Loading Basis Set <=

    Name: (CC-PVDZ AUX)
    Role: JKFIT
    Keyword: DF_BASIS_SCF
    atoms 1-2 entry O          line   221 file /Users/joseantoniorodriguesromero/anaconda3/share/psi4/basis/cc-pvdz-jkfit.gbs 

   => Loading Basis Set <=

    Name: CC-PVDZ
    Role: ORBITAL
    Keyword: BASIS
    atoms 1-2 entry O          line   198 file /Users/joseantoniorodriguesromero/anaconda3/share/psi4/basis/cc-pvdz.gbs 

  Reading orbitals from file /tmp/quartet_OO.default.74532.180.npy, no projection.

  ==> Integral Setup <==

  DFHelper Memory: AOs need 0.001 GiB; user supplied 0.333 GiB. 
  Using in-core AOs.

  ==> MemDFJK: Density-Fitted J/K Matrices <==

    J tasked:                   Yes
    K tasked:                   Yes
    wK tasked:                   No
    OpenMP threads:               1
    Memory [MiB]:               340
    Algorithm:                 Core
    Schwarz Cutoff:           1E-12
    Mask sparsity (%):       0.0000
    Fitting Condition:        1E-10

   => Auxiliary Basis Set <=

  Basis Set: (CC-PVDZ AUX)
    Blend: CC-PVDZ-JKFIT
    Number of shells: 48
    Number of basis functions: 140
    Number of Cartesian functions: 162
    Spherical Harmonics?: true
    Max angular momentum: 3

  Cached 100.0% of DFT collocation blocks in 0.033 [GiB].

  Minimum eigenvalue in the overlap matrix is 3.5262059207E-02.
  Reciprocal condition number of the overlap matrix is 1.4008959262E-02.
    Using symmetric orthogonalization.

  ==> Pre-Iterations <==

  SCF Guess: Orbitals guess was supplied from a previous computation.

   -------------------------------------------------------
    Irrep   Nso     Nmo     Nalpha   Nbeta   Ndocc  Nsocc
   -------------------------------------------------------
     Ag         7       7       3       2       2       1
     B1g        3       3       1       0       0       1
     B2g        1       1       0       0       0       0
     B3g        3       3       1       0       0       1
     Au         1       1       0       0       0       0
     B1u        3       3       1       1       1       0
     B2u        7       7       2       2       2       0
     B3u        3       3       1       1       1       0
   -------------------------------------------------------
    Total      28      28       9       6       6       3
   -------------------------------------------------------

  ==> Iterations <==

                           Total Energy        Delta E     RMS |[F,P]|

   @DF-UKS iter   0:  -149.66964481475915   -1.49670e+02   2.05600e-04 
   @DF-UKS iter   1:  -149.67065806451956   -1.01325e-03   3.91435e-05 DIIS
   @DF-UKS iter   2:  -149.67065812214446   -5.76249e-08   2.08917e-05 DIIS/DAMP=1%
   @DF-UKS iter   3:  -149.67065380968234    4.31246e-06   1.64759e-06 DIIS/DAMP=1%
   @DF-UKS iter   4:  -149.67065874792820   -4.93825e-06   5.16465e-07 DIIS/DAMP=1%
   @DF-UKS iter   5:  -149.67065799574277    7.52185e-07   3.48046e-08 DIIS/DAMP=1%
   @DF-UKS iter   6:  -149.67065814325966   -1.47517e-07   3.54486e-09 DIIS/DAMP=1%
   @DF-UKS iter   7:  -149.67065814101787    2.24179e-09   3.28684e-10 DIIS/DAMP=1%
  Energy and wave function converged.


  ==> Post-Iterations <==

   Electrons on quadrature grid:
      Nalpha   =    8.9999997116 ; deviation = -2.884e-07
      Nbeta    =    5.9999999442 ; deviation = -5.578e-08
      Ntotal   =   14.9999996558 ; deviation = -3.442e-07 

   @Spin Contamination Metric:   9.797267123E-03
   @S^2 Expected:                3.750000000E+00
   @S^2 Observed:                3.759797267E+00
   @S   Expected:                1.500000000E+00
   @S   Observed:                1.500000000E+00

    Orbital Energies [Eh]
    ---------------------

    Alpha Occupied:                                                       

       1Ag   -19.826953     1B2u  -19.826902     2Ag    -1.748082  
       2B2u   -1.350713     3Ag    -1.062751     1B3u   -1.002349  
       1B1u   -1.002349     1B1g   -0.791330     1B3g   -0.791330  

    Alpha Virtual:                                                        

       3B2u   -0.349491     4B2u    0.370344     2B3u    0.408936  
       2B1u    0.408936     4Ag     0.503073     2B3g    0.539223  
       2B1g    0.539223     5Ag     0.654288     5B2u    1.233719  
       3B3u    1.583890     3B1u    1.583890     1B2g    1.886148  
       6Ag     1.886149     7Ag     2.124289     1Au     2.126516  
       6B2u    2.126517     3B1g    2.677984     3B3g    2.677984  
       7B2u    3.268688  

    Beta Occupied:                                                        

       1Ag   -19.780589     1B2u  -19.780509     2Ag    -1.654246  
       2B2u   -1.175751     1B3u   -0.875454     1B1u   -0.875454  

    Beta Virtual:                                                         

       3Ag    -0.820294     1B1g   -0.566420     1B3g   -0.566420  
       3B2u   -0.234306     4B2u    0.442008     2B3u    0.472202  
       2B1u    0.472202     4Ag     0.565049     2B3g    0.600406  
       2B1g    0.600406     5Ag     0.706476     5B2u    1.290491  
       3B3u    1.678456     3B1u    1.678456     1B2g    1.978948  
       6Ag     1.978948     1Au     2.228516     6B2u    2.228517  
       7Ag     2.229260     3B1g    2.777999     3B3g    2.777999  
       7B2u    3.368802  

    Final Occupation by Irrep:
             Ag   B1g   B2g   B3g    Au   B1u   B2u   B3u 
    DOCC [     2,    0,    0,    0,    0,    1,    2,    1 ]
    SOCC [     1,    1,    0,    1,    0,    0,    0,    0 ]
    NA   [     3,    1,    0,    1,    0,    1,    2,    1 ]
    NB   [     2,    0,    0,    0,    0,    1,    2,    1 ]

  @DF-UKS Final Energy:  -149.67065814101787

   => Energetics <=

    Nuclear Repulsion Energy =             26.8322568851629448
    One-Electron Energy =                -251.8404479937919120
    Two-Electron Energy =                  88.7270989265535945
    DFT Exchange-Correlation Energy =     -13.3895659589424714
    Empirical Dispersion Energy =           0.0000000000000000
    VV10 Nonlocal Energy =                  0.0000000000000000
    Total Energy =                       -149.6706581410178671

  UHF NO Occupations:
  HONO-2 :    1B3g 1.0000000
  HONO-1 :    1B1g 1.0000000
  HONO-0 :    3 Ag 1.0000000
  LUNO+0 :    2B3u 0.0015935
  LUNO+1 :    2B1u 0.0015935
  LUNO+2 :    3B2u 0.0015259
  LUNO+3 :    4 Ag 0.0001891


Computation Completed


Properties will be evaluated at   0.000000,   0.000000,   0.000000 [a0]

Properties computed using the SCF density matrix


 Multipole Moments:

 ------------------------------------------------------------------------------------
     Multipole            Electronic (a.u.)      Nuclear  (a.u.)        Total (a.u.)
 ------------------------------------------------------------------------------------

 L = 1.  Multiply by 2.5417464519 to convert [e a0] to [Debye]
 Dipole X            :          0.0000000            0.0000000            0.0000000
 Dipole Y            :          0.0000000            0.0000000            0.0000000
 Dipole Z            :          0.0000000            0.0000000            0.0000000
 Magnitude           :                                                    0.0000000

 ------------------------------------------------------------------------------------

*** tstop() called on Joses-MacBook-Pro-2.local at Thu Jul 17 13:59:25 2025
Module time:
	user time   =       1.48 seconds =       0.02 minutes
	system time =       4.70 seconds =       0.08 minutes
	total time  =          1 seconds =       0.02 minutes
Total time:
	user time   =      11.98 seconds =       0.20 minutes
	system time =      29.85 seconds =       0.50 minutes
	total time  =          4 seconds =       0.07 minutes

*** tstart() called on Joses-MacBook-Pro-2.local
*** at Thu Jul 17 13:59:25 2025


         ------------------------------------------------------------
                                   SCF GRAD                          
                          Rob Parrish, Justin Turney,                
                       Andy Simmonett, and Alex Sokolov              
         ------------------------------------------------------------

  ==> Geometry <==

    Molecular point group: d2h
    Full point group: D_inf_h

    Geometry (in Angstrom), charge = 1, multiplicity = 4:

       Center              X                  Y                   Z               Mass       
    ------------   -----------------  -----------------  -----------------  -----------------
         O           -0.000000000000     0.631093791846     0.000000000000    15.994914619570
         O            0.000000000000    -0.631093791846     0.000000000000    15.994914619570

  Nuclear repulsion =   26.832256885162945

  ==> Basis Set <==

  Basis Set: CC-PVDZ
    Blend: CC-PVDZ
    Number of shells: 12
    Number of basis functions: 28
    Number of Cartesian functions: 30
    Spherical Harmonics?: true
    Max angular momentum: 2

  ==> DFJKGrad: Density-Fitted SCF Gradients <==

    Gradient:                    1
    J tasked:                  Yes
    K tasked:                  Yes
    wK tasked:                  No
    OpenMP threads:              1
    Integrals threads:           1
    Memory [MiB]:              375
    Schwarz Cutoff:          1E-12
    Fitting Condition:       1E-10

   => Auxiliary Basis Set <=

  Basis Set: (CC-PVDZ AUX)
    Blend: CC-PVDZ-JKFIT
    Number of shells: 48
    Number of basis functions: 140
    Number of Cartesian functions: 162
    Spherical Harmonics?: true
    Max angular momentum: 3

  ==> DFT Potential <==

   => LibXC <=

    Version 6.2.2
    S. Lehtola, C. Steigemann, M. J.T. Oliveira, and M. A.L. Marques.,  SoftwareX 7, 1–5 (2018) (10.1016/j.softx.2017.11.002)

   => Composite Functional: B3LYP <= 

    B3LYP Hyb-GGA Exchange-Correlation Functional

    P. J. Stephens, F. J. Devlin, C. F. Chabalowski, and M. J. Frisch.,  J. Phys. Chem. 98, 11623 (1994) (10.1021/j100096a001)

    Deriv               =              1
    GGA                 =           TRUE
    Meta                =          FALSE

    Exchange Hybrid     =           TRUE
    MP2 Hybrid          =          FALSE

   => Exchange Functionals <=

    0.0800   Slater exchange
    0.7200         Becke 88

   => Exact (HF) Exchange <=

    0.2000               HF 

   => Correlation Functionals <=

    0.1900   Vosko, Wilk & Nusair (VWN5_RPA)
    0.8100   Lee, Yang & Parr

   => LibXC Density Thresholds  <==

    XC_HYB_GGA_XC_B3LYP:  1.00E-15 

   => Molecular Quadrature <=

    Radial Scheme          =       TREUTLER
    Pruning Scheme         =           NONE
    Nuclear Scheme         =       TREUTLER

    Blocking Scheme        =         OCTREE
    BS radius alpha        =              1
    Pruning alpha          =              1
    Radial Points          =             75
    Spherical Points       =            302
    Total Points           =          41436
    Total Blocks           =            372
    Max Points             =            255
    Max Functions          =             28
    Weights Tolerance      =       1.00E-15


  -Total Gradient:
     Atom            X                  Y                   Z
    ------   -----------------  -----------------  -----------------
       1        0.000000000000    -0.000243750204     0.000000000000
       2       -0.000000000000     0.000243750204    -0.000000000000


*** tstop() called on Joses-MacBook-Pro-2.local at Thu Jul 17 13:59:25 2025
Module time:
	user time   =       0.35 seconds =       0.01 minutes
	system time =       1.06 seconds =       0.02 minutes
	total time  =          0 seconds =       0.00 minutes
Total time:
	user time   =      12.33 seconds =       0.21 minutes
	system time =      30.91 seconds =       0.52 minutes
	total time  =          4 seconds =       0.07 minutes

    			-----------------------------------------

    			 OPTKING 3.0: for geometry optimizations 

    			     By R.A. King, Bethel University     

    			        with contributions from          

    			    A.V. Copan, J. Cayton, A. Heide      

    			-----------------------------------------

    
	                            ===> Fragment 1 <== 

	 Z (Atomic Numbers)          Masses                          Geom                  
	       8.000000            15.994915         -0.00000000  1.19259443  0.00000000   
	       8.000000            15.994915          0.00000000 -1.19259443  0.00000000   

	 - Coordinate -           - BOHR/RAD -       - ANG/DEG -
	 R(1,2)           =         2.385189           1.262188


	        --- Internal Coordinate Step in ANG or DEG, aJ/ANG or AJ/DEG ---
	-------------------------------------------------------------------------------
	           Coordinate      Previous         Force          Change          New 
	           ----------      --------        ------          ------        ------
	               R(1,2)       1.26219        0.00201        0.00019       1.26238
	-------------------------------------------------------------------------------

	                                 ==> Convergence Check <==                                  
    
	Measures of convergence in internal coordinates in au.
    
	Criteria marked as inactive (o), active & met (*), and active & unmet ( ).

	----------------------------------------------------------------------------------------------
	   Step    Total Energy     Delta E     Max Force     RMS Force      Max Disp      RMS Disp   
	----------------------------------------------------------------------------------------------
	  Convergence Criteria     1.00e-06 *    3.00e-04 *             o    1.20e-03 *             o
	----------------------------------------------------------------------------------------------
	     5    -149.67065814   -1.04e-06      2.44e-04 *    2.44e-04 o    3.56e-04 *    3.56e-04 o  ~
	----------------------------------------------------------------------------------------------

Next Geometry in Ang 
	Fragment 1 (Ang)

	    O  -0.0000000000   0.6311880176   0.0000000000
	    O   0.0000000000  -0.6311880176   0.0000000000


    Final optimized geometry and variables:
    Molecular point group: d2h
    Full point group: D_inf_h

    Geometry (in Angstrom), charge = 1, multiplicity = 4:

    O           -0.000000000000     0.631093791846     0.000000000000
    O            0.000000000000    -0.631093791846     0.000000000000


    Psi4 stopped on: Thursday, 17 July 2025 01:59PM
    Psi4 wall time for execution: 0:00:05.02

*** Psi4 exiting successfully. Buy a developer a beer!
