
    -----------------------------------------------------------------------
          Psi4: An Open-Source Ab Initio Electronic Structure Package
                               Psi4 1.9.1 release

                         Git: Rev {} zzzzzzz 


    D. G. A. Smith, L. A. Burns, A. C. Simmonett, R. M. Parrish,
    M. C. Schieber, R. Galvelis, P. Kraus, H. Kruse, R. Di Remigio,
    A. Alenaizan, A. M. James, S. Lehtola, J. P. Misiewicz, M. Scheurer,
    R. A. Shaw, J. B. Schriber, Y. Xie, Z. L. Glick, D. A. Sirianni,
    J. S. O'Brien, J. M. Waldrop, A. Kumar, E. G. Hohenstein,
    B. P. Pritchard, B. R. Brooks, H. F. Schaefer III, A. Yu. Sokolov,
    K. Patkowski, A. E. DePrince III, U. Bozkaya, R. A. King,
    F. A. Evangelista, J. M. Turney, T. D. Crawford, C. D. Sherrill,
    J. Chem. Phys. 152(18) 184108 (2020). https://doi.org/10.1063/5.0006002

                            Additional Code Authors
    E. T. Seidl, C. L. Janssen, E. F. Valeev, M. L. Leininger,
    J. F. Gonthier, R. M. Richard, H. R. McAlexander, M. Saitow, X. Wang,
    P. Verma, M. H. Lechner, A. Jiang, S. Behnle, A. G. Heide,
    M. F. Herbst, and D. L. Poole

             Previous Authors, Complete List of Code Contributors,
                       and Citations for Specific Modules
    https://github.com/psi4/psi4/blob/master/codemeta.json
    https://github.com/psi4/psi4/graphs/contributors
    http://psicode.org/psi4manual/master/introduction.html#citing-psifour

    -----------------------------------------------------------------------


    Psi4 started on: Thursday, 17 July 2025 01:35PM

    Process ID: 74263
    Host:       Joses-MacBook-Pro-2.local
    PSIDATADIR: /Users/joseantoniorodriguesromero/anaconda3/share/psi4
    Memory:     500.0 MiB
    Threads:    1
    
  ==> Input File <==

--------------------------------------------------------------------------
molecule { 
1 4
B   0.00000        0.60000        0.00000
Al   0.00000       -0.60000        0.00000
}

set { 
basis              cc-pvdz
reference          uks
maxiter            500
geom_maxiter       500
DAMPING_PERCENTAGE 1
guess              SAP
}

optimize('b3lyp')
--------------------------------------------------------------------------

Scratch directory: /tmp/
gradient() will perform analytic gradient computation.
   => Libint2 <=

    Primary   basis highest AM E, G, H:  6, 6, 3
    Auxiliary basis highest AM E, G, H:  7, 7, 4
    Onebody   basis highest AM E, G, H:  -, -, -
    Solid Harmonics ordering:            Gaussian

*** tstart() called on Joses-MacBook-Pro-2.local
*** at Thu Jul 17 13:35:24 2025

   => Loading Basis Set <=

    Name: CC-PVDZ
    Role: ORBITAL
    Keyword: BASIS
    atoms 1 entry B          line   108 file /Users/joseantoniorodriguesromero/anaconda3/share/psi4/basis/cc-pvdz.gbs 
    atoms 2 entry AL         line   418 file /Users/joseantoniorodriguesromero/anaconda3/share/psi4/basis/cc-pvdz.gbs 


         ---------------------------------------------------------
                                   SCF
               by Justin Turney, Rob Parrish, Andy Simmonett
                          and Daniel G. A. Smith
                              UKS Reference
                        1 Threads,    500 MiB Core
         ---------------------------------------------------------

  ==> Geometry <==

    Molecular point group: c2v
    Full point group: C_inf_v

    Geometry (in Angstrom), charge = 1, multiplicity = 4:

       Center              X                  Y                   Z               Mass       
    ------------   -----------------  -----------------  -----------------  -----------------
         B            0.000000000000     0.000000000000     0.852253935968    11.009305360000
         AL           0.000000000000     0.000000000000    -0.347746064032    26.981538530000

  Running in c2v symmetry.

  Rotational constants: A = ************  B =      1.49722  C =      1.49722 [cm^-1]
  Rotational constants: A = ************  B =  44885.59846  C =  44885.59846 [MHz]
  Nuclear repulsion =   28.663765577958337

  Charge       = 1
  Multiplicity = 4
  Electrons    = 17
  Nalpha       = 10
  Nbeta        = 7

  ==> Algorithm <==

  SCF Algorithm Type is DF.
  DIIS enabled.
  MOM disabled.
  Fractional occupation disabled.
  Guess Type is SAP.
  Energy threshold   = 1.00e-08
  Density threshold  = 1.00e-08
  Integral threshold = 1.00e-12

  ==> Primary Basis <==

  Basis Set: CC-PVDZ
    Blend: CC-PVDZ
    Number of shells: 14
    Number of basis functions: 32
    Number of Cartesian functions: 34
    Spherical Harmonics?: true
    Max angular momentum: 2

  ==> DFT Potential <==

   => LibXC <=

    Version 6.2.2
    S. Lehtola, C. Steigemann, M. J.T. Oliveira, and M. A.L. Marques.,  SoftwareX 7, 1–5 (2018) (10.1016/j.softx.2017.11.002)

   => Composite Functional: B3LYP <= 

    B3LYP Hyb-GGA Exchange-Correlation Functional

    P. J. Stephens, F. J. Devlin, C. F. Chabalowski, and M. J. Frisch.,  J. Phys. Chem. 98, 11623 (1994) (10.1021/j100096a001)

    Deriv               =              1
    GGA                 =           TRUE
    Meta                =          FALSE

    Exchange Hybrid     =           TRUE
    MP2 Hybrid          =          FALSE

   => Exchange Functionals <=

    0.0800   Slater exchange
    0.7200         Becke 88

   => Exact (HF) Exchange <=

    0.2000               HF 

   => Correlation Functionals <=

    0.1900   Vosko, Wilk & Nusair (VWN5_RPA)
    0.8100   Lee, Yang & Parr

   => LibXC Density Thresholds  <==

    XC_HYB_GGA_XC_B3LYP:  1.00E-15 

   => Molecular Quadrature <=

    Radial Scheme          =       TREUTLER
    Pruning Scheme         =           NONE
    Nuclear Scheme         =       TREUTLER

    Blocking Scheme        =         OCTREE
    BS radius alpha        =              1
    Pruning alpha          =              1
    Radial Points          =             75
    Spherical Points       =            302
    Total Points           =          42894
    Total Blocks           =            404
    Max Points             =            252
    Max Functions          =             32
    Weights Tolerance      =       1.00E-15

   => Loading Basis Set <=

    Name: (CC-PVDZ AUX)
    Role: JKFIT
    Keyword: DF_BASIS_SCF
    atoms 1 entry B          line    71 file /Users/joseantoniorodriguesromero/anaconda3/share/psi4/basis/cc-pvdz-jkfit.gbs 
    atoms 2 entry AL         line   371 file /Users/joseantoniorodriguesromero/anaconda3/share/psi4/basis/cc-pvdz-jkfit.gbs 

  ==> Integral Setup <==

  DFHelper Memory: AOs need 0.002 GiB; user supplied 0.326 GiB. 
  Using in-core AOs.

  ==> MemDFJK: Density-Fitted J/K Matrices <==

    J tasked:                   Yes
    K tasked:                   Yes
    wK tasked:                   No
    OpenMP threads:               1
    Memory [MiB]:               334
    Algorithm:                 Core
    Schwarz Cutoff:           1E-12
    Mask sparsity (%):       0.0000
    Fitting Condition:        1E-10

   => Auxiliary Basis Set <=

  Basis Set: (CC-PVDZ AUX)
    Blend: CC-PVDZ-JKFIT
    Number of shells: 60
    Number of basis functions: 182
    Number of Cartesian functions: 211
    Spherical Harmonics?: true
    Max angular momentum: 3

  Cached 100.0% of DFT collocation blocks in 0.040 [GiB].

  Minimum eigenvalue in the overlap matrix is 5.4830147169E-03.
  Reciprocal condition number of the overlap matrix is 1.6664380190E-03.
    Using symmetric orthogonalization.

  ==> Pre-Iterations <==

  SCF Guess: Superposition of Atomic Potentials (doi:10.1021/acs.jctc.8b01089).

  ==> SAP guess <==

   => Molecular Quadrature <=

    Radial Scheme          =       TREUTLER
    Pruning Scheme         =           NONE
    Nuclear Scheme         =       TREUTLER

    Blocking Scheme        =         OCTREE
    BS radius alpha        =              1
    Pruning alpha          =              1
    Radial Points          =             75
    Spherical Points       =            302
    Total Points           =          42894
    Total Blocks           =            404
    Max Points             =            252
    Max Functions          =             32
    Weights Tolerance      =       1.00E-15

   -------------------------------------------------------
    Irrep   Nso     Nmo     Nalpha   Nbeta   Ndocc  Nsocc
   -------------------------------------------------------
     A1        16      16       6       5       5       1
     A2         2       2       0       0       0       0
     B1         7       7       2       1       1       1
     B2         7       7       2       1       1       1
   -------------------------------------------------------
    Total      32      32      10       7       7       3
   -------------------------------------------------------

  ==> Iterations <==

                           Total Energy        Delta E     RMS |[F,P]|

   @DF-UKS iter   1:  -266.03705764342129   -2.66037e+02   2.49652e-02 ADIIS/DIIS
   @DF-UKS iter   2:  -265.74553693255024    2.91521e-01   3.57441e-02 ADIIS/DIIS/DAMP=1%
   @DF-UKS iter   3:  -266.27468982291526   -5.29153e-01   2.57012e-03 ADIIS/DIIS/DAMP=1%
   @DF-UKS iter   4:  -266.28743843611591   -1.27486e-02   2.21014e-03 ADIIS/DIIS/DAMP=1%
   @DF-UKS iter   5:  -266.29161007818169   -4.17164e-03   7.79411e-04 ADIIS/DIIS/DAMP=1%
   @DF-UKS iter   6:  -266.29135646698421    2.53611e-04   1.07364e-04 ADIIS/DIIS/DAMP=1%
   @DF-UKS iter   7:  -266.29157577446961   -2.19307e-04   1.54804e-05 DIIS/DAMP=1%
   @DF-UKS iter   8:  -266.29157964297968   -3.86851e-06   2.90821e-06 DIIS/DAMP=1%
   @DF-UKS iter   9:  -266.29157796496332    1.67802e-06   8.84173e-07 DIIS/DAMP=1%
   @DF-UKS iter  10:  -266.29157750687074    4.58093e-07   9.40884e-08 DIIS/DAMP=1%
   @DF-UKS iter  11:  -266.29157765914738   -1.52277e-07   1.59784e-08 DIIS/DAMP=1%
   @DF-UKS iter  12:  -266.29157768449363   -2.53463e-08   6.97662e-10 DIIS/DAMP=1%
   @DF-UKS iter  13:  -266.29157768398585    5.07782e-10   1.39271e-10 DIIS/DAMP=1%
  Energy and wave function converged.


  ==> Post-Iterations <==

   Electrons on quadrature grid:
      Nalpha   =   10.0000007106 ; deviation = 7.106e-07
      Nbeta    =    7.0000007225 ; deviation = 7.225e-07
      Ntotal   =   17.0000014331 ; deviation = 1.433e-06 

   @Spin Contamination Metric:   2.879968856E-03
   @S^2 Expected:                3.750000000E+00
   @S^2 Observed:                3.752879969E+00
   @S   Expected:                1.500000000E+00
   @S   Observed:                1.500000000E+00

    Orbital Energies [Eh]
    ---------------------

    Alpha Occupied:                                                       

       1A1   -56.402049     2A1    -7.160339     3A1    -4.526383  
       4A1    -3.100921     1B1    -3.062757     1B2    -3.062757  
       5A1    -0.796983     2B1    -0.568677     2B2    -0.568677  
       6A1    -0.514748  

    Alpha Virtual:                                                        

       7A1    -0.346729     3B2    -0.230209     3B1    -0.230209  
       8A1    -0.123850     9A1    -0.038340     4B2    -0.019837  
       4B1    -0.019837     1A2    -0.015226    10A1    -0.015226  
      11A1     0.029893     5B1     0.080974     5B2     0.080974  
      12A1     0.134439     6B1     0.240598     6B2     0.240598  
      13A1     0.395361    14A1     0.495469     2A2     0.495469  
       7B2     0.734912     7B1     0.734912    15A1     0.913036  
      16A1     1.443222  

    Beta Occupied:                                                        

       1A1   -56.396644     2A1    -7.133014     3A1    -4.519257  
       4A1    -3.094460     1B1    -3.052832     1B2    -3.052832  
       5A1    -0.696206  

    Beta Virtual:                                                         

       2B1    -0.406871     2B2    -0.406871     6A1    -0.387378  
       7A1    -0.277190     3B2    -0.177528     3B1    -0.177528  
       8A1    -0.103376     9A1    -0.018402     4B2     0.000555  
       4B1     0.000555    10A1     0.028679     1A2     0.028679  
      11A1     0.057432     5B1     0.109048     5B2     0.109048  
      12A1     0.170467     6B1     0.308742     6B2     0.308742  
      13A1     0.442802     2A2     0.577486    14A1     0.577486  
       7B2     0.793750     7B1     0.793750    15A1     0.964345  
      16A1     1.483880  

    Final Occupation by Irrep:
             A1    A2    B1    B2 
    DOCC [     5,    0,    1,    1 ]
    SOCC [     1,    0,    1,    1 ]
    NA   [     6,    0,    2,    2 ]
    NB   [     5,    0,    1,    1 ]

  @DF-UKS Final Energy:  -266.29157768398585

   => Energetics <=

    Nuclear Repulsion Energy =             28.6637655779583369
    One-Electron Energy =                -419.1458836932019949
    Two-Electron Energy =                 142.4626733953004987
    DFT Exchange-Correlation Energy =     -18.2721329640426475
    Empirical Dispersion Energy =           0.0000000000000000
    VV10 Nonlocal Energy =                  0.0000000000000000
    Total Energy =                       -266.2915776839858495

  UHF NO Occupations:
  HONO-2 :    2 B1 1.0000000
  HONO-1 :    2 B2 1.0000000
  HONO-0 :    6 A1 1.0000000
  LUNO+0 :    7 A1 0.0014396
  LUNO+1 :    8 A1 0.0000011
  LUNO+2 :    9 A1 0.0000002
  LUNO+3 :    3 B2 0.0000001


Computation Completed


Properties will be evaluated at   0.000000,   0.000000,   0.000000 [a0]

Properties computed using the SCF density matrix


 Multipole Moments:

 ------------------------------------------------------------------------------------
     Multipole            Electronic (a.u.)      Nuclear  (a.u.)        Total (a.u.)
 ------------------------------------------------------------------------------------

 L = 1.  Multiply by 2.5417464519 to convert [e a0] to [Debye]
 Dipole X            :          0.0000000            0.0000000            0.0000000
 Dipole Y            :          0.0000000            0.0000000            0.0000000
 Dipole Z            :         -0.0651236           -0.4902500           -0.5553736
 Magnitude           :                                                    0.5553736

 ------------------------------------------------------------------------------------

*** tstop() called on Joses-MacBook-Pro-2.local at Thu Jul 17 13:35:25 2025
Module time:
	user time   =       6.18 seconds =       0.10 minutes
	system time =       4.54 seconds =       0.08 minutes
	total time  =          1 seconds =       0.02 minutes
Total time:
	user time   =       6.18 seconds =       0.10 minutes
	system time =       4.54 seconds =       0.08 minutes
	total time  =          1 seconds =       0.02 minutes

*** tstart() called on Joses-MacBook-Pro-2.local
*** at Thu Jul 17 13:35:25 2025


         ------------------------------------------------------------
                                   SCF GRAD                          
                          Rob Parrish, Justin Turney,                
                       Andy Simmonett, and Alex Sokolov              
         ------------------------------------------------------------

  ==> Geometry <==

    Molecular point group: c2v
    Full point group: C_inf_v

    Geometry (in Angstrom), charge = 1, multiplicity = 4:

       Center              X                  Y                   Z               Mass       
    ------------   -----------------  -----------------  -----------------  -----------------
         B            0.000000000000     0.000000000000     0.852253935968    11.009305360000
         AL           0.000000000000     0.000000000000    -0.347746064032    26.981538530000

  Nuclear repulsion =   28.663765577958337

  ==> Basis Set <==

  Basis Set: CC-PVDZ
    Blend: CC-PVDZ
    Number of shells: 14
    Number of basis functions: 32
    Number of Cartesian functions: 34
    Spherical Harmonics?: true
    Max angular momentum: 2

  ==> DFJKGrad: Density-Fitted SCF Gradients <==

    Gradient:                    1
    J tasked:                  Yes
    K tasked:                  Yes
    wK tasked:                  No
    OpenMP threads:              1
    Integrals threads:           1
    Memory [MiB]:              375
    Schwarz Cutoff:          1E-12
    Fitting Condition:       1E-10

   => Auxiliary Basis Set <=

  Basis Set: (CC-PVDZ AUX)
    Blend: CC-PVDZ-JKFIT
    Number of shells: 60
    Number of basis functions: 182
    Number of Cartesian functions: 211
    Spherical Harmonics?: true
    Max angular momentum: 3

  ==> DFT Potential <==

   => LibXC <=

    Version 6.2.2
    S. Lehtola, C. Steigemann, M. J.T. Oliveira, and M. A.L. Marques.,  SoftwareX 7, 1–5 (2018) (10.1016/j.softx.2017.11.002)

   => Composite Functional: B3LYP <= 

    B3LYP Hyb-GGA Exchange-Correlation Functional

    P. J. Stephens, F. J. Devlin, C. F. Chabalowski, and M. J. Frisch.,  J. Phys. Chem. 98, 11623 (1994) (10.1021/j100096a001)

    Deriv               =              1
    GGA                 =           TRUE
    Meta                =          FALSE

    Exchange Hybrid     =           TRUE
    MP2 Hybrid          =          FALSE

   => Exchange Functionals <=

    0.0800   Slater exchange
    0.7200         Becke 88

   => Exact (HF) Exchange <=

    0.2000               HF 

   => Correlation Functionals <=

    0.1900   Vosko, Wilk & Nusair (VWN5_RPA)
    0.8100   Lee, Yang & Parr

   => LibXC Density Thresholds  <==

    XC_HYB_GGA_XC_B3LYP:  1.00E-15 

   => Molecular Quadrature <=

    Radial Scheme          =       TREUTLER
    Pruning Scheme         =           NONE
    Nuclear Scheme         =       TREUTLER

    Blocking Scheme        =         OCTREE
    BS radius alpha        =              1
    Pruning alpha          =              1
    Radial Points          =             75
    Spherical Points       =            302
    Total Points           =          42894
    Total Blocks           =            404
    Max Points             =            252
    Max Functions          =             32
    Weights Tolerance      =       1.00E-15


  -Total Gradient:
     Atom            X                  Y                   Z
    ------   -----------------  -----------------  -----------------
       1        0.000000000000     0.000000000000    -1.056834469897
       2        0.000000000000    -0.000000000000     1.056840944620


*** tstop() called on Joses-MacBook-Pro-2.local at Thu Jul 17 13:35:25 2025
Module time:
	user time   =       1.51 seconds =       0.03 minutes
	system time =       1.34 seconds =       0.02 minutes
	total time  =          0 seconds =       0.00 minutes
Total time:
	user time   =       7.70 seconds =       0.13 minutes
	system time =       5.89 seconds =       0.10 minutes
	total time  =          1 seconds =       0.02 minutes

    			-----------------------------------------

    			 OPTKING 3.0: for geometry optimizations 

    			     By R.A. King, Bethel University     

    			        with contributions from          

    			    A.V. Copan, J. Cayton, A. Heide      

    			-----------------------------------------

    
	                            ===> Fragment 1 <== 

	 Z (Atomic Numbers)          Masses                          Geom                  
	       5.000000            11.009305          0.00000000  0.00000000  1.61052653   
	      13.000000            26.981539          0.00000000  0.00000000 -0.65714482   

	 - Coordinate -           - BOHR/RAD -       - ANG/DEG -
	 R(1,2)           =         2.267671           1.200000


	        --- Internal Coordinate Step in ANG or DEG, aJ/ANG or AJ/DEG ---
	-------------------------------------------------------------------------------
	           Coordinate      Previous         Force          Change          New 
	           ----------      --------        ------          ------        ------
	               R(1,2)       1.20000        8.70699        0.12613       1.32613
	-------------------------------------------------------------------------------

	                                 ==> Convergence Check <==                                  
    
	Measures of convergence in internal coordinates in au.
    
	Criteria marked as inactive (o), active & met (*), and active & unmet ( ).

	----------------------------------------------------------------------------------------------
	   Step    Total Energy     Delta E     Max Force     RMS Force      Max Disp      RMS Disp   
	----------------------------------------------------------------------------------------------
	  Convergence Criteria     1.00e-06 *    3.00e-04 *             o    1.20e-03 *             o
	----------------------------------------------------------------------------------------------
	     1    -266.29157768   -2.66e+02      1.06e+00      1.06e+00 o    2.38e-01      2.38e-01 o  ~
	----------------------------------------------------------------------------------------------

Next Geometry in Ang 
	Fragment 1 (Ang)

	    B   0.0000000000   0.0000000000   0.9153167221
	   Al   0.0000000000   0.0000000000  -0.4108088502


    Structure for next step:
    Molecular point group: c2v
    Full point group: C_inf_v

    Geometry (in Angstrom), charge = 1, multiplicity = 4:

    B            0.000000000000     0.000000000000     0.941829782107
    AL           0.000000000000     0.000000000000    -0.384295790132


Scratch directory: /tmp/
gradient() will perform analytic gradient computation.
   => Libint2 <=

    Primary   basis highest AM E, G, H:  6, 6, 3
    Auxiliary basis highest AM E, G, H:  7, 7, 4
    Onebody   basis highest AM E, G, H:  -, -, -
    Solid Harmonics ordering:            Gaussian

*** tstart() called on Joses-MacBook-Pro-2.local
*** at Thu Jul 17 13:35:25 2025

   => Loading Basis Set <=

    Name: CC-PVDZ
    Role: ORBITAL
    Keyword: BASIS
    atoms 1 entry B          line   108 file /Users/joseantoniorodriguesromero/anaconda3/share/psi4/basis/cc-pvdz.gbs 
    atoms 2 entry AL         line   418 file /Users/joseantoniorodriguesromero/anaconda3/share/psi4/basis/cc-pvdz.gbs 


         ---------------------------------------------------------
                                   SCF
               by Justin Turney, Rob Parrish, Andy Simmonett
                          and Daniel G. A. Smith
                              UKS Reference
                        1 Threads,    500 MiB Core
         ---------------------------------------------------------

  ==> Geometry <==

    Molecular point group: c2v
    Full point group: C_inf_v

    Geometry (in Angstrom), charge = 1, multiplicity = 4:

       Center              X                  Y                   Z               Mass       
    ------------   -----------------  -----------------  -----------------  -----------------
         B            0.000000000000     0.000000000000     0.941829782107    11.009305360000
         AL           0.000000000000     0.000000000000    -0.384295790132    26.981538530000

  Running in c2v symmetry.

  Rotational constants: A = ************  B =      1.22597  C =      1.22597 [cm^-1]
  Rotational constants: A = ************  B =  36753.62775  C =  36753.62775 [MHz]
  Nuclear repulsion =   25.937603054810005

  Charge       = 1
  Multiplicity = 4
  Electrons    = 17
  Nalpha       = 10
  Nbeta        = 7

  ==> Algorithm <==

  SCF Algorithm Type is DF.
  DIIS enabled.
  MOM disabled.
  Fractional occupation disabled.
  Guess Type is READ.
  Energy threshold   = 1.00e-08
  Density threshold  = 1.00e-08
  Integral threshold = 1.00e-12

  ==> Primary Basis <==

  Basis Set: CC-PVDZ
    Blend: CC-PVDZ
    Number of shells: 14
    Number of basis functions: 32
    Number of Cartesian functions: 34
    Spherical Harmonics?: true
    Max angular momentum: 2

  ==> DFT Potential <==

   => LibXC <=

    Version 6.2.2
    S. Lehtola, C. Steigemann, M. J.T. Oliveira, and M. A.L. Marques.,  SoftwareX 7, 1–5 (2018) (10.1016/j.softx.2017.11.002)

   => Composite Functional: B3LYP <= 

    B3LYP Hyb-GGA Exchange-Correlation Functional

    P. J. Stephens, F. J. Devlin, C. F. Chabalowski, and M. J. Frisch.,  J. Phys. Chem. 98, 11623 (1994) (10.1021/j100096a001)

    Deriv               =              1
    GGA                 =           TRUE
    Meta                =          FALSE

    Exchange Hybrid     =           TRUE
    MP2 Hybrid          =          FALSE

   => Exchange Functionals <=

    0.0800   Slater exchange
    0.7200         Becke 88

   => Exact (HF) Exchange <=

    0.2000               HF 

   => Correlation Functionals <=

    0.1900   Vosko, Wilk & Nusair (VWN5_RPA)
    0.8100   Lee, Yang & Parr

   => LibXC Density Thresholds  <==

    XC_HYB_GGA_XC_B3LYP:  1.00E-15 

   => Molecular Quadrature <=

    Radial Scheme          =       TREUTLER
    Pruning Scheme         =           NONE
    Nuclear Scheme         =       TREUTLER

    Blocking Scheme        =         OCTREE
    BS radius alpha        =              1
    Pruning alpha          =              1
    Radial Points          =             75
    Spherical Points       =            302
    Total Points           =          42917
    Total Blocks           =            405
    Max Points             =            254
    Max Functions          =             32
    Weights Tolerance      =       1.00E-15

   => Loading Basis Set <=

    Name: (CC-PVDZ AUX)
    Role: JKFIT
    Keyword: DF_BASIS_SCF
    atoms 1 entry B          line    71 file /Users/joseantoniorodriguesromero/anaconda3/share/psi4/basis/cc-pvdz-jkfit.gbs 
    atoms 2 entry AL         line   371 file /Users/joseantoniorodriguesromero/anaconda3/share/psi4/basis/cc-pvdz-jkfit.gbs 

   => Loading Basis Set <=

    Name: CC-PVDZ
    Role: ORBITAL
    Keyword: BASIS
    atoms 1 entry B          line   108 file /Users/joseantoniorodriguesromero/anaconda3/share/psi4/basis/cc-pvdz.gbs 
    atoms 2 entry AL         line   418 file /Users/joseantoniorodriguesromero/anaconda3/share/psi4/basis/cc-pvdz.gbs 

  Reading orbitals from file /tmp/quartet_BAl.default.74263.180.npy, no projection.

  ==> Integral Setup <==

  DFHelper Memory: AOs need 0.002 GiB; user supplied 0.326 GiB. 
  Using in-core AOs.

  ==> MemDFJK: Density-Fitted J/K Matrices <==

    J tasked:                   Yes
    K tasked:                   Yes
    wK tasked:                   No
    OpenMP threads:               1
    Memory [MiB]:               334
    Algorithm:                 Core
    Schwarz Cutoff:           1E-12
    Mask sparsity (%):       0.0000
    Fitting Condition:        1E-10

   => Auxiliary Basis Set <=

  Basis Set: (CC-PVDZ AUX)
    Blend: CC-PVDZ-JKFIT
    Number of shells: 60
    Number of basis functions: 182
    Number of Cartesian functions: 211
    Spherical Harmonics?: true
    Max angular momentum: 3

  Cached 100.0% of DFT collocation blocks in 0.040 [GiB].

  Minimum eigenvalue in the overlap matrix is 6.4241871199E-03.
  Reciprocal condition number of the overlap matrix is 1.9592945449E-03.
    Using symmetric orthogonalization.

  ==> Pre-Iterations <==

  SCF Guess: Orbitals guess was supplied from a previous computation.

   -------------------------------------------------------
    Irrep   Nso     Nmo     Nalpha   Nbeta   Ndocc  Nsocc
   -------------------------------------------------------
     A1        16      16       6       5       5       1
     A2         2       2       0       0       0       0
     B1         7       7       2       1       1       1
     B2         7       7       2       1       1       1
   -------------------------------------------------------
    Total      32      32      10       7       7       3
   -------------------------------------------------------

  ==> Iterations <==

                           Total Energy        Delta E     RMS |[F,P]|

   @DF-UKS iter   0:  -266.47265176901533   -2.66473e+02   3.00398e-02 
   @DF-UKS iter   1:  -266.49462353387793   -2.19718e-02   2.75510e-03 ADIIS/DIIS
   @DF-UKS iter   2:  -266.49077467131224    3.84886e-03   4.17125e-03 ADIIS/DIIS/DAMP=1%
   @DF-UKS iter   3:  -266.49792399336121   -7.14932e-03   8.51428e-05 DIIS/DAMP=1%
   @DF-UKS iter   4:  -266.49769332000858    2.30673e-04   4.32360e-05 DIIS/DAMP=1%
   @DF-UKS iter   5:  -266.49770975789426   -1.64379e-05   7.27243e-06 DIIS/DAMP=1%
   @DF-UKS iter   6:  -266.49769792314697    1.18347e-05   1.28566e-06 DIIS/DAMP=1%
   @DF-UKS iter   7:  -266.49770310741576   -5.18427e-06   5.54596e-07 DIIS/DAMP=1%
   @DF-UKS iter   8:  -266.49770209220696    1.01521e-06   6.50567e-08 DIIS/DAMP=1%
   @DF-UKS iter   9:  -266.49770216952368   -7.73167e-08   1.21639e-08 DIIS/DAMP=1%
   @DF-UKS iter  10:  -266.49770216718582    2.33786e-09   8.59265e-10 DIIS/DAMP=1%
  Energy and wave function converged.


  ==> Post-Iterations <==

   Electrons on quadrature grid:
      Nalpha   =   10.0000001962 ; deviation = 1.962e-07
      Nbeta    =    7.0000000778 ; deviation = 7.775e-08
      Ntotal   =   17.0000002740 ; deviation = 2.740e-07 

   @Spin Contamination Metric:   4.447481222E-03
   @S^2 Expected:                3.750000000E+00
   @S^2 Observed:                3.754447481E+00
   @S   Expected:                1.500000000E+00
   @S   Observed:                1.500000000E+00

    Orbital Energies [Eh]
    ---------------------

    Alpha Occupied:                                                       

       1A1   -56.368268     2A1    -7.110014     3A1    -4.482029  
       4A1    -3.047884     1B1    -3.025458     1B2    -3.025458  
       5A1    -0.791256     2B2    -0.534186     2B1    -0.534186  
       6A1    -0.516648  

    Alpha Virtual:                                                        

       7A1    -0.365262     3B1    -0.234140     3B2    -0.234140  
       8A1    -0.128758     9A1    -0.038265     4B2    -0.015388  
       4B1    -0.015388    10A1    -0.007946     1A2    -0.007946  
      11A1     0.028534     5B2     0.087312     5B1     0.087312  
      12A1     0.120555     6B2     0.204914     6B1     0.204914  
      13A1     0.384186    14A1     0.491232     2A2     0.491232  
       7B1     0.734791     7B2     0.734791    15A1     0.836243  
      16A1     1.139957  

    Beta Occupied:                                                        

       1A1   -56.363394     2A1    -7.085013     3A1    -4.475282  
       4A1    -3.042452     1B1    -3.016691     1B2    -3.016691  
       5A1    -0.700417  

    Beta Virtual:                                                         

       6A1    -0.390059     2B1    -0.382538     2B2    -0.382538  
       7A1    -0.295232     3B1    -0.177742     3B2    -0.177742  
       8A1    -0.107059     9A1    -0.018834     4B2     0.005348  
       4B1     0.005348     1A2     0.037014    10A1     0.037015  
      11A1     0.056140     5B2     0.116243     5B1     0.116243  
      12A1     0.156445     6B2     0.272779     6B1     0.272779  
      13A1     0.431593    14A1     0.574472     2A2     0.574472  
       7B1     0.795365     7B2     0.795365    15A1     0.891294  
      16A1     1.175735  

    Final Occupation by Irrep:
             A1    A2    B1    B2 
    DOCC [     5,    0,    1,    1 ]
    SOCC [     1,    0,    1,    1 ]
    NA   [     6,    0,    2,    2 ]
    NB   [     5,    0,    1,    1 ]

  @DF-UKS Final Energy:  -266.49770216718582

   => Energetics <=

    Nuclear Repulsion Energy =             25.9376030548100047
    One-Electron Energy =                -414.7146531479722853
    Two-Electron Energy =                 140.5018632412799207
    DFT Exchange-Correlation Energy =     -18.2225153153034434
    Empirical Dispersion Energy =           0.0000000000000000
    VV10 Nonlocal Energy =                  0.0000000000000000
    Total Energy =                       -266.4977021671858211

  UHF NO Occupations:
  HONO-2 :    2 B2 1.0000000
  HONO-1 :    6 A1 1.0000000
  HONO-0 :    2 B1 1.0000000
  LUNO+0 :    7 A1 0.0022251
  LUNO+1 :    8 A1 0.0000006
  LUNO+2 :    9 A1 0.0000003
  LUNO+3 :    3 B2 0.0000001


Computation Completed


Properties will be evaluated at   0.000000,   0.000000,   0.000000 [a0]

Properties computed using the SCF density matrix


 Multipole Moments:

 ------------------------------------------------------------------------------------
     Multipole            Electronic (a.u.)      Nuclear  (a.u.)        Total (a.u.)
 ------------------------------------------------------------------------------------

 L = 1.  Multiply by 2.5417464519 to convert [e a0] to [Debye]
 Dipole X            :          0.0000000            0.0000000            0.0000000
 Dipole Y            :          0.0000000            0.0000000            0.0000000
 Dipole Z            :         -0.0320495           -0.5417776           -0.5738271
 Magnitude           :                                                    0.5738271

 ------------------------------------------------------------------------------------

*** tstop() called on Joses-MacBook-Pro-2.local at Thu Jul 17 13:35:26 2025
Module time:
	user time   =       4.57 seconds =       0.08 minutes
	system time =       3.66 seconds =       0.06 minutes
	total time  =          1 seconds =       0.02 minutes
Total time:
	user time   =      12.41 seconds =       0.21 minutes
	system time =       9.63 seconds =       0.16 minutes
	total time  =          2 seconds =       0.03 minutes

*** tstart() called on Joses-MacBook-Pro-2.local
*** at Thu Jul 17 13:35:26 2025


         ------------------------------------------------------------
                                   SCF GRAD                          
                          Rob Parrish, Justin Turney,                
                       Andy Simmonett, and Alex Sokolov              
         ------------------------------------------------------------

  ==> Geometry <==

    Molecular point group: c2v
    Full point group: C_inf_v

    Geometry (in Angstrom), charge = 1, multiplicity = 4:

       Center              X                  Y                   Z               Mass       
    ------------   -----------------  -----------------  -----------------  -----------------
         B            0.000000000000     0.000000000000     0.941829782107    11.009305360000
         AL           0.000000000000     0.000000000000    -0.384295790132    26.981538530000

  Nuclear repulsion =   25.937603054810005

  ==> Basis Set <==

  Basis Set: CC-PVDZ
    Blend: CC-PVDZ
    Number of shells: 14
    Number of basis functions: 32
    Number of Cartesian functions: 34
    Spherical Harmonics?: true
    Max angular momentum: 2

  ==> DFJKGrad: Density-Fitted SCF Gradients <==

    Gradient:                    1
    J tasked:                  Yes
    K tasked:                  Yes
    wK tasked:                  No
    OpenMP threads:              1
    Integrals threads:           1
    Memory [MiB]:              375
    Schwarz Cutoff:          1E-12
    Fitting Condition:       1E-10

   => Auxiliary Basis Set <=

  Basis Set: (CC-PVDZ AUX)
    Blend: CC-PVDZ-JKFIT
    Number of shells: 60
    Number of basis functions: 182
    Number of Cartesian functions: 211
    Spherical Harmonics?: true
    Max angular momentum: 3

  ==> DFT Potential <==

   => LibXC <=

    Version 6.2.2
    S. Lehtola, C. Steigemann, M. J.T. Oliveira, and M. A.L. Marques.,  SoftwareX 7, 1–5 (2018) (10.1016/j.softx.2017.11.002)

   => Composite Functional: B3LYP <= 

    B3LYP Hyb-GGA Exchange-Correlation Functional

    P. J. Stephens, F. J. Devlin, C. F. Chabalowski, and M. J. Frisch.,  J. Phys. Chem. 98, 11623 (1994) (10.1021/j100096a001)

    Deriv               =              1
    GGA                 =           TRUE
    Meta                =          FALSE

    Exchange Hybrid     =           TRUE
    MP2 Hybrid          =          FALSE

   => Exchange Functionals <=

    0.0800   Slater exchange
    0.7200         Becke 88

   => Exact (HF) Exchange <=

    0.2000               HF 

   => Correlation Functionals <=

    0.1900   Vosko, Wilk & Nusair (VWN5_RPA)
    0.8100   Lee, Yang & Parr

   => LibXC Density Thresholds  <==

    XC_HYB_GGA_XC_B3LYP:  1.00E-15 

   => Molecular Quadrature <=

    Radial Scheme          =       TREUTLER
    Pruning Scheme         =           NONE
    Nuclear Scheme         =       TREUTLER

    Blocking Scheme        =         OCTREE
    BS radius alpha        =              1
    Pruning alpha          =              1
    Radial Points          =             75
    Spherical Points       =            302
    Total Points           =          42917
    Total Blocks           =            405
    Max Points             =            254
    Max Functions          =             32
    Weights Tolerance      =       1.00E-15


  -Total Gradient:
     Atom            X                  Y                   Z
    ------   -----------------  -----------------  -----------------
       1        0.000000000000    -0.000000000000    -0.690332641533
       2       -0.000000000000     0.000000000000     0.690333277857


*** tstop() called on Joses-MacBook-Pro-2.local at Thu Jul 17 13:35:26 2025
Module time:
	user time   =       1.10 seconds =       0.02 minutes
	system time =       1.49 seconds =       0.02 minutes
	total time  =          0 seconds =       0.00 minutes
Total time:
	user time   =      13.51 seconds =       0.23 minutes
	system time =      11.13 seconds =       0.19 minutes
	total time  =          2 seconds =       0.03 minutes

    			-----------------------------------------

    			 OPTKING 3.0: for geometry optimizations 

    			     By R.A. King, Bethel University     

    			        with contributions from          

    			    A.V. Copan, J. Cayton, A. Heide      

    			-----------------------------------------

    
	                            ===> Fragment 1 <== 

	 Z (Atomic Numbers)          Masses                          Geom                  
	       5.000000            11.009305          0.00000000  0.00000000  1.77980034   
	      13.000000            26.981539          0.00000000  0.00000000 -0.72621379   

	 - Coordinate -           - BOHR/RAD -       - ANG/DEG -
	 R(1,2)           =         2.506014           1.326126


	        --- Internal Coordinate Step in ANG or DEG, aJ/ANG or AJ/DEG ---
	-------------------------------------------------------------------------------
	           Coordinate      Previous         Force          Change          New 
	           ----------      --------        ------          ------        ------
	               R(1,2)       1.32613        5.68746        0.15894       1.48506
	-------------------------------------------------------------------------------

	                                 ==> Convergence Check <==                                  
    
	Measures of convergence in internal coordinates in au.
    
	Criteria marked as inactive (o), active & met (*), and active & unmet ( ).

	----------------------------------------------------------------------------------------------
	   Step    Total Energy     Delta E     Max Force     RMS Force      Max Disp      RMS Disp   
	----------------------------------------------------------------------------------------------
	  Convergence Criteria     1.00e-06 *    3.00e-04 *             o    1.20e-03 *             o
	----------------------------------------------------------------------------------------------
	     2    -266.49770217   -2.06e-01      6.90e-01      6.90e-01 o    3.00e-01      3.00e-01 o  ~
	----------------------------------------------------------------------------------------------

Next Geometry in Ang 
	Fragment 1 (Ang)

	    B   0.0000000000   0.0000000000   1.0212982593
	   Al   0.0000000000   0.0000000000  -0.4637642674


    Structure for next step:
    Molecular point group: c2v
    Full point group: C_inf_v

    Geometry (in Angstrom), charge = 1, multiplicity = 4:

    B            0.000000000000     0.000000000000     1.054708652958
    AL           0.000000000000     0.000000000000    -0.430353873755


Scratch directory: /tmp/
gradient() will perform analytic gradient computation.
   => Libint2 <=

    Primary   basis highest AM E, G, H:  6, 6, 3
    Auxiliary basis highest AM E, G, H:  7, 7, 4
    Onebody   basis highest AM E, G, H:  -, -, -
    Solid Harmonics ordering:            Gaussian

*** tstart() called on Joses-MacBook-Pro-2.local
*** at Thu Jul 17 13:35:26 2025

   => Loading Basis Set <=

    Name: CC-PVDZ
    Role: ORBITAL
    Keyword: BASIS
    atoms 1 entry B          line   108 file /Users/joseantoniorodriguesromero/anaconda3/share/psi4/basis/cc-pvdz.gbs 
    atoms 2 entry AL         line   418 file /Users/joseantoniorodriguesromero/anaconda3/share/psi4/basis/cc-pvdz.gbs 


         ---------------------------------------------------------
                                   SCF
               by Justin Turney, Rob Parrish, Andy Simmonett
                          and Daniel G. A. Smith
                              UKS Reference
                        1 Threads,    500 MiB Core
         ---------------------------------------------------------

  ==> Geometry <==

    Molecular point group: c2v
    Full point group: C_inf_v

    Geometry (in Angstrom), charge = 1, multiplicity = 4:

       Center              X                  Y                   Z               Mass       
    ------------   -----------------  -----------------  -----------------  -----------------
         B            0.000000000000     0.000000000000     1.054708652958    11.009305360000
         AL           0.000000000000     0.000000000000    -0.430353873755    26.981538530000

  Running in c2v symmetry.

  Rotational constants: A = ************  B =      0.97760  C =      0.97760 [cm^-1]
  Rotational constants: A = ************  B =  29307.58499  C =  29307.58499 [MHz]
  Nuclear repulsion =   23.161663616736565

  Charge       = 1
  Multiplicity = 4
  Electrons    = 17
  Nalpha       = 10
  Nbeta        = 7

  ==> Algorithm <==

  SCF Algorithm Type is DF.
  DIIS enabled.
  MOM disabled.
  Fractional occupation disabled.
  Guess Type is READ.
  Energy threshold   = 1.00e-08
  Density threshold  = 1.00e-08
  Integral threshold = 1.00e-12

  ==> Primary Basis <==

  Basis Set: CC-PVDZ
    Blend: CC-PVDZ
    Number of shells: 14
    Number of basis functions: 32
    Number of Cartesian functions: 34
    Spherical Harmonics?: true
    Max angular momentum: 2

  ==> DFT Potential <==

   => LibXC <=

    Version 6.2.2
    S. Lehtola, C. Steigemann, M. J.T. Oliveira, and M. A.L. Marques.,  SoftwareX 7, 1–5 (2018) (10.1016/j.softx.2017.11.002)

   => Composite Functional: B3LYP <= 

    B3LYP Hyb-GGA Exchange-Correlation Functional

    P. J. Stephens, F. J. Devlin, C. F. Chabalowski, and M. J. Frisch.,  J. Phys. Chem. 98, 11623 (1994) (10.1021/j100096a001)

    Deriv               =              1
    GGA                 =           TRUE
    Meta                =          FALSE

    Exchange Hybrid     =           TRUE
    MP2 Hybrid          =          FALSE

   => Exchange Functionals <=

    0.0800   Slater exchange
    0.7200         Becke 88

   => Exact (HF) Exchange <=

    0.2000               HF 

   => Correlation Functionals <=

    0.1900   Vosko, Wilk & Nusair (VWN5_RPA)
    0.8100   Lee, Yang & Parr

   => LibXC Density Thresholds  <==

    XC_HYB_GGA_XC_B3LYP:  1.00E-15 

   => Molecular Quadrature <=

    Radial Scheme          =       TREUTLER
    Pruning Scheme         =           NONE
    Nuclear Scheme         =       TREUTLER

    Blocking Scheme        =         OCTREE
    BS radius alpha        =              1
    Pruning alpha          =              1
    Radial Points          =             75
    Spherical Points       =            302
    Total Points           =          42932
    Total Blocks           =            401
    Max Points             =            256
    Max Functions          =             32
    Weights Tolerance      =       1.00E-15

   => Loading Basis Set <=

    Name: (CC-PVDZ AUX)
    Role: JKFIT
    Keyword: DF_BASIS_SCF
    atoms 1 entry B          line    71 file /Users/joseantoniorodriguesromero/anaconda3/share/psi4/basis/cc-pvdz-jkfit.gbs 
    atoms 2 entry AL         line   371 file /Users/joseantoniorodriguesromero/anaconda3/share/psi4/basis/cc-pvdz-jkfit.gbs 

   => Loading Basis Set <=

    Name: CC-PVDZ
    Role: ORBITAL
    Keyword: BASIS
    atoms 1 entry B          line   108 file /Users/joseantoniorodriguesromero/anaconda3/share/psi4/basis/cc-pvdz.gbs 
    atoms 2 entry AL         line   418 file /Users/joseantoniorodriguesromero/anaconda3/share/psi4/basis/cc-pvdz.gbs 

  Reading orbitals from file /tmp/quartet_BAl.default.74263.180.npy, no projection.

  ==> Integral Setup <==

  DFHelper Memory: AOs need 0.002 GiB; user supplied 0.326 GiB. 
  Using in-core AOs.

  ==> MemDFJK: Density-Fitted J/K Matrices <==

    J tasked:                   Yes
    K tasked:                   Yes
    wK tasked:                   No
    OpenMP threads:               1
    Memory [MiB]:               334
    Algorithm:                 Core
    Schwarz Cutoff:           1E-12
    Mask sparsity (%):       0.0000
    Fitting Condition:        1E-10

   => Auxiliary Basis Set <=

  Basis Set: (CC-PVDZ AUX)
    Blend: CC-PVDZ-JKFIT
    Number of shells: 60
    Number of basis functions: 182
    Number of Cartesian functions: 211
    Spherical Harmonics?: true
    Max angular momentum: 3

  Cached 100.0% of DFT collocation blocks in 0.040 [GiB].

  Minimum eigenvalue in the overlap matrix is 7.6218158643E-03.
  Reciprocal condition number of the overlap matrix is 2.3398041707E-03.
    Using symmetric orthogonalization.

  ==> Pre-Iterations <==

  SCF Guess: Orbitals guess was supplied from a previous computation.

   -------------------------------------------------------
    Irrep   Nso     Nmo     Nalpha   Nbeta   Ndocc  Nsocc
   -------------------------------------------------------
     A1        16      16       6       5       5       1
     A2         2       2       0       0       0       0
     B1         7       7       2       1       1       1
     B2         7       7       2       1       1       1
   -------------------------------------------------------
    Total      32      32      10       7       7       3
   -------------------------------------------------------

  ==> Iterations <==

                           Total Energy        Delta E     RMS |[F,P]|

   @DF-UKS iter   0:  -266.63236072990583   -2.66632e+02   3.28996e-02 
   @DF-UKS iter   1:  -266.64960254781494   -1.72418e-02   2.94766e-03 ADIIS/DIIS
   @DF-UKS iter   2:  -266.64319623799298    6.40631e-03   4.90497e-03 ADIIS/DIIS/DAMP=1%
   @DF-UKS iter   3:  -266.65302635806455   -9.83012e-03   9.31450e-05 DIIS/DAMP=1%
   @DF-UKS iter   4:  -266.65314149951973   -1.15141e-04   3.93127e-05 DIIS/DAMP=1%
   @DF-UKS iter   5:  -266.65305738345432    8.41161e-05   1.21378e-05 DIIS/DAMP=1%
   @DF-UKS iter   6:  -266.65308566678834   -2.82833e-05   2.92399e-06 DIIS/DAMP=1%
   @DF-UKS iter   7:  -266.65307922424074    6.44255e-06   4.66005e-07 DIIS/DAMP=1%
   @DF-UKS iter   8:  -266.65307930714135   -8.29006e-08   6.65779e-08 DIIS/DAMP=1%
   @DF-UKS iter   9:  -266.65307927977005    2.73713e-08   2.33371e-08 DIIS/DAMP=1%
   @DF-UKS iter  10:  -266.65307928652214   -6.75209e-09   1.55987e-09 DIIS/DAMP=1%
  Energy and wave function converged.


  ==> Post-Iterations <==

   Electrons on quadrature grid:
      Nalpha   =    9.9999994812 ; deviation = -5.188e-07
      Nbeta    =    6.9999993671 ; deviation = -6.329e-07
      Ntotal   =   16.9999988483 ; deviation = -1.152e-06 

   @Spin Contamination Metric:   6.888445321E-03
   @S^2 Expected:                3.750000000E+00
   @S^2 Observed:                3.756888445E+00
   @S   Expected:                1.500000000E+00
   @S   Observed:                1.500000000E+00

    Orbital Energies [Eh]
    ---------------------

    Alpha Occupied:                                                       

       1A1   -56.361261     2A1    -7.085925     3A1    -4.460836  
       4A1    -3.019142     1B1    -3.009079     1B2    -3.009079  
       5A1    -0.778303     6A1    -0.522396     2B2    -0.502487  
       2B1    -0.502487  

    Alpha Virtual:                                                        

       7A1    -0.377366     3B2    -0.243039     3B1    -0.243039  
       8A1    -0.133749     9A1    -0.038505     4B2    -0.010751  
       4B1    -0.010751    10A1    -0.001390     1A2    -0.001390  
      11A1     0.029204     5B2     0.092704     5B1     0.092704  
      12A1     0.102326     6B1     0.163899     6B2     0.163899  
      13A1     0.367223     2A2     0.484545    14A1     0.484546  
       7B1     0.722210     7B2     0.722210    15A1     0.744765  
      16A1     0.928804  

    Beta Occupied:                                                        

       1A1   -56.356655     2A1    -7.062493     3A1    -4.454174  
       4A1    -3.014254     1B1    -3.001108     1B2    -3.001108  
       5A1    -0.696870  

    Beta Virtual:                                                         

       6A1    -0.396723     2B2    -0.360540     2B1    -0.360540  
       7A1    -0.307329     3B2    -0.181942     3B1    -0.181942  
       8A1    -0.111401     9A1    -0.019160     4B2     0.010021  
       4B1     0.010021     1A2     0.044303    10A1     0.044303  
      11A1     0.056682     5B2     0.122613     5B1     0.122613  
      12A1     0.137655     6B1     0.230228     6B2     0.230228  
      13A1     0.412209    14A1     0.568671     2A2     0.568671  
       7B1     0.784769     7B2     0.784769    15A1     0.805313  
      16A1     0.956120  

    Final Occupation by Irrep:
             A1    A2    B1    B2 
    DOCC [     5,    0,    1,    1 ]
    SOCC [     1,    0,    1,    1 ]
    NA   [     6,    0,    2,    2 ]
    NB   [     5,    0,    1,    1 ]

  @DF-UKS Final Energy:  -266.65307928652214

   => Energetics <=

    Nuclear Repulsion Energy =             23.1616636167365648
    One-Electron Energy =                -409.8169102848082730
    Two-Electron Energy =                 138.1590105395955845
    DFT Exchange-Correlation Energy =     -18.1568431580460405
    Empirical Dispersion Energy =           0.0000000000000000
    VV10 Nonlocal Energy =                  0.0000000000000000
    Total Energy =                       -266.6530792865221429

  UHF NO Occupations:
  HONO-2 :    6 A1 1.0000000
  HONO-1 :    2 B2 1.0000000
  HONO-0 :    2 B1 1.0000000
  LUNO+0 :    7 A1 0.0034489
  LUNO+1 :    8 A1 0.0000005
  LUNO+2 :    9 A1 0.0000004
  LUNO+3 :    3 B2 0.0000002


Computation Completed


Properties will be evaluated at   0.000000,   0.000000,   0.000000 [a0]

Properties computed using the SCF density matrix


 Multipole Moments:

 ------------------------------------------------------------------------------------
     Multipole            Electronic (a.u.)      Nuclear  (a.u.)        Total (a.u.)
 ------------------------------------------------------------------------------------

 L = 1.  Multiply by 2.5417464519 to convert [e a0] to [Debye]
 Dipole X            :          0.0000000            0.0000000            0.0000000
 Dipole Y            :          0.0000000            0.0000000            0.0000000
 Dipole Z            :          0.0226794           -0.6067100           -0.5840306
 Magnitude           :                                                    0.5840306

 ------------------------------------------------------------------------------------

*** tstop() called on Joses-MacBook-Pro-2.local at Thu Jul 17 13:35:27 2025
Module time:
	user time   =       3.81 seconds =       0.06 minutes
	system time =       3.68 seconds =       0.06 minutes
	total time  =          1 seconds =       0.02 minutes
Total time:
	user time   =      17.58 seconds =       0.29 minutes
	system time =      14.84 seconds =       0.25 minutes
	total time  =          3 seconds =       0.05 minutes

*** tstart() called on Joses-MacBook-Pro-2.local
*** at Thu Jul 17 13:35:27 2025


         ------------------------------------------------------------
                                   SCF GRAD                          
                          Rob Parrish, Justin Turney,                
                       Andy Simmonett, and Alex Sokolov              
         ------------------------------------------------------------

  ==> Geometry <==

    Molecular point group: c2v
    Full point group: C_inf_v

    Geometry (in Angstrom), charge = 1, multiplicity = 4:

       Center              X                  Y                   Z               Mass       
    ------------   -----------------  -----------------  -----------------  -----------------
         B            0.000000000000     0.000000000000     1.054708652958    11.009305360000
         AL           0.000000000000     0.000000000000    -0.430353873755    26.981538530000

  Nuclear repulsion =   23.161663616736565

  ==> Basis Set <==

  Basis Set: CC-PVDZ
    Blend: CC-PVDZ
    Number of shells: 14
    Number of basis functions: 32
    Number of Cartesian functions: 34
    Spherical Harmonics?: true
    Max angular momentum: 2

  ==> DFJKGrad: Density-Fitted SCF Gradients <==

    Gradient:                    1
    J tasked:                  Yes
    K tasked:                  Yes
    wK tasked:                  No
    OpenMP threads:              1
    Integrals threads:           1
    Memory [MiB]:              375
    Schwarz Cutoff:          1E-12
    Fitting Condition:       1E-10

   => Auxiliary Basis Set <=

  Basis Set: (CC-PVDZ AUX)
    Blend: CC-PVDZ-JKFIT
    Number of shells: 60
    Number of basis functions: 182
    Number of Cartesian functions: 211
    Spherical Harmonics?: true
    Max angular momentum: 3

  ==> DFT Potential <==

   => LibXC <=

    Version 6.2.2
    S. Lehtola, C. Steigemann, M. J.T. Oliveira, and M. A.L. Marques.,  SoftwareX 7, 1–5 (2018) (10.1016/j.softx.2017.11.002)

   => Composite Functional: B3LYP <= 

    B3LYP Hyb-GGA Exchange-Correlation Functional

    P. J. Stephens, F. J. Devlin, C. F. Chabalowski, and M. J. Frisch.,  J. Phys. Chem. 98, 11623 (1994) (10.1021/j100096a001)

    Deriv               =              1
    GGA                 =           TRUE
    Meta                =          FALSE

    Exchange Hybrid     =           TRUE
    MP2 Hybrid          =          FALSE

   => Exchange Functionals <=

    0.0800   Slater exchange
    0.7200         Becke 88

   => Exact (HF) Exchange <=

    0.2000               HF 

   => Correlation Functionals <=

    0.1900   Vosko, Wilk & Nusair (VWN5_RPA)
    0.8100   Lee, Yang & Parr

   => LibXC Density Thresholds  <==

    XC_HYB_GGA_XC_B3LYP:  1.00E-15 

   => Molecular Quadrature <=

    Radial Scheme          =       TREUTLER
    Pruning Scheme         =           NONE
    Nuclear Scheme         =       TREUTLER

    Blocking Scheme        =         OCTREE
    BS radius alpha        =              1
    Pruning alpha          =              1
    Radial Points          =             75
    Spherical Points       =            302
    Total Points           =          42932
    Total Blocks           =            401
    Max Points             =            256
    Max Functions          =             32
    Weights Tolerance      =       1.00E-15


  -Total Gradient:
     Atom            X                  Y                   Z
    ------   -----------------  -----------------  -----------------
       1       -0.000000000000     0.000000000000    -0.368382723432
       2       -0.000000000000     0.000000000000     0.368375859492


*** tstop() called on Joses-MacBook-Pro-2.local at Thu Jul 17 13:35:27 2025
Module time:
	user time   =       1.78 seconds =       0.03 minutes
	system time =       0.85 seconds =       0.01 minutes
	total time  =          0 seconds =       0.00 minutes
Total time:
	user time   =      19.36 seconds =       0.32 minutes
	system time =      15.70 seconds =       0.26 minutes
	total time  =          3 seconds =       0.05 minutes

    			-----------------------------------------

    			 OPTKING 3.0: for geometry optimizations 

    			     By R.A. King, Bethel University     

    			        with contributions from          

    			    A.V. Copan, J. Cayton, A. Heide      

    			-----------------------------------------

    
	                            ===> Fragment 1 <== 

	 Z (Atomic Numbers)          Masses                          Geom                  
	       5.000000            11.009305          0.00000000  0.00000000  1.99311050   
	      13.000000            26.981539          0.00000000  0.00000000 -0.81325096   

	 - Coordinate -           - BOHR/RAD -       - ANG/DEG -
	 R(1,2)           =         2.806361           1.485063


	        --- Internal Coordinate Step in ANG or DEG, aJ/ANG or AJ/DEG ---
	-------------------------------------------------------------------------------
	           Coordinate      Previous         Force          Change          New 
	           ----------      --------        ------          ------        ------
	               R(1,2)       1.48506        3.03498        0.16432       1.64938
	-------------------------------------------------------------------------------

	                                 ==> Convergence Check <==                                  
    
	Measures of convergence in internal coordinates in au.
    
	Criteria marked as inactive (o), active & met (*), and active & unmet ( ).

	----------------------------------------------------------------------------------------------
	   Step    Total Energy     Delta E     Max Force     RMS Force      Max Disp      RMS Disp   
	----------------------------------------------------------------------------------------------
	  Convergence Criteria     1.00e-06 *    3.00e-04 *             o    1.20e-03 *             o
	----------------------------------------------------------------------------------------------
	     3    -266.65307929   -1.55e-01      3.68e-01      3.68e-01 o    3.11e-01      3.11e-01 o  ~
	----------------------------------------------------------------------------------------------

Next Geometry in Ang 
	Fragment 1 (Ang)

	    B   0.0000000000   0.0000000000   1.1368689146
	   Al   0.0000000000   0.0000000000  -0.5125141354


    Structure for next step:
    Molecular point group: c2v
    Full point group: C_inf_v

    Geometry (in Angstrom), charge = 1, multiplicity = 4:

    B            0.000000000000     0.000000000000     1.171410996836
    AL           0.000000000000     0.000000000000    -0.477972053072


Scratch directory: /tmp/
gradient() will perform analytic gradient computation.
   => Libint2 <=

    Primary   basis highest AM E, G, H:  6, 6, 3
    Auxiliary basis highest AM E, G, H:  7, 7, 4
    Onebody   basis highest AM E, G, H:  -, -, -
    Solid Harmonics ordering:            Gaussian

*** tstart() called on Joses-MacBook-Pro-2.local
*** at Thu Jul 17 13:35:27 2025

   => Loading Basis Set <=

    Name: CC-PVDZ
    Role: ORBITAL
    Keyword: BASIS
    atoms 1 entry B          line   108 file /Users/joseantoniorodriguesromero/anaconda3/share/psi4/basis/cc-pvdz.gbs 
    atoms 2 entry AL         line   418 file /Users/joseantoniorodriguesromero/anaconda3/share/psi4/basis/cc-pvdz.gbs 


         ---------------------------------------------------------
                                   SCF
               by Justin Turney, Rob Parrish, Andy Simmonett
                          and Daniel G. A. Smith
                              UKS Reference
                        1 Threads,    500 MiB Core
         ---------------------------------------------------------

  ==> Geometry <==

    Molecular point group: c2v
    Full point group: C_inf_v

    Geometry (in Angstrom), charge = 1, multiplicity = 4:

       Center              X                  Y                   Z               Mass       
    ------------   -----------------  -----------------  -----------------  -----------------
         B            0.000000000000     0.000000000000     1.171410996836    11.009305360000
         AL           0.000000000000     0.000000000000    -0.477972053072    26.981538530000

  Running in c2v symmetry.

  Rotational constants: A = ************  B =      0.79251  C =      0.79251 [cm^-1]
  Rotational constants: A = ************  B =  23758.90701  C =  23758.90701 [MHz]
  Nuclear repulsion =   20.854172531637676

  Charge       = 1
  Multiplicity = 4
  Electrons    = 17
  Nalpha       = 10
  Nbeta        = 7

  ==> Algorithm <==

  SCF Algorithm Type is DF.
  DIIS enabled.
  MOM disabled.
  Fractional occupation disabled.
  Guess Type is READ.
  Energy threshold   = 1.00e-08
  Density threshold  = 1.00e-08
  Integral threshold = 1.00e-12

  ==> Primary Basis <==

  Basis Set: CC-PVDZ
    Blend: CC-PVDZ
    Number of shells: 14
    Number of basis functions: 32
    Number of Cartesian functions: 34
    Spherical Harmonics?: true
    Max angular momentum: 2

  ==> DFT Potential <==

   => LibXC <=

    Version 6.2.2
    S. Lehtola, C. Steigemann, M. J.T. Oliveira, and M. A.L. Marques.,  SoftwareX 7, 1–5 (2018) (10.1016/j.softx.2017.11.002)

   => Composite Functional: B3LYP <= 

    B3LYP Hyb-GGA Exchange-Correlation Functional

    P. J. Stephens, F. J. Devlin, C. F. Chabalowski, and M. J. Frisch.,  J. Phys. Chem. 98, 11623 (1994) (10.1021/j100096a001)

    Deriv               =              1
    GGA                 =           TRUE
    Meta                =          FALSE

    Exchange Hybrid     =           TRUE
    MP2 Hybrid          =          FALSE

   => Exchange Functionals <=

    0.0800   Slater exchange
    0.7200         Becke 88

   => Exact (HF) Exchange <=

    0.2000               HF 

   => Correlation Functionals <=

    0.1900   Vosko, Wilk & Nusair (VWN5_RPA)
    0.8100   Lee, Yang & Parr

   => LibXC Density Thresholds  <==

    XC_HYB_GGA_XC_B3LYP:  1.00E-15 

   => Molecular Quadrature <=

    Radial Scheme          =       TREUTLER
    Pruning Scheme         =           NONE
    Nuclear Scheme         =       TREUTLER

    Blocking Scheme        =         OCTREE
    BS radius alpha        =              1
    Pruning alpha          =              1
    Radial Points          =             75
    Spherical Points       =            302
    Total Points           =          42946
    Total Blocks           =            402
    Max Points             =            253
    Max Functions          =             32
    Weights Tolerance      =       1.00E-15

   => Loading Basis Set <=

    Name: (CC-PVDZ AUX)
    Role: JKFIT
    Keyword: DF_BASIS_SCF
    atoms 1 entry B          line    71 file /Users/joseantoniorodriguesromero/anaconda3/share/psi4/basis/cc-pvdz-jkfit.gbs 
    atoms 2 entry AL         line   371 file /Users/joseantoniorodriguesromero/anaconda3/share/psi4/basis/cc-pvdz-jkfit.gbs 

   => Loading Basis Set <=

    Name: CC-PVDZ
    Role: ORBITAL
    Keyword: BASIS
    atoms 1 entry B          line   108 file /Users/joseantoniorodriguesromero/anaconda3/share/psi4/basis/cc-pvdz.gbs 
    atoms 2 entry AL         line   418 file /Users/joseantoniorodriguesromero/anaconda3/share/psi4/basis/cc-pvdz.gbs 

  Reading orbitals from file /tmp/quartet_BAl.default.74263.180.npy, no projection.

  ==> Integral Setup <==

  DFHelper Memory: AOs need 0.002 GiB; user supplied 0.326 GiB. 
  Using in-core AOs.

  ==> MemDFJK: Density-Fitted J/K Matrices <==

    J tasked:                   Yes
    K tasked:                   Yes
    wK tasked:                   No
    OpenMP threads:               1
    Memory [MiB]:               334
    Algorithm:                 Core
    Schwarz Cutoff:           1E-12
    Mask sparsity (%):       0.0000
    Fitting Condition:        1E-10

   => Auxiliary Basis Set <=

  Basis Set: (CC-PVDZ AUX)
    Blend: CC-PVDZ-JKFIT
    Number of shells: 60
    Number of basis functions: 182
    Number of Cartesian functions: 211
    Spherical Harmonics?: true
    Max angular momentum: 3

  Cached 100.0% of DFT collocation blocks in 0.040 [GiB].

  Minimum eigenvalue in the overlap matrix is 9.0557233259E-03.
  Reciprocal condition number of the overlap matrix is 2.8074674508E-03.
    Using symmetric orthogonalization.

  ==> Pre-Iterations <==

  SCF Guess: Orbitals guess was supplied from a previous computation.

   -------------------------------------------------------
    Irrep   Nso     Nmo     Nalpha   Nbeta   Ndocc  Nsocc
   -------------------------------------------------------
     A1        16      16       6       5       5       1
     A2         2       2       0       0       0       0
     B1         7       7       2       1       1       1
     B2         7       7       2       1       1       1
   -------------------------------------------------------
    Total      32      32      10       7       7       3
   -------------------------------------------------------

  ==> Iterations <==

                           Total Energy        Delta E     RMS |[F,P]|

   @DF-UKS iter   0:  -266.69994559822811   -2.66700e+02   2.56418e-02 
   @DF-UKS iter   1:  -266.73194212003227   -3.19965e-02   1.78732e-03 ADIIS/DIIS
   @DF-UKS iter   2:  -266.72898299218451    2.95913e-03   3.15429e-03 ADIIS/DIIS/DAMP=1%
   @DF-UKS iter   3:  -266.73293193776243   -3.94895e-03   1.39652e-04 ADIIS/DIIS/DAMP=1%
   @DF-UKS iter   4:  -266.73322746732549   -2.95530e-04   1.55806e-05 DIIS/DAMP=1%
   @DF-UKS iter   5:  -266.73319617860369    3.12887e-05   7.82355e-06 DIIS/DAMP=1%
   @DF-UKS iter   6:  -266.73320451817051   -8.33957e-06   1.20551e-06 DIIS/DAMP=1%
   @DF-UKS iter   7:  -266.73320105803697    3.46013e-06   2.66048e-07 DIIS/DAMP=1%
   @DF-UKS iter   8:  -266.73320172771389   -6.69677e-07   5.26991e-08 DIIS/DAMP=1%
   @DF-UKS iter   9:  -266.73320171193382    1.57801e-08   1.37611e-08 DIIS/DAMP=1%
   @DF-UKS iter  10:  -266.73320171761833   -5.68451e-09   1.94458e-09 DIIS/DAMP=1%
  Energy and wave function converged.


  ==> Post-Iterations <==

   Electrons on quadrature grid:
      Nalpha   =    9.9999998587 ; deviation = -1.413e-07
      Nbeta    =    6.9999998709 ; deviation = -1.291e-07
      Ntotal   =   16.9999997296 ; deviation = -2.704e-07 

   @Spin Contamination Metric:   9.689564387E-03
   @S^2 Expected:                3.750000000E+00
   @S^2 Observed:                3.759689564E+00
   @S   Expected:                1.500000000E+00
   @S   Observed:                1.500000000E+00

    Orbital Energies [Eh]
    ---------------------

    Alpha Occupied:                                                       

       1A1   -56.369963     2A1    -7.083746     3A1    -4.457716  
       4A1    -3.012011     1B2    -3.008456     1B1    -3.008456  
       5A1    -0.759835     6A1    -0.530109     2B1    -0.478423  
       2B2    -0.478423  

    Alpha Virtual:                                                        

       7A1    -0.382924     3B2    -0.254555     3B1    -0.254555  
       8A1    -0.137984     9A1    -0.039600     4B1    -0.006643  
       4B2    -0.006643     1A2     0.003260    10A1     0.003260  
      11A1     0.030470    12A1     0.083721     5B2     0.095379  
       5B1     0.095379     6B1     0.129494     6B2     0.129494  
      13A1     0.353627     2A2     0.477985    14A1     0.477985  
      15A1     0.622446     7B2     0.697836     7B1     0.697836  
      16A1     0.850819  

    Beta Occupied:                                                        

       1A1   -56.365465     2A1    -7.060907     3A1    -4.451031  
       4A1    -3.007344     1B2    -3.000961     1B1    -3.000961  
       5A1    -0.684742  

    Beta Virtual:                                                         

       6A1    -0.405063     2B1    -0.344020     2B2    -0.344020  
       7A1    -0.313968     3B2    -0.189087     3B1    -0.189087  
       8A1    -0.115236     9A1    -0.020320     4B1     0.013646  
       4B2     0.013646    10A1     0.048945     1A2     0.048945  
      11A1     0.058208    12A1     0.117077     5B2     0.126812  
       5B1     0.126812     6B1     0.192966     6B2     0.192966  
      13A1     0.395333    14A1     0.562704     2A2     0.562704  
      15A1     0.673794     7B2     0.761538     7B1     0.761538  
      16A1     0.884352  

    Final Occupation by Irrep:
             A1    A2    B1    B2 
    DOCC [     5,    0,    1,    1 ]
    SOCC [     1,    0,    1,    1 ]
    NA   [     6,    0,    2,    2 ]
    NB   [     5,    0,    1,    1 ]

  @DF-UKS Final Energy:  -266.73320171761833

   => Energetics <=

    Nuclear Repulsion Energy =             20.8541725316376763
    One-Electron Energy =                -405.4840226382483479
    Two-Electron Energy =                 135.9919170134547812
    DFT Exchange-Correlation Energy =     -18.0952686244624559
    Empirical Dispersion Energy =           0.0000000000000000
    VV10 Nonlocal Energy =                  0.0000000000000000
    Total Energy =                       -266.7332017176183285

  UHF NO Occupations:
  HONO-2 :    2 B2 1.0000000
  HONO-1 :    2 B1 1.0000000
  HONO-0 :    6 A1 1.0000000
  LUNO+0 :    7 A1 0.0048551
  LUNO+1 :    8 A1 0.0000005
  LUNO+2 :    9 A1 0.0000004
  LUNO+3 :    3 B2 0.0000003


Computation Completed


Properties will be evaluated at   0.000000,   0.000000,   0.000000 [a0]

Properties computed using the SCF density matrix


 Multipole Moments:

 ------------------------------------------------------------------------------------
     Multipole            Electronic (a.u.)      Nuclear  (a.u.)        Total (a.u.)
 ------------------------------------------------------------------------------------

 L = 1.  Multiply by 2.5417464519 to convert [e a0] to [Debye]
 Dipole X            :          0.0000000            0.0000000            0.0000000
 Dipole Y            :          0.0000000            0.0000000            0.0000000
 Dipole Z            :          0.0741683           -0.6738418           -0.5996735
 Magnitude           :                                                    0.5996735

 ------------------------------------------------------------------------------------

*** tstop() called on Joses-MacBook-Pro-2.local at Thu Jul 17 13:35:28 2025
Module time:
	user time   =       4.09 seconds =       0.07 minutes
	system time =       3.53 seconds =       0.06 minutes
	total time  =          1 seconds =       0.02 minutes
Total time:
	user time   =      23.61 seconds =       0.39 minutes
	system time =      19.37 seconds =       0.32 minutes
	total time  =          4 seconds =       0.07 minutes

*** tstart() called on Joses-MacBook-Pro-2.local
*** at Thu Jul 17 13:35:28 2025


         ------------------------------------------------------------
                                   SCF GRAD                          
                          Rob Parrish, Justin Turney,                
                       Andy Simmonett, and Alex Sokolov              
         ------------------------------------------------------------

  ==> Geometry <==

    Molecular point group: c2v
    Full point group: C_inf_v

    Geometry (in Angstrom), charge = 1, multiplicity = 4:

       Center              X                  Y                   Z               Mass       
    ------------   -----------------  -----------------  -----------------  -----------------
         B            0.000000000000     0.000000000000     1.171410996836    11.009305360000
         AL           0.000000000000     0.000000000000    -0.477972053072    26.981538530000

  Nuclear repulsion =   20.854172531637676

  ==> Basis Set <==

  Basis Set: CC-PVDZ
    Blend: CC-PVDZ
    Number of shells: 14
    Number of basis functions: 32
    Number of Cartesian functions: 34
    Spherical Harmonics?: true
    Max angular momentum: 2

  ==> DFJKGrad: Density-Fitted SCF Gradients <==

    Gradient:                    1
    J tasked:                  Yes
    K tasked:                  Yes
    wK tasked:                  No
    OpenMP threads:              1
    Integrals threads:           1
    Memory [MiB]:              375
    Schwarz Cutoff:          1E-12
    Fitting Condition:       1E-10

   => Auxiliary Basis Set <=

  Basis Set: (CC-PVDZ AUX)
    Blend: CC-PVDZ-JKFIT
    Number of shells: 60
    Number of basis functions: 182
    Number of Cartesian functions: 211
    Spherical Harmonics?: true
    Max angular momentum: 3

  ==> DFT Potential <==

   => LibXC <=

    Version 6.2.2
    S. Lehtola, C. Steigemann, M. J.T. Oliveira, and M. A.L. Marques.,  SoftwareX 7, 1–5 (2018) (10.1016/j.softx.2017.11.002)

   => Composite Functional: B3LYP <= 

    B3LYP Hyb-GGA Exchange-Correlation Functional

    P. J. Stephens, F. J. Devlin, C. F. Chabalowski, and M. J. Frisch.,  J. Phys. Chem. 98, 11623 (1994) (10.1021/j100096a001)

    Deriv               =              1
    GGA                 =           TRUE
    Meta                =          FALSE

    Exchange Hybrid     =           TRUE
    MP2 Hybrid          =          FALSE

   => Exchange Functionals <=

    0.0800   Slater exchange
    0.7200         Becke 88

   => Exact (HF) Exchange <=

    0.2000               HF 

   => Correlation Functionals <=

    0.1900   Vosko, Wilk & Nusair (VWN5_RPA)
    0.8100   Lee, Yang & Parr

   => LibXC Density Thresholds  <==

    XC_HYB_GGA_XC_B3LYP:  1.00E-15 

   => Molecular Quadrature <=

    Radial Scheme          =       TREUTLER
    Pruning Scheme         =           NONE
    Nuclear Scheme         =       TREUTLER

    Blocking Scheme        =         OCTREE
    BS radius alpha        =              1
    Pruning alpha          =              1
    Radial Points          =             75
    Spherical Points       =            302
    Total Points           =          42946
    Total Blocks           =            402
    Max Points             =            253
    Max Functions          =             32
    Weights Tolerance      =       1.00E-15


  -Total Gradient:
     Atom            X                  Y                   Z
    ------   -----------------  -----------------  -----------------
       1        0.000000000000     0.000000000000    -0.166051614024
       2        0.000000000000    -0.000000000000     0.166041916220


*** tstop() called on Joses-MacBook-Pro-2.local at Thu Jul 17 13:35:29 2025
Module time:
	user time   =       0.94 seconds =       0.02 minutes
	system time =       1.56 seconds =       0.03 minutes
	total time  =          1 seconds =       0.02 minutes
Total time:
	user time   =      24.56 seconds =       0.41 minutes
	system time =      20.93 seconds =       0.35 minutes
	total time  =          5 seconds =       0.08 minutes

    			-----------------------------------------

    			 OPTKING 3.0: for geometry optimizations 

    			     By R.A. King, Bethel University     

    			        with contributions from          

    			    A.V. Copan, J. Cayton, A. Heide      

    			-----------------------------------------

    
	                            ===> Fragment 1 <== 

	 Z (Atomic Numbers)          Masses                          Geom                  
	       5.000000            11.009305          0.00000000  0.00000000  2.21364596   
	      13.000000            26.981539          0.00000000  0.00000000 -0.90323628   

	 - Coordinate -           - BOHR/RAD -       - ANG/DEG -
	 R(1,2)           =         3.116882           1.649383


	        --- Internal Coordinate Step in ANG or DEG, aJ/ANG or AJ/DEG ---
	-------------------------------------------------------------------------------
	           Coordinate      Previous         Force          Change          New 
	           ----------      --------        ------          ------        ------
	               R(1,2)       1.64938        1.36801        0.12708       1.77646
	-------------------------------------------------------------------------------

	                                 ==> Convergence Check <==                                  
    
	Measures of convergence in internal coordinates in au.
    
	Criteria marked as inactive (o), active & met (*), and active & unmet ( ).

	----------------------------------------------------------------------------------------------
	   Step    Total Energy     Delta E     Max Force     RMS Force      Max Disp      RMS Disp   
	----------------------------------------------------------------------------------------------
	  Convergence Criteria     1.00e-06 *    3.00e-04 *             o    1.20e-03 *             o
	----------------------------------------------------------------------------------------------
	     4    -266.73320172   -8.01e-02      1.66e-01      1.66e-01 o    2.40e-01      2.40e-01 o  ~
	----------------------------------------------------------------------------------------------

Next Geometry in Ang 
	Fragment 1 (Ang)

	    B   0.0000000000   0.0000000000   1.2349486768
	   Al   0.0000000000   0.0000000000  -0.5415097330


    Structure for next step:
    Molecular point group: c2v
    Full point group: C_inf_v

    Geometry (in Angstrom), charge = 1, multiplicity = 4:

    B            0.000000000000     0.000000000000     1.261661393159
    AL           0.000000000000     0.000000000000    -0.514797016588


Scratch directory: /tmp/
gradient() will perform analytic gradient computation.
   => Libint2 <=

    Primary   basis highest AM E, G, H:  6, 6, 3
    Auxiliary basis highest AM E, G, H:  7, 7, 4
    Onebody   basis highest AM E, G, H:  -, -, -
    Solid Harmonics ordering:            Gaussian

*** tstart() called on Joses-MacBook-Pro-2.local
*** at Thu Jul 17 13:35:29 2025

   => Loading Basis Set <=

    Name: CC-PVDZ
    Role: ORBITAL
    Keyword: BASIS
    atoms 1 entry B          line   108 file /Users/joseantoniorodriguesromero/anaconda3/share/psi4/basis/cc-pvdz.gbs 
    atoms 2 entry AL         line   418 file /Users/joseantoniorodriguesromero/anaconda3/share/psi4/basis/cc-pvdz.gbs 


         ---------------------------------------------------------
                                   SCF
               by Justin Turney, Rob Parrish, Andy Simmonett
                          and Daniel G. A. Smith
                              UKS Reference
                        1 Threads,    500 MiB Core
         ---------------------------------------------------------

  ==> Geometry <==

    Molecular point group: c2v
    Full point group: C_inf_v

    Geometry (in Angstrom), charge = 1, multiplicity = 4:

       Center              X                  Y                   Z               Mass       
    ------------   -----------------  -----------------  -----------------  -----------------
         B            0.000000000000     0.000000000000     1.261661393159    11.009305360000
         AL           0.000000000000     0.000000000000    -0.514797016588    26.981538530000

  Running in c2v symmetry.

  Rotational constants: A = ************  B =      0.68319  C =      0.68319 [cm^-1]
  Rotational constants: A = ************  B =  20481.38982  C =  20481.38982 [MHz]
  Nuclear repulsion =   19.362411472638964

  Charge       = 1
  Multiplicity = 4
  Electrons    = 17
  Nalpha       = 10
  Nbeta        = 7

  ==> Algorithm <==

  SCF Algorithm Type is DF.
  DIIS enabled.
  MOM disabled.
  Fractional occupation disabled.
  Guess Type is READ.
  Energy threshold   = 1.00e-08
  Density threshold  = 1.00e-08
  Integral threshold = 1.00e-12

  ==> Primary Basis <==

  Basis Set: CC-PVDZ
    Blend: CC-PVDZ
    Number of shells: 14
    Number of basis functions: 32
    Number of Cartesian functions: 34
    Spherical Harmonics?: true
    Max angular momentum: 2

  ==> DFT Potential <==

   => LibXC <=

    Version 6.2.2
    S. Lehtola, C. Steigemann, M. J.T. Oliveira, and M. A.L. Marques.,  SoftwareX 7, 1–5 (2018) (10.1016/j.softx.2017.11.002)

   => Composite Functional: B3LYP <= 

    B3LYP Hyb-GGA Exchange-Correlation Functional

[...]
	-------------------------------------------------------------------------------

	                                 ==> Convergence Check <==                                  
    
	Measures of convergence in internal coordinates in au.
    
	Criteria marked as inactive (o), active & met (*), and active & unmet ( ).

	----------------------------------------------------------------------------------------------
	   Step    Total Energy     Delta E     Max Force     RMS Force      Max Disp      RMS Disp   
	----------------------------------------------------------------------------------------------
	  Convergence Criteria     1.00e-06 *    3.00e-04 *             o    1.20e-03 *             o
	----------------------------------------------------------------------------------------------
	    10    -266.77129426   -5.77e-06      4.27e-04      4.27e-04 o    2.32e-03      2.32e-03 o  ~
	----------------------------------------------------------------------------------------------

Next Geometry in Ang 
	Fragment 1 (Ang)

	    B   0.0000000000   0.0000000000   1.3822880680
	   Al   0.0000000000   0.0000000000  -0.5643799678


    Structure for next step:
    Molecular point group: c2v
    Full point group: C_inf_v

    Geometry (in Angstrom), charge = 1, multiplicity = 4:

    B            0.000000000000     0.000000000000     1.382546246262
    AL           0.000000000000     0.000000000000    -0.564121789515


Scratch directory: /tmp/
gradient() will perform analytic gradient computation.
   => Libint2 <=

    Primary   basis highest AM E, G, H:  6, 6, 3
    Auxiliary basis highest AM E, G, H:  7, 7, 4
    Onebody   basis highest AM E, G, H:  -, -, -
    Solid Harmonics ordering:            Gaussian

*** tstart() called on Joses-MacBook-Pro-2.local
*** at Thu Jul 17 13:35:36 2025

   => Loading Basis Set <=

    Name: CC-PVDZ
    Role: ORBITAL
    Keyword: BASIS
    atoms 1 entry B          line   108 file /Users/joseantoniorodriguesromero/anaconda3/share/psi4/basis/cc-pvdz.gbs 
    atoms 2 entry AL         line   418 file /Users/joseantoniorodriguesromero/anaconda3/share/psi4/basis/cc-pvdz.gbs 


         ---------------------------------------------------------
                                   SCF
               by Justin Turney, Rob Parrish, Andy Simmonett
                          and Daniel G. A. Smith
                              UKS Reference
                        1 Threads,    500 MiB Core
         ---------------------------------------------------------

  ==> Geometry <==

    Molecular point group: c2v
    Full point group: C_inf_v

    Geometry (in Angstrom), charge = 1, multiplicity = 4:

       Center              X                  Y                   Z               Mass       
    ------------   -----------------  -----------------  -----------------  -----------------
         B            0.000000000000     0.000000000000     1.382546246262    11.009305360000
         AL           0.000000000000     0.000000000000    -0.564121789515    26.981538530000

  Running in c2v symmetry.

  Rotational constants: A = ************  B =      0.56894  C =      0.56894 [cm^-1]
  Rotational constants: A = ************  B =  17056.33496  C =  17056.33496 [MHz]
  Nuclear repulsion =   17.669432107269856

  Charge       = 1
  Multiplicity = 4
  Electrons    = 17
  Nalpha       = 10
  Nbeta        = 7

  ==> Algorithm <==

  SCF Algorithm Type is DF.
  DIIS enabled.
  MOM disabled.
  Fractional occupation disabled.
  Guess Type is READ.
  Energy threshold   = 1.00e-08
  Density threshold  = 1.00e-08
  Integral threshold = 1.00e-12

  ==> Primary Basis <==

  Basis Set: CC-PVDZ
    Blend: CC-PVDZ
    Number of shells: 14
    Number of basis functions: 32
    Number of Cartesian functions: 34
    Spherical Harmonics?: true
    Max angular momentum: 2

  ==> DFT Potential <==

   => LibXC <=

    Version 6.2.2
    S. Lehtola, C. Steigemann, M. J.T. Oliveira, and M. A.L. Marques.,  SoftwareX 7, 1–5 (2018) (10.1016/j.softx.2017.11.002)

   => Composite Functional: B3LYP <= 

    B3LYP Hyb-GGA Exchange-Correlation Functional

    P. J. Stephens, F. J. Devlin, C. F. Chabalowski, and M. J. Frisch.,  J. Phys. Chem. 98, 11623 (1994) (10.1021/j100096a001)

    Deriv               =              1
    GGA                 =           TRUE
    Meta                =          FALSE

    Exchange Hybrid     =           TRUE
    MP2 Hybrid          =          FALSE

   => Exchange Functionals <=

    0.0800   Slater exchange
    0.7200         Becke 88

   => Exact (HF) Exchange <=

    0.2000               HF 

   => Correlation Functionals <=

    0.1900   Vosko, Wilk & Nusair (VWN5_RPA)
    0.8100   Lee, Yang & Parr

   => LibXC Density Thresholds  <==

    XC_HYB_GGA_XC_B3LYP:  1.00E-15 

   => Molecular Quadrature <=

    Radial Scheme          =       TREUTLER
    Pruning Scheme         =           NONE
    Nuclear Scheme         =       TREUTLER

    Blocking Scheme        =         OCTREE
    BS radius alpha        =              1
    Pruning alpha          =              1
    Radial Points          =             75
    Spherical Points       =            302
    Total Points           =          42967
    Total Blocks           =            405
    Max Points             =            254
    Max Functions          =             32
    Weights Tolerance      =       1.00E-15

   => Loading Basis Set <=

    Name: (CC-PVDZ AUX)
    Role: JKFIT
    Keyword: DF_BASIS_SCF
    atoms 1 entry B          line    71 file /Users/joseantoniorodriguesromero/anaconda3/share/psi4/basis/cc-pvdz-jkfit.gbs 
    atoms 2 entry AL         line   371 file /Users/joseantoniorodriguesromero/anaconda3/share/psi4/basis/cc-pvdz-jkfit.gbs 

   => Loading Basis Set <=

    Name: CC-PVDZ
    Role: ORBITAL
    Keyword: BASIS
    atoms 1 entry B          line   108 file /Users/joseantoniorodriguesromero/anaconda3/share/psi4/basis/cc-pvdz.gbs 
    atoms 2 entry AL         line   418 file /Users/joseantoniorodriguesromero/anaconda3/share/psi4/basis/cc-pvdz.gbs 

  Reading orbitals from file /tmp/quartet_BAl.default.74263.180.npy, no projection.

  ==> Integral Setup <==

  DFHelper Memory: AOs need 0.002 GiB; user supplied 0.327 GiB. 
  Using in-core AOs.

  ==> MemDFJK: Density-Fitted J/K Matrices <==

    J tasked:                   Yes
    K tasked:                   Yes
    wK tasked:                   No
    OpenMP threads:               1
    Memory [MiB]:               334
    Algorithm:                 Core
    Schwarz Cutoff:           1E-12
    Mask sparsity (%):       0.0000
    Fitting Condition:        1E-10

   => Auxiliary Basis Set <=

  Basis Set: (CC-PVDZ AUX)
    Blend: CC-PVDZ-JKFIT
    Number of shells: 60
    Number of basis functions: 182
    Number of Cartesian functions: 211
    Spherical Harmonics?: true
    Max angular momentum: 3

  Cached 100.0% of DFT collocation blocks in 0.040 [GiB].

  Minimum eigenvalue in the overlap matrix is 1.2607391525E-02.
  Reciprocal condition number of the overlap matrix is 4.0168577146E-03.
    Using symmetric orthogonalization.

  ==> Pre-Iterations <==

  SCF Guess: Orbitals guess was supplied from a previous computation.

   -------------------------------------------------------
    Irrep   Nso     Nmo     Nalpha   Nbeta   Ndocc  Nsocc
   -------------------------------------------------------
     A1        16      16       6       5       5       1
     A2         2       2       0       0       0       0
     B1         7       7       2       1       1       1
     B2         7       7       2       1       1       1
   -------------------------------------------------------
    Total      32      32      10       7       7       3
   -------------------------------------------------------

  ==> Iterations <==

                           Total Energy        Delta E     RMS |[F,P]|

   @DF-UKS iter   0:  -266.77078791962765   -2.66771e+02   7.92414e-05 
   @DF-UKS iter   1:  -266.77129478138198   -5.06862e-04   9.21150e-06 DIIS
   @DF-UKS iter   2:  -266.77129469760825    8.37737e-08   1.68664e-05 DIIS/DAMP=1%
   @DF-UKS iter   3:  -266.77129674486929   -2.04726e-06   2.19707e-06 DIIS/DAMP=1%
   @DF-UKS iter   4:  -266.77129362577625    3.11909e-06   2.83696e-07 DIIS/DAMP=1%
   @DF-UKS iter   5:  -266.77129488426255   -1.25849e-06   4.74130e-08 DIIS/DAMP=1%
   @DF-UKS iter   6:  -266.77129481940847    6.48541e-08   1.43023e-08 DIIS/DAMP=1%
   @DF-UKS iter   7:  -266.77129482138275   -1.97429e-09   3.50609e-09 DIIS/DAMP=1%
  Energy and wave function converged.


  ==> Post-Iterations <==

   Electrons on quadrature grid:
      Nalpha   =   10.0000003339 ; deviation = 3.339e-07
      Nbeta    =    7.0000004993 ; deviation = 4.993e-07
      Ntotal   =   17.0000008333 ; deviation = 8.333e-07 

   @Spin Contamination Metric:   1.591247181E-02
   @S^2 Expected:                3.750000000E+00
   @S^2 Observed:                3.765912472E+00
   @S   Expected:                1.500000000E+00
   @S   Observed:                1.500000000E+00

    Orbital Energies [Eh]
    ---------------------

    Alpha Occupied:                                                       

       1A1   -56.390625     2A1    -7.093959     3A1    -4.466048  
       1B1    -3.018491     1B2    -3.018491     4A1    -3.017921  
       5A1    -0.722910     6A1    -0.544664     2B1    -0.447218  
       2B2    -0.447218  

    Alpha Virtual:                                                        

       7A1    -0.383442     3B1    -0.275796     3B2    -0.275796  
       8A1    -0.148830     9A1    -0.043175     4B1    -0.000865  
       4B2    -0.000865     1A2     0.007912    10A1     0.007912  
      11A1     0.026846    12A1     0.062025     5B2     0.071207  
       5B1     0.071207     6B2     0.112723     6B1     0.112723  
      13A1     0.339614    14A1     0.416225    15A1     0.470068  
       2A2     0.470068     7B2     0.640983     7B1     0.640983  
      16A1     0.846075  

    Beta Occupied:                                                        

       1A1   -56.386242     2A1    -7.070816     3A1    -4.459355  
       4A1    -3.013477     1B1    -3.011521     1B2    -3.011521  
       5A1    -0.653388  

    Beta Virtual:                                                         

       6A1    -0.420461     2B1    -0.322715     2B2    -0.322715  
       7A1    -0.319223     3B1    -0.203452     3B2    -0.203452  
       8A1    -0.123829     9A1    -0.024541     4B1     0.017679  
       4B2     0.017679    10A1     0.052333     1A2     0.052333  
      11A1     0.060264    12A1     0.083839     5B2     0.118048  
       5B1     0.118048     6B2     0.157851     6B1     0.157851  
      13A1     0.376652    14A1     0.453505    15A1     0.556449  
       2A2     0.556450     7B2     0.704876     7B1     0.704876  
      16A1     0.890138  

    Final Occupation by Irrep:
             A1    A2    B1    B2 
    DOCC [     5,    0,    1,    1 ]
    SOCC [     1,    0,    1,    1 ]
    NA   [     6,    0,    2,    2 ]
    NB   [     5,    0,    1,    1 ]

  @DF-UKS Final Energy:  -266.77129482138275

   => Energetics <=

    Nuclear Repulsion Energy =             17.6694321072698557
    One-Electron Energy =                -399.2327733596818007
    Two-Electron Energy =                 132.8040970191493670
    DFT Exchange-Correlation Energy =     -18.0120505881201751
    Empirical Dispersion Energy =           0.0000000000000000
    VV10 Nonlocal Energy =                  0.0000000000000000
    Total Energy =                       -266.7712948213827531

  UHF NO Occupations:
  HONO-2 :    2 B1 1.0000000
  HONO-1 :    2 B2 1.0000000
  HONO-0 :    6 A1 1.0000000
  LUNO+0 :    7 A1 0.0079864
  LUNO+1 :    3 B1 0.0000005
  LUNO+2 :    3 B2 0.0000005
  LUNO+3 :    8 A1 0.0000004


Computation Completed


Properties will be evaluated at   0.000000,   0.000000,   0.000000 [a0]

Properties computed using the SCF density matrix


 Multipole Moments:

 ------------------------------------------------------------------------------------
     Multipole            Electronic (a.u.)      Nuclear  (a.u.)        Total (a.u.)
 ------------------------------------------------------------------------------------

 L = 1.  Multiply by 2.5417464519 to convert [e a0] to [Debye]
 Dipole X            :          0.0000000            0.0000000            0.0000000
 Dipole Y            :          0.0000000            0.0000000            0.0000000
 Dipole Z            :          0.1424180           -0.7952951           -0.6528770
 Magnitude           :                                                    0.6528770

 ------------------------------------------------------------------------------------

*** tstop() called on Joses-MacBook-Pro-2.local at Thu Jul 17 13:35:36 2025
Module time:
	user time   =       2.93 seconds =       0.05 minutes
	system time =       3.36 seconds =       0.06 minutes
	total time  =          0 seconds =       0.00 minutes
Total time:
	user time   =      59.23 seconds =       0.99 minutes
	system time =      56.49 seconds =       0.94 minutes
	total time  =         12 seconds =       0.20 minutes

*** tstart() called on Joses-MacBook-Pro-2.local
*** at Thu Jul 17 13:35:36 2025


         ------------------------------------------------------------
                                   SCF GRAD                          
                          Rob Parrish, Justin Turney,                
                       Andy Simmonett, and Alex Sokolov              
         ------------------------------------------------------------

  ==> Geometry <==

    Molecular point group: c2v
    Full point group: C_inf_v

    Geometry (in Angstrom), charge = 1, multiplicity = 4:

       Center              X                  Y                   Z               Mass       
    ------------   -----------------  -----------------  -----------------  -----------------
         B            0.000000000000     0.000000000000     1.382546246262    11.009305360000
         AL           0.000000000000     0.000000000000    -0.564121789515    26.981538530000

  Nuclear repulsion =   17.669432107269856

  ==> Basis Set <==

  Basis Set: CC-PVDZ
    Blend: CC-PVDZ
    Number of shells: 14
    Number of basis functions: 32
    Number of Cartesian functions: 34
    Spherical Harmonics?: true
    Max angular momentum: 2

  ==> DFJKGrad: Density-Fitted SCF Gradients <==

    Gradient:                    1
    J tasked:                  Yes
    K tasked:                  Yes
    wK tasked:                  No
    OpenMP threads:              1
    Integrals threads:           1
    Memory [MiB]:              375
    Schwarz Cutoff:          1E-12
    Fitting Condition:       1E-10

   => Auxiliary Basis Set <=

  Basis Set: (CC-PVDZ AUX)
    Blend: CC-PVDZ-JKFIT
    Number of shells: 60
    Number of basis functions: 182
    Number of Cartesian functions: 211
    Spherical Harmonics?: true
    Max angular momentum: 3

  ==> DFT Potential <==

   => LibXC <=

    Version 6.2.2
    S. Lehtola, C. Steigemann, M. J.T. Oliveira, and M. A.L. Marques.,  SoftwareX 7, 1–5 (2018) (10.1016/j.softx.2017.11.002)

   => Composite Functional: B3LYP <= 

    B3LYP Hyb-GGA Exchange-Correlation Functional

    P. J. Stephens, F. J. Devlin, C. F. Chabalowski, and M. J. Frisch.,  J. Phys. Chem. 98, 11623 (1994) (10.1021/j100096a001)

    Deriv               =              1
    GGA                 =           TRUE
    Meta                =          FALSE

    Exchange Hybrid     =           TRUE
    MP2 Hybrid          =          FALSE

   => Exchange Functionals <=

    0.0800   Slater exchange
    0.7200         Becke 88

   => Exact (HF) Exchange <=

    0.2000               HF 

   => Correlation Functionals <=

    0.1900   Vosko, Wilk & Nusair (VWN5_RPA)
    0.8100   Lee, Yang & Parr

   => LibXC Density Thresholds  <==

    XC_HYB_GGA_XC_B3LYP:  1.00E-15 

   => Molecular Quadrature <=

    Radial Scheme          =       TREUTLER
    Pruning Scheme         =           NONE
    Nuclear Scheme         =       TREUTLER

    Blocking Scheme        =         OCTREE
    BS radius alpha        =              1
    Pruning alpha          =              1
    Radial Points          =             75
    Spherical Points       =            302
    Total Points           =          42967
    Total Blocks           =            405
    Max Points             =            254
    Max Functions          =             32
    Weights Tolerance      =       1.00E-15


  -Total Gradient:
     Atom            X                  Y                   Z
    ------   -----------------  -----------------  -----------------
       1        0.000000000000     0.000000000000    -0.000066730514
       2        0.000000000000     0.000000000000     0.000058711433


*** tstop() called on Joses-MacBook-Pro-2.local at Thu Jul 17 13:35:36 2025
Module time:
	user time   =       0.81 seconds =       0.01 minutes
	system time =       1.62 seconds =       0.03 minutes
	total time  =          0 seconds =       0.00 minutes
Total time:
	user time   =      60.04 seconds =       1.00 minutes
	system time =      58.11 seconds =       0.97 minutes
	total time  =         12 seconds =       0.20 minutes

    			-----------------------------------------

    			 OPTKING 3.0: for geometry optimizations 

    			     By R.A. King, Bethel University     

    			        with contributions from          

    			    A.V. Copan, J. Cayton, A. Heide      

    			-----------------------------------------

    
	                            ===> Fragment 1 <== 

	 Z (Atomic Numbers)          Masses                          Geom                  
	       5.000000            11.009305          0.00000000  0.00000000  2.61263376   
	      13.000000            26.981539          0.00000000  0.00000000 -1.06603568   

	 - Coordinate -           - BOHR/RAD -       - ANG/DEG -
	 R(1,2)           =         3.678669           1.946668


	        --- Internal Coordinate Step in ANG or DEG, aJ/ANG or AJ/DEG ---
	-------------------------------------------------------------------------------
	           Coordinate      Previous         Force          Change          New 
	           ----------      --------        ------          ------        ------
	               R(1,2)       1.94667        0.00052        0.00020       1.94687
	-------------------------------------------------------------------------------

	                                 ==> Convergence Check <==                                  
    
	Measures of convergence in internal coordinates in au.
    
	Criteria marked as inactive (o), active & met (*), and active & unmet ( ).

	----------------------------------------------------------------------------------------------
	   Step    Total Energy     Delta E     Max Force     RMS Force      Max Disp      RMS Disp   
	----------------------------------------------------------------------------------------------
	  Convergence Criteria     1.00e-06 *    3.00e-04 *             o    1.20e-03 *             o
	----------------------------------------------------------------------------------------------
	    11    -266.77129482   -5.59e-07 *    6.27e-05 *    6.27e-05 o    3.73e-04 *    3.73e-04 o  ~
	----------------------------------------------------------------------------------------------

Next Geometry in Ang 
	Fragment 1 (Ang)

	    B   0.0000000000   0.0000000000   1.3826449841
	   Al   0.0000000000   0.0000000000  -0.5642205273


    Final optimized geometry and variables:
    Molecular point group: c2v
    Full point group: C_inf_v

    Geometry (in Angstrom), charge = 1, multiplicity = 4:

    B            0.000000000000     0.000000000000     1.382546246262
    AL           0.000000000000     0.000000000000    -0.564121789515


    Psi4 stopped on: Thursday, 17 July 2025 01:35PM
    Psi4 wall time for execution: 0:00:13.63

*** Psi4 exiting successfully. Buy a developer a beer!
