
    -----------------------------------------------------------------------
          Psi4: An Open-Source Ab Initio Electronic Structure Package
                               Psi4 1.9.1 release

                         Git: Rev {} zzzzzzz 


    D. G. A. Smith, L. A. Burns, A. C. Simmonett, R. M. Parrish,
    M. C. Schieber, R. Galvelis, P. Kraus, H. Kruse, R. Di Remigio,
    A. Alenaizan, A. M. James, S. Lehtola, J. P. Misiewicz, M. Scheurer,
    R. A. Shaw, J. B. Schriber, Y. Xie, Z. L. Glick, D. A. Sirianni,
    J. S. O'Brien, J. M. Waldrop, A. Kumar, E. G. Hohenstein,
    B. P. Pritchard, B. R. Brooks, H. F. Schaefer III, A. Yu. Sokolov,
    K. Patkowski, A. E. DePrince III, U. Bozkaya, R. A. King,
    F. A. Evangelista, J. M. Turney, T. D. Crawford, C. D. Sherrill,
    J. Chem. Phys. 152(18) 184108 (2020). https://doi.org/10.1063/5.0006002

                            Additional Code Authors
    E. T. Seidl, C. L. Janssen, E. F. Valeev, M. L. Leininger,
    J. F. Gonthier, R. M. Richard, H. R. McAlexander, M. Saitow, X. Wang,
    P. Verma, M. H. Lechner, A. Jiang, S. Behnle, A. G. Heide,
    M. F. Herbst, and D. L. Poole

             Previous Authors, Complete List of Code Contributors,
                       and Citations for Specific Modules
    https://github.com/psi4/psi4/blob/master/codemeta.json
    https://github.com/psi4/psi4/graphs/contributors
    http://psicode.org/psi4manual/master/introduction.html#citing-psifour

    -----------------------------------------------------------------------


    Psi4 started on: Thursday, 17 July 2025 03:18PM

    Process ID: 75244
    Host:       Joses-MacBook-Pro-2.local
    PSIDATADIR: /Users/joseantoniorodriguesromero/anaconda3/share/psi4
    Memory:     500.0 MiB
    Threads:    1
    
  ==> Input File <==

--------------------------------------------------------------------------
molecule { 
1 4
Al   0.00000        0.60000        0.00000
P   0.00000       -0.60000        0.00000
}

set { 
basis              cc-pvdz
reference          uks
maxiter            500
geom_maxiter       500
DAMPING_PERCENTAGE 1
guess              SAP
}

optimize('b3lyp')
--------------------------------------------------------------------------

Scratch directory: /tmp/
gradient() will perform analytic gradient computation.
   => Libint2 <=

    Primary   basis highest AM E, G, H:  6, 6, 3
    Auxiliary basis highest AM E, G, H:  7, 7, 4
    Onebody   basis highest AM E, G, H:  -, -, -
    Solid Harmonics ordering:            Gaussian

*** tstart() called on Joses-MacBook-Pro-2.local
*** at Thu Jul 17 15:18:07 2025

   => Loading Basis Set <=

    Name: CC-PVDZ
    Role: ORBITAL
    Keyword: BASIS
    atoms 1 entry AL         line   418 file /Users/joseantoniorodriguesromero/anaconda3/share/psi4/basis/cc-pvdz.gbs 
    atoms 2 entry P          line   538 file /Users/joseantoniorodriguesromero/anaconda3/share/psi4/basis/cc-pvdz.gbs 


         ---------------------------------------------------------
                                   SCF
               by Justin Turney, Rob Parrish, Andy Simmonett
                          and Daniel G. A. Smith
                              UKS Reference
                        1 Threads,    500 MiB Core
         ---------------------------------------------------------

  ==> Geometry <==

    Molecular point group: c2v
    Full point group: C_inf_v

    Geometry (in Angstrom), charge = 1, multiplicity = 4:

       Center              X                  Y                   Z               Mass       
    ------------   -----------------  -----------------  -----------------  -----------------
         AL           0.000000000000     0.000000000000     0.641330716245    26.981538530000
         P            0.000000000000     0.000000000000    -0.558669283755    30.973761998420

  Running in c2v symmetry.

  Rotational constants: A = ************  B =      0.81183  C =      0.81183 [cm^-1]
  Rotational constants: A = ************  B =  24338.12977  C =  24338.12977 [MHz]
  Nuclear repulsion =   85.991296733875018

  Charge       = 1
  Multiplicity = 4
  Electrons    = 27
  Nalpha       = 15
  Nbeta        = 12

  ==> Algorithm <==

  SCF Algorithm Type is DF.
  DIIS enabled.
  MOM disabled.
  Fractional occupation disabled.
  Guess Type is SAP.
  Energy threshold   = 1.00e-08
  Density threshold  = 1.00e-08
  Integral threshold = 1.00e-12

  ==> Primary Basis <==

  Basis Set: CC-PVDZ
    Blend: CC-PVDZ
    Number of shells: 16
    Number of basis functions: 36
    Number of Cartesian functions: 38
    Spherical Harmonics?: true
    Max angular momentum: 2

  ==> DFT Potential <==

   => LibXC <=

    Version 6.2.2
    S. Lehtola, C. Steigemann, M. J.T. Oliveira, and M. A.L. Marques.,  SoftwareX 7, 1–5 (2018) (10.1016/j.softx.2017.11.002)

   => Composite Functional: B3LYP <= 

    B3LYP Hyb-GGA Exchange-Correlation Functional

    P. J. Stephens, F. J. Devlin, C. F. Chabalowski, and M. J. Frisch.,  J. Phys. Chem. 98, 11623 (1994) (10.1021/j100096a001)

    Deriv               =              1
    GGA                 =           TRUE
    Meta                =          FALSE

    Exchange Hybrid     =           TRUE
    MP2 Hybrid          =          FALSE

   => Exchange Functionals <=

    0.0800   Slater exchange
    0.7200         Becke 88

   => Exact (HF) Exchange <=

    0.2000               HF 

   => Correlation Functionals <=

    0.1900   Vosko, Wilk & Nusair (VWN5_RPA)
    0.8100   Lee, Yang & Parr

   => LibXC Density Thresholds  <==

    XC_HYB_GGA_XC_B3LYP:  1.00E-15 

   => Molecular Quadrature <=

    Radial Scheme          =       TREUTLER
    Pruning Scheme         =           NONE
    Nuclear Scheme         =       TREUTLER

    Blocking Scheme        =         OCTREE
    BS radius alpha        =              1
    Pruning alpha          =              1
    Radial Points          =             75
    Spherical Points       =            302
    Total Points           =          42559
    Total Blocks           =            402
    Max Points             =            253
    Max Functions          =             36
    Weights Tolerance      =       1.00E-15

   => Loading Basis Set <=

    Name: (CC-PVDZ AUX)
    Role: JKFIT
    Keyword: DF_BASIS_SCF
    atoms 1 entry AL         line   371 file /Users/joseantoniorodriguesromero/anaconda3/share/psi4/basis/cc-pvdz-jkfit.gbs 
    atoms 2 entry P          line   519 file /Users/joseantoniorodriguesromero/anaconda3/share/psi4/basis/cc-pvdz-jkfit.gbs 

  ==> Integral Setup <==

  DFHelper Memory: AOs need 0.003 GiB; user supplied 0.323 GiB. 
  Using in-core AOs.

  ==> MemDFJK: Density-Fitted J/K Matrices <==

    J tasked:                   Yes
    K tasked:                   Yes
    wK tasked:                   No
    OpenMP threads:               1
    Memory [MiB]:               330
    Algorithm:                 Core
    Schwarz Cutoff:           1E-12
    Mask sparsity (%):       0.0000
    Fitting Condition:        1E-10

   => Auxiliary Basis Set <=

  Basis Set: (CC-PVDZ AUX)
    Blend: CC-PVDZ-JKFIT
    Number of shells: 72
    Number of basis functions: 224
    Number of Cartesian functions: 260
    Spherical Harmonics?: true
    Max angular momentum: 3

  Cached 100.0% of DFT collocation blocks in 0.044 [GiB].

  Minimum eigenvalue in the overlap matrix is 3.6000847872E-03.
  Reciprocal condition number of the overlap matrix is 1.1170376721E-03.
    Using symmetric orthogonalization.

  ==> Pre-Iterations <==

  SCF Guess: Superposition of Atomic Potentials (doi:10.1021/acs.jctc.8b01089).

  ==> SAP guess <==

   => Molecular Quadrature <=

    Radial Scheme          =       TREUTLER
    Pruning Scheme         =           NONE
    Nuclear Scheme         =       TREUTLER

    Blocking Scheme        =         OCTREE
    BS radius alpha        =              1
    Pruning alpha          =              1
    Radial Points          =             75
    Spherical Points       =            302
    Total Points           =          42559
    Total Blocks           =            402
    Max Points             =            253
    Max Functions          =             36
    Weights Tolerance      =       1.00E-15

   -------------------------------------------------------
    Irrep   Nso     Nmo     Nalpha   Nbeta   Ndocc  Nsocc
   -------------------------------------------------------
     A1        18      18       9       7       7       2
     A2         2       2       0       0       0       0
     B1         8       8       3       3       3       0
     B2         8       8       3       2       2       1
   -------------------------------------------------------
    Total      36      36      15      12      12       3
   -------------------------------------------------------

  ==> Iterations <==

                           Total Energy        Delta E     RMS |[F,P]|

   @DF-UKS iter   1:  -582.09388799707494   -5.82094e+02   1.57301e-02 ADIIS/DIIS
   @DF-UKS iter   2:  -582.15763548473979   -6.37475e-02   9.09767e-03 ADIIS/DIIS/DAMP=1%
   @DF-UKS iter   3:  -582.17037741259617   -1.27419e-02   8.14271e-04 ADIIS/DIIS/DAMP=1%
   @DF-UKS iter   4:  -582.18627815336652   -1.59007e-02   2.78414e-04 ADIIS/DIIS/DAMP=1%
   @DF-UKS iter   5:  -582.18547138576571    8.06768e-04   5.85062e-05 DIIS/DAMP=1%
   @DF-UKS iter   6:  -582.18540983394212    6.15518e-05   3.16724e-06 DIIS/DAMP=1%
   @DF-UKS iter   7:  -582.18544740346874   -3.75695e-05   7.46317e-07 DIIS/DAMP=1%
   @DF-UKS iter   8:  -582.18544626905907    1.13441e-06   9.93240e-08 DIIS/DAMP=1%
   @DF-UKS iter   9:  -582.18544617569580    9.33633e-08   6.37522e-09 DIIS/DAMP=1%
   @DF-UKS iter  10:  -582.18544616118663    1.45092e-08   9.10355e-10 DIIS/DAMP=1%
   @DF-UKS iter  11:  -582.18544616784936   -6.66273e-09   1.33803e-10 DIIS/DAMP=1%
  Energy and wave function converged.


  ==> Post-Iterations <==

   Electrons on quadrature grid:
      Nalpha   =   14.9999981821 ; deviation = -1.818e-06
      Nbeta    =   11.9999982941 ; deviation = -1.706e-06
      Ntotal   =   26.9999964761 ; deviation = -3.524e-06 

   @Spin Contamination Metric:   2.890032880E-03
   @S^2 Expected:                3.750000000E+00
   @S^2 Observed:                3.752890033E+00
   @S   Expected:                1.500000000E+00
   @S   Observed:                1.500000000E+00

    Orbital Energies [Eh]
    ---------------------

    Alpha Occupied:                                                       

       1A1   -77.468931     2A1   -56.475474     3A1    -7.003888  
       4A1    -5.199211     1B2    -5.147799     1B1    -5.130382  
       5A1    -4.643160     6A1    -3.225204     2B2    -3.166873  
       2B1    -3.157608     7A1    -0.960846     3B2    -0.667044  
       3B1    -0.619502     8A1    -0.604175     9A1    -0.425293  

    Alpha Virtual:                                                        

       4B2    -0.245987     4B1    -0.228832    10A1    -0.142137  
       1A2    -0.089116    11A1    -0.088413     5B2    -0.088180  
       5B1    -0.071262    12A1    -0.034517     6B2     0.067794  
       6B1     0.079663    13A1     0.087544    14A1     0.096691  
       7B2     0.230586     7B1     0.253954    15A1     0.287515  
       2A2     0.287767    16A1     0.320072     8B2     0.551916  
       8B1     0.573489    17A1     0.743703    18A1     1.461023  

    Beta Occupied:                                                        

       1A1   -77.458350     2A1   -56.466186     3A1    -6.992396  
       4A1    -5.178121     1B2    -5.127734     1B1    -5.123609  
       5A1    -4.630545     6A1    -3.206055     2B2    -3.152763  
       2B1    -3.150087     7A1    -0.877442     3B1    -0.592190  

    Beta Virtual:                                                         

       3B2    -0.514342     8A1    -0.452568     9A1    -0.279157  
       4B1    -0.190634     4B2    -0.187136    10A1    -0.123105  
       5B1    -0.054059     5B2    -0.052566     1A2    -0.050190  
      11A1    -0.046744    12A1    -0.000044     6B1     0.123251  
       6B2     0.124749    13A1     0.135553    14A1     0.158305  
       7B1     0.280217     7B2     0.281162     2A2     0.330721  
      15A1     0.334373    16A1     0.361438     8B1     0.615212  
       8B2     0.616007    17A1     0.793971    18A1     1.492094  

    Final Occupation by Irrep:
             A1    A2    B1    B2 
    DOCC [     7,    0,    3,    2 ]
    SOCC [     2,    0,    0,    1 ]
    NA   [     9,    0,    3,    3 ]
    NB   [     7,    0,    3,    2 ]

  @DF-UKS Final Energy:  -582.18544616784936

   => Energetics <=

    Nuclear Repulsion Energy =             85.9912967338750178
    One-Electron Energy =                -966.3498626806394896
    Two-Electron Energy =                 332.0893529668500150
    DFT Exchange-Correlation Energy =     -33.9162331879348997
    Empirical Dispersion Energy =           0.0000000000000000
    VV10 Nonlocal Energy =                  0.0000000000000000
    Total Energy =                       -582.1854461678493635

  UHF NO Occupations:
  HONO-2 :    8 A1 1.0000000
  HONO-1 :    3 B2 1.0000000
  HONO-0 :    9 A1 1.0000000
  LUNO+0 :   10 A1 0.0012506
  LUNO+1 :    4 B1 0.0001936
  LUNO+2 :    4 B2 0.0000006
  LUNO+3 :    5 B1 0.0000004


Computation Completed


Properties will be evaluated at   0.000000,   0.000000,   0.000000 [a0]

Properties computed using the SCF density matrix


 Multipole Moments:

 ------------------------------------------------------------------------------------
     Multipole            Electronic (a.u.)      Nuclear  (a.u.)        Total (a.u.)
 ------------------------------------------------------------------------------------

 L = 1.  Multiply by 2.5417464519 to convert [e a0] to [Debye]
 Dipole X            :          0.0000000            0.0000000            0.0000000
 Dipole Y            :          0.0000000            0.0000000            0.0000000
 Dipole Z            :          0.1130645           -0.0807668            0.0322977
 Magnitude           :                                                    0.0322977

 ------------------------------------------------------------------------------------

*** tstop() called on Joses-MacBook-Pro-2.local at Thu Jul 17 15:18:09 2025
Module time:
	user time   =      16.01 seconds =       0.27 minutes
	system time =       1.01 seconds =       0.02 minutes
	total time  =          2 seconds =       0.03 minutes
Total time:
	user time   =      16.01 seconds =       0.27 minutes
	system time =       1.01 seconds =       0.02 minutes
	total time  =          2 seconds =       0.03 minutes

*** tstart() called on Joses-MacBook-Pro-2.local
*** at Thu Jul 17 15:18:09 2025


         ------------------------------------------------------------
                                   SCF GRAD                          
                          Rob Parrish, Justin Turney,                
                       Andy Simmonett, and Alex Sokolov              
         ------------------------------------------------------------

  ==> Geometry <==

    Molecular point group: c2v
    Full point group: C_inf_v

    Geometry (in Angstrom), charge = 1, multiplicity = 4:

       Center              X                  Y                   Z               Mass       
    ------------   -----------------  -----------------  -----------------  -----------------
         AL           0.000000000000     0.000000000000     0.641330716245    26.981538530000
         P            0.000000000000     0.000000000000    -0.558669283755    30.973761998420

  Nuclear repulsion =   85.991296733875018

  ==> Basis Set <==

  Basis Set: CC-PVDZ
    Blend: CC-PVDZ
    Number of shells: 16
    Number of basis functions: 36
    Number of Cartesian functions: 38
    Spherical Harmonics?: true
    Max angular momentum: 2

  ==> DFJKGrad: Density-Fitted SCF Gradients <==

    Gradient:                    1
    J tasked:                  Yes
    K tasked:                  Yes
    wK tasked:                  No
    OpenMP threads:              1
    Integrals threads:           1
    Memory [MiB]:              375
    Schwarz Cutoff:          1E-12
    Fitting Condition:       1E-10

   => Auxiliary Basis Set <=

  Basis Set: (CC-PVDZ AUX)
    Blend: CC-PVDZ-JKFIT
    Number of shells: 72
    Number of basis functions: 224
    Number of Cartesian functions: 260
    Spherical Harmonics?: true
    Max angular momentum: 3

  ==> DFT Potential <==

   => LibXC <=

    Version 6.2.2
    S. Lehtola, C. Steigemann, M. J.T. Oliveira, and M. A.L. Marques.,  SoftwareX 7, 1–5 (2018) (10.1016/j.softx.2017.11.002)

   => Composite Functional: B3LYP <= 

    B3LYP Hyb-GGA Exchange-Correlation Functional

    P. J. Stephens, F. J. Devlin, C. F. Chabalowski, and M. J. Frisch.,  J. Phys. Chem. 98, 11623 (1994) (10.1021/j100096a001)

    Deriv               =              1
    GGA                 =           TRUE
    Meta                =          FALSE

    Exchange Hybrid     =           TRUE
    MP2 Hybrid          =          FALSE

   => Exchange Functionals <=

    0.0800   Slater exchange
    0.7200         Becke 88

   => Exact (HF) Exchange <=

    0.2000               HF 

   => Correlation Functionals <=

    0.1900   Vosko, Wilk & Nusair (VWN5_RPA)
    0.8100   Lee, Yang & Parr

   => LibXC Density Thresholds  <==

    XC_HYB_GGA_XC_B3LYP:  1.00E-15 

   => Molecular Quadrature <=

    Radial Scheme          =       TREUTLER
    Pruning Scheme         =           NONE
    Nuclear Scheme         =       TREUTLER

    Blocking Scheme        =         OCTREE
    BS radius alpha        =              1
    Pruning alpha          =              1
    Radial Points          =             75
    Spherical Points       =            302
    Total Points           =          42559
    Total Blocks           =            402
    Max Points             =            253
    Max Functions          =             36
    Weights Tolerance      =       1.00E-15


  -Total Gradient:
     Atom            X                  Y                   Z
    ------   -----------------  -----------------  -----------------
       1       -0.000000000000     0.000000000000    -2.203931127013
       2       -0.000000000000     0.000000000000     2.203955861215


*** tstop() called on Joses-MacBook-Pro-2.local at Thu Jul 17 15:18:09 2025
Module time:
	user time   =       2.49 seconds =       0.04 minutes
	system time =       0.89 seconds =       0.01 minutes
	total time  =          0 seconds =       0.00 minutes
Total time:
	user time   =      18.50 seconds =       0.31 minutes
	system time =       1.90 seconds =       0.03 minutes
	total time  =          2 seconds =       0.03 minutes

    			-----------------------------------------

    			 OPTKING 3.0: for geometry optimizations 

    			     By R.A. King, Bethel University     

    			        with contributions from          

    			    A.V. Copan, J. Cayton, A. Heide      

    			-----------------------------------------

    
	                            ===> Fragment 1 <== 

	 Z (Atomic Numbers)          Masses                          Geom                  
	      13.000000            26.981539          0.00000000  0.00000000  1.21193941   
	      15.000000            30.973762          0.00000000  0.00000000 -1.05573194   

	 - Coordinate -           - BOHR/RAD -       - ANG/DEG -
	 R(1,2)           =         2.267671           1.200000


	        --- Internal Coordinate Step in ANG or DEG, aJ/ANG or AJ/DEG ---
	-------------------------------------------------------------------------------
	           Coordinate      Previous         Force          Change          New 
	           ----------      --------        ------          ------        ------
	               R(1,2)       1.20000       18.15768        0.00535       1.20535
	-------------------------------------------------------------------------------

	                                 ==> Convergence Check <==                                  
    
	Measures of convergence in internal coordinates in au.
    
	Criteria marked as inactive (o), active & met (*), and active & unmet ( ).

	----------------------------------------------------------------------------------------------
	   Step    Total Energy     Delta E     Max Force     RMS Force      Max Disp      RMS Disp   
	----------------------------------------------------------------------------------------------
	  Convergence Criteria     1.00e-06 *    3.00e-04 *             o    1.20e-03 *             o
	----------------------------------------------------------------------------------------------
	     1    -582.18544617   -5.82e+02      2.20e+00      2.20e+00 o    1.01e-02      1.01e-02 o  ~
	----------------------------------------------------------------------------------------------

Next Geometry in Ang 
	Fragment 1 (Ang)

	   Al   0.0000000000   0.0000000000   0.6440075741
	    P   0.0000000000   0.0000000000  -0.5613461416


    Structure for next step:
    Molecular point group: c2v
    Full point group: C_inf_v

    Geometry (in Angstrom), charge = 1, multiplicity = 4:

    AL           0.000000000000     0.000000000000     0.644191968197
    P            0.000000000000     0.000000000000    -0.561161747530


Scratch directory: /tmp/
gradient() will perform analytic gradient computation.
   => Libint2 <=

    Primary   basis highest AM E, G, H:  6, 6, 3
    Auxiliary basis highest AM E, G, H:  7, 7, 4
    Onebody   basis highest AM E, G, H:  -, -, -
    Solid Harmonics ordering:            Gaussian

*** tstart() called on Joses-MacBook-Pro-2.local
*** at Thu Jul 17 15:18:09 2025

   => Loading Basis Set <=

    Name: CC-PVDZ
    Role: ORBITAL
    Keyword: BASIS
    atoms 1 entry AL         line   418 file /Users/joseantoniorodriguesromero/anaconda3/share/psi4/basis/cc-pvdz.gbs 
    atoms 2 entry P          line   538 file /Users/joseantoniorodriguesromero/anaconda3/share/psi4/basis/cc-pvdz.gbs 


         ---------------------------------------------------------
                                   SCF
               by Justin Turney, Rob Parrish, Andy Simmonett
                          and Daniel G. A. Smith
                              UKS Reference
                        1 Threads,    500 MiB Core
         ---------------------------------------------------------

  ==> Geometry <==

    Molecular point group: c2v
    Full point group: C_inf_v

    Geometry (in Angstrom), charge = 1, multiplicity = 4:

       Center              X                  Y                   Z               Mass       
    ------------   -----------------  -----------------  -----------------  -----------------
         AL           0.000000000000     0.000000000000     0.644191968197    26.981538530000
         P            0.000000000000     0.000000000000    -0.561161747530    30.973761998420

  Running in c2v symmetry.

  Rotational constants: A = ************  B =      0.80464  C =      0.80464 [cm^-1]
  Rotational constants: A = ************  B =  24122.40876  C =  24122.40876 [MHz]
  Nuclear repulsion =   85.609356601495065

  Charge       = 1
  Multiplicity = 4
  Electrons    = 27
  Nalpha       = 15
  Nbeta        = 12

  ==> Algorithm <==

  SCF Algorithm Type is DF.
  DIIS enabled.
  MOM disabled.
  Fractional occupation disabled.
  Guess Type is READ.
  Energy threshold   = 1.00e-08
  Density threshold  = 1.00e-08
  Integral threshold = 1.00e-12

  ==> Primary Basis <==

  Basis Set: CC-PVDZ
    Blend: CC-PVDZ
    Number of shells: 16
    Number of basis functions: 36
    Number of Cartesian functions: 38
    Spherical Harmonics?: true
    Max angular momentum: 2

  ==> DFT Potential <==

   => LibXC <=

    Version 6.2.2
    S. Lehtola, C. Steigemann, M. J.T. Oliveira, and M. A.L. Marques.,  SoftwareX 7, 1–5 (2018) (10.1016/j.softx.2017.11.002)

   => Composite Functional: B3LYP <= 

    B3LYP Hyb-GGA Exchange-Correlation Functional

    P. J. Stephens, F. J. Devlin, C. F. Chabalowski, and M. J. Frisch.,  J. Phys. Chem. 98, 11623 (1994) (10.1021/j100096a001)

    Deriv               =              1
    GGA                 =           TRUE
    Meta                =          FALSE

    Exchange Hybrid     =           TRUE
    MP2 Hybrid          =          FALSE

   => Exchange Functionals <=

    0.0800   Slater exchange
    0.7200         Becke 88

   => Exact (HF) Exchange <=

    0.2000               HF 

   => Correlation Functionals <=

    0.1900   Vosko, Wilk & Nusair (VWN5_RPA)
    0.8100   Lee, Yang & Parr

   => LibXC Density Thresholds  <==

    XC_HYB_GGA_XC_B3LYP:  1.00E-15 

   => Molecular Quadrature <=

    Radial Scheme          =       TREUTLER
    Pruning Scheme         =           NONE
    Nuclear Scheme         =       TREUTLER

    Blocking Scheme        =         OCTREE
    BS radius alpha        =              1
    Pruning alpha          =              1
    Radial Points          =             75
    Spherical Points       =            302
    Total Points           =          42559
    Total Blocks           =            402
    Max Points             =            254
    Max Functions          =             36
    Weights Tolerance      =       1.00E-15

   => Loading Basis Set <=

    Name: (CC-PVDZ AUX)
    Role: JKFIT
    Keyword: DF_BASIS_SCF
    atoms 1 entry AL         line   371 file /Users/joseantoniorodriguesromero/anaconda3/share/psi4/basis/cc-pvdz-jkfit.gbs 
    atoms 2 entry P          line   519 file /Users/joseantoniorodriguesromero/anaconda3/share/psi4/basis/cc-pvdz-jkfit.gbs 

   => Loading Basis Set <=

    Name: CC-PVDZ
    Role: ORBITAL
    Keyword: BASIS
    atoms 1 entry AL         line   418 file /Users/joseantoniorodriguesromero/anaconda3/share/psi4/basis/cc-pvdz.gbs 
    atoms 2 entry P          line   538 file /Users/joseantoniorodriguesromero/anaconda3/share/psi4/basis/cc-pvdz.gbs 

  Reading orbitals from file /tmp/quartet_AlP.default.75244.180.npy, no projection.

  ==> Integral Setup <==

  DFHelper Memory: AOs need 0.003 GiB; user supplied 0.323 GiB. 
  Using in-core AOs.

  ==> MemDFJK: Density-Fitted J/K Matrices <==

    J tasked:                   Yes
    K tasked:                   Yes
    wK tasked:                   No
    OpenMP threads:               1
    Memory [MiB]:               330
    Algorithm:                 Core
    Schwarz Cutoff:           1E-12
    Mask sparsity (%):       0.0000
    Fitting Condition:        1E-10

   => Auxiliary Basis Set <=

  Basis Set: (CC-PVDZ AUX)
    Blend: CC-PVDZ-JKFIT
    Number of shells: 72
    Number of basis functions: 224
    Number of Cartesian functions: 260
    Spherical Harmonics?: true
    Max angular momentum: 3

  Cached 100.0% of DFT collocation blocks in 0.044 [GiB].

  Minimum eigenvalue in the overlap matrix is 3.6373635914E-03.
  Reciprocal condition number of the overlap matrix is 1.1286667161E-03.
    Using symmetric orthogonalization.

  ==> Pre-Iterations <==

  SCF Guess: Orbitals guess was supplied from a previous computation.

   -------------------------------------------------------
    Irrep   Nso     Nmo     Nalpha   Nbeta   Ndocc  Nsocc
   -------------------------------------------------------
     A1        18      18       9       7       7       2
     A2         2       2       0       0       0       0
     B1         8       8       3       3       3       0
     B2         8       8       3       2       2       1
   -------------------------------------------------------
    Total      36      36      15      12      12       3
   -------------------------------------------------------

  ==> Iterations <==

                           Total Energy        Delta E     RMS |[F,P]|

   @DF-UKS iter   0:  -582.20663587140211   -5.82207e+02   1.60002e-03 
   @DF-UKS iter   1:  -582.20756005639760   -9.24185e-04   9.27293e-05 DIIS
   @DF-UKS iter   2:  -582.20756185500829   -1.79861e-06   5.66880e-05 DIIS/DAMP=1%
   @DF-UKS iter   3:  -582.20762682815223   -6.49731e-05   4.73890e-06 DIIS/DAMP=1%
   @DF-UKS iter   4:  -582.20756640679281    6.04214e-05   1.62840e-06 DIIS/DAMP=1%
   @DF-UKS iter   5:  -582.20756185122582    4.55557e-06   2.23930e-07 DIIS/DAMP=1%
   @DF-UKS iter   6:  -582.20756306416683   -1.21294e-06   3.34157e-08 DIIS/DAMP=1%
   @DF-UKS iter   7:  -582.20756282646062    2.37706e-07   6.68049e-09 DIIS/DAMP=1%
   @DF-UKS iter   8:  -582.20756286079927   -3.43387e-08   4.81574e-10 DIIS/DAMP=1%
   @DF-UKS iter   9:  -582.20756285511402    5.68525e-09   4.12566e-11 DIIS/DAMP=1%
  Energy and wave function converged.


  ==> Post-Iterations <==

   Electrons on quadrature grid:
      Nalpha   =   14.9999981827 ; deviation = -1.817e-06
      Nbeta    =   11.9999982831 ; deviation = -1.717e-06
      Ntotal   =   26.9999964658 ; deviation = -3.534e-06 

   @Spin Contamination Metric:   2.879545785E-03
   @S^2 Expected:                3.750000000E+00
   @S^2 Observed:                3.752879546E+00
   @S   Expected:                1.500000000E+00
   @S   Observed:                1.500000000E+00

    Orbital Energies [Eh]
    ---------------------

    Alpha Occupied:                                                       

       1A1   -77.465649     2A1   -56.471209     3A1    -6.999831  
       4A1    -5.194529     1B2    -5.144287     1B1    -5.126922  
       5A1    -4.638310     6A1    -3.220299     2B2    -3.162403  
       2B1    -3.153218     7A1    -0.960572     3B2    -0.665501  
       3B1    -0.618085     8A1    -0.604406     9A1    -0.426012  

    Alpha Virtual:                                                        

       4B2    -0.246116     4B1    -0.228971    10A1    -0.142340  
       1A2    -0.088060     5B2    -0.087936    11A1    -0.087377  
       5B1    -0.070996    12A1    -0.034392     6B2     0.067560  
       6B1     0.079420    13A1     0.086931    14A1     0.095188  
       7B2     0.230467     7B1     0.253826    15A1     0.287121  
       2A2     0.287399    16A1     0.319356     8B2     0.551494  
       8B1     0.573073    17A1     0.740222    18A1     1.442952  

    Beta Occupied:                                                        

       1A1   -77.455061     2A1   -56.461948     3A1    -6.988326  
       4A1    -5.173363     1B2    -5.124259     1B1    -5.120141  
       5A1    -4.625726     6A1    -3.201145     2B2    -3.148385  
       2B1    -3.145715     7A1    -0.877211     3B1    -0.590811  

    Beta Virtual:                                                         

       3B2    -0.513061     8A1    -0.452765     9A1    -0.280073  
       4B1    -0.190747     4B2    -0.187197    10A1    -0.123186  
       5B1    -0.053752     5B2    -0.052216     1A2    -0.049177  
      11A1    -0.045726    12A1     0.000055     6B1     0.123108  
       6B2     0.124626    13A1     0.134040    14A1     0.157551  
       7B1     0.279920     7B2     0.280901     2A2     0.330446  
      15A1     0.334110    16A1     0.360781     8B1     0.614925  
       8B2     0.615751    17A1     0.790419    18A1     1.474121  

    Final Occupation by Irrep:
             A1    A2    B1    B2 
    DOCC [     7,    0,    3,    2 ]
    SOCC [     2,    0,    0,    1 ]
    NA   [     9,    0,    3,    3 ]
    NB   [     7,    0,    3,    2 ]

  @DF-UKS Final Energy:  -582.20756285511402

   => Energetics <=

    Nuclear Repulsion Energy =             85.6093566014950653
    One-Electron Energy =                -965.7197459846290712
    Two-Electron Energy =                 331.8161575084873220
    DFT Exchange-Correlation Energy =     -33.9133309804673075
    Empirical Dispersion Energy =           0.0000000000000000
    VV10 Nonlocal Energy =                  0.0000000000000000
    Total Energy =                       -582.2075628551140198

  UHF NO Occupations:
  HONO-2 :    8 A1 1.0000000
  HONO-1 :    3 B2 1.0000000
  HONO-0 :    9 A1 1.0000000
  LUNO+0 :   10 A1 0.0012439
  LUNO+1 :    4 B1 0.0001950
  LUNO+2 :    4 B2 0.0000006
  LUNO+3 :    5 B1 0.0000004


Computation Completed


Properties will be evaluated at   0.000000,   0.000000,   0.000000 [a0]

Properties computed using the SCF density matrix


 Multipole Moments:

 ------------------------------------------------------------------------------------
     Multipole            Electronic (a.u.)      Nuclear  (a.u.)        Total (a.u.)
 ------------------------------------------------------------------------------------

 L = 1.  Multiply by 2.5417464519 to convert [e a0] to [Debye]
 Dipole X            :          0.0000000            0.0000000            0.0000000
 Dipole Y            :          0.0000000            0.0000000            0.0000000
 Dipole Z            :          0.1154064           -0.0811271            0.0342793
 Magnitude           :                                                    0.0342793

 ------------------------------------------------------------------------------------

*** tstop() called on Joses-MacBook-Pro-2.local at Thu Jul 17 15:18:10 2025
Module time:
	user time   =       7.49 seconds =       0.12 minutes
	system time =       2.42 seconds =       0.04 minutes
	total time  =          1 seconds =       0.02 minutes
Total time:
	user time   =      26.40 seconds =       0.44 minutes
	system time =       4.33 seconds =       0.07 minutes
	total time  =          3 seconds =       0.05 minutes

*** tstart() called on Joses-MacBook-Pro-2.local
*** at Thu Jul 17 15:18:10 2025


         ------------------------------------------------------------
                                   SCF GRAD                          
                          Rob Parrish, Justin Turney,                
                       Andy Simmonett, and Alex Sokolov              
         ------------------------------------------------------------

  ==> Geometry <==

    Molecular point group: c2v
    Full point group: C_inf_v

    Geometry (in Angstrom), charge = 1, multiplicity = 4:

       Center              X                  Y                   Z               Mass       
    ------------   -----------------  -----------------  -----------------  -----------------
         AL           0.000000000000     0.000000000000     0.644191968197    26.981538530000
         P            0.000000000000     0.000000000000    -0.561161747530    30.973761998420

  Nuclear repulsion =   85.609356601495065

  ==> Basis Set <==

  Basis Set: CC-PVDZ
    Blend: CC-PVDZ
    Number of shells: 16
    Number of basis functions: 36
    Number of Cartesian functions: 38
    Spherical Harmonics?: true
    Max angular momentum: 2

  ==> DFJKGrad: Density-Fitted SCF Gradients <==

    Gradient:                    1
    J tasked:                  Yes
    K tasked:                  Yes
    wK tasked:                  No
    OpenMP threads:              1
    Integrals threads:           1
    Memory [MiB]:              375
    Schwarz Cutoff:          1E-12
    Fitting Condition:       1E-10

   => Auxiliary Basis Set <=

  Basis Set: (CC-PVDZ AUX)
    Blend: CC-PVDZ-JKFIT
    Number of shells: 72
    Number of basis functions: 224
    Number of Cartesian functions: 260
    Spherical Harmonics?: true
    Max angular momentum: 3

  ==> DFT Potential <==

   => LibXC <=

    Version 6.2.2
    S. Lehtola, C. Steigemann, M. J.T. Oliveira, and M. A.L. Marques.,  SoftwareX 7, 1–5 (2018) (10.1016/j.softx.2017.11.002)

   => Composite Functional: B3LYP <= 

    B3LYP Hyb-GGA Exchange-Correlation Functional

    P. J. Stephens, F. J. Devlin, C. F. Chabalowski, and M. J. Frisch.,  J. Phys. Chem. 98, 11623 (1994) (10.1021/j100096a001)

    Deriv               =              1
    GGA                 =           TRUE
    Meta                =          FALSE

    Exchange Hybrid     =           TRUE
    MP2 Hybrid          =          FALSE

   => Exchange Functionals <=

    0.0800   Slater exchange
    0.7200         Becke 88

   => Exact (HF) Exchange <=

    0.2000               HF 

   => Correlation Functionals <=

    0.1900   Vosko, Wilk & Nusair (VWN5_RPA)
    0.8100   Lee, Yang & Parr

   => LibXC Density Thresholds  <==

    XC_HYB_GGA_XC_B3LYP:  1.00E-15 

   => Molecular Quadrature <=

    Radial Scheme          =       TREUTLER
    Pruning Scheme         =           NONE
    Nuclear Scheme         =       TREUTLER

    Blocking Scheme        =         OCTREE
    BS radius alpha        =              1
    Pruning alpha          =              1
    Radial Points          =             75
    Spherical Points       =            302
    Total Points           =          42559
    Total Blocks           =            402
    Max Points             =            254
    Max Functions          =             36
    Weights Tolerance      =       1.00E-15


  -Total Gradient:
     Atom            X                  Y                   Z
    ------   -----------------  -----------------  -----------------
       1        0.000000000000    -0.000000000000    -2.168376077637
       2       -0.000000000000     0.000000000000     2.168405119521


*** tstop() called on Joses-MacBook-Pro-2.local at Thu Jul 17 15:18:10 2025
Module time:
	user time   =       2.33 seconds =       0.04 minutes
	system time =       1.36 seconds =       0.02 minutes
	total time  =          0 seconds =       0.00 minutes
Total time:
	user time   =      28.73 seconds =       0.48 minutes
	system time =       5.70 seconds =       0.10 minutes
	total time  =          3 seconds =       0.05 minutes

    			-----------------------------------------

    			 OPTKING 3.0: for geometry optimizations 

    			     By R.A. King, Bethel University     

    			        with contributions from          

    			    A.V. Copan, J. Cayton, A. Heide      

    			-----------------------------------------

    
	                            ===> Fragment 1 <== 

	 Z (Atomic Numbers)          Masses                          Geom                  
	      13.000000            26.981539          0.00000000  0.00000000  1.21734639   
	      15.000000            30.973762          0.00000000  0.00000000 -1.06044201   

	 - Coordinate -           - BOHR/RAD -       - ANG/DEG -
	 R(1,2)           =         2.277788           1.205354


	        --- Internal Coordinate Step in ANG or DEG, aJ/ANG or AJ/DEG ---
	-------------------------------------------------------------------------------
	           Coordinate      Previous         Force          Change          New 
	           ----------      --------        ------          ------        ------
	               R(1,2)       1.20535       17.86477        0.01053       1.21589
	-------------------------------------------------------------------------------

	                                 ==> Convergence Check <==                                  
    
	Measures of convergence in internal coordinates in au.
    
	Criteria marked as inactive (o), active & met (*), and active & unmet ( ).

	----------------------------------------------------------------------------------------------
	   Step    Total Energy     Delta E     Max Force     RMS Force      Max Disp      RMS Disp   
	----------------------------------------------------------------------------------------------
	  Convergence Criteria     1.00e-06 *    3.00e-04 *             o    1.20e-03 *             o
	----------------------------------------------------------------------------------------------
	     2    -582.20756286   -2.21e-02      2.17e+00      2.17e+00 o    1.99e-02      1.99e-02 o  ~
	----------------------------------------------------------------------------------------------

Next Geometry in Ang 
	Fragment 1 (Ang)

	   Al   0.0000000000   0.0000000000   0.6494577732
	    P   0.0000000000   0.0000000000  -0.5664275525


    Structure for next step:
    Molecular point group: c2v
    Full point group: C_inf_v

    Geometry (in Angstrom), charge = 1, multiplicity = 4:

    AL           0.000000000000     0.000000000000     0.649820505657
    P            0.000000000000     0.000000000000    -0.566064820020


Scratch directory: /tmp/
gradient() will perform analytic gradient computation.
   => Libint2 <=

    Primary   basis highest AM E, G, H:  6, 6, 3
    Auxiliary basis highest AM E, G, H:  7, 7, 4
    Onebody   basis highest AM E, G, H:  -, -, -
    Solid Harmonics ordering:            Gaussian

*** tstart() called on Joses-MacBook-Pro-2.local
*** at Thu Jul 17 15:18:10 2025

   => Loading Basis Set <=

    Name: CC-PVDZ
    Role: ORBITAL
    Keyword: BASIS
    atoms 1 entry AL         line   418 file /Users/joseantoniorodriguesromero/anaconda3/share/psi4/basis/cc-pvdz.gbs 
    atoms 2 entry P          line   538 file /Users/joseantoniorodriguesromero/anaconda3/share/psi4/basis/cc-pvdz.gbs 


         ---------------------------------------------------------
                                   SCF
               by Justin Turney, Rob Parrish, Andy Simmonett
                          and Daniel G. A. Smith
                              UKS Reference
                        1 Threads,    500 MiB Core
         ---------------------------------------------------------

  ==> Geometry <==

    Molecular point group: c2v
    Full point group: C_inf_v

    Geometry (in Angstrom), charge = 1, multiplicity = 4:

       Center              X                  Y                   Z               Mass       
    ------------   -----------------  -----------------  -----------------  -----------------
         AL           0.000000000000     0.000000000000     0.649820505657    26.981538530000
         P            0.000000000000     0.000000000000    -0.566064820020    30.973761998420

  Running in c2v symmetry.

  Rotational constants: A = ************  B =      0.79076  C =      0.79076 [cm^-1]
  Rotational constants: A = ************  B =  23706.33735  C =  23706.33735 [MHz]
  Nuclear repulsion =   84.867835725508940

  Charge       = 1
  Multiplicity = 4
  Electrons    = 27
  Nalpha       = 15
  Nbeta        = 12

  ==> Algorithm <==

  SCF Algorithm Type is DF.
  DIIS enabled.
  MOM disabled.
  Fractional occupation disabled.
  Guess Type is READ.
  Energy threshold   = 1.00e-08
  Density threshold  = 1.00e-08
  Integral threshold = 1.00e-12

  ==> Primary Basis <==

  Basis Set: CC-PVDZ
    Blend: CC-PVDZ
    Number of shells: 16
    Number of basis functions: 36
    Number of Cartesian functions: 38
    Spherical Harmonics?: true
    Max angular momentum: 2

  ==> DFT Potential <==

   => LibXC <=

    Version 6.2.2
    S. Lehtola, C. Steigemann, M. J.T. Oliveira, and M. A.L. Marques.,  SoftwareX 7, 1–5 (2018) (10.1016/j.softx.2017.11.002)

   => Composite Functional: B3LYP <= 

    B3LYP Hyb-GGA Exchange-Correlation Functional

    P. J. Stephens, F. J. Devlin, C. F. Chabalowski, and M. J. Frisch.,  J. Phys. Chem. 98, 11623 (1994) (10.1021/j100096a001)

    Deriv               =              1
    GGA                 =           TRUE
    Meta                =          FALSE

    Exchange Hybrid     =           TRUE
    MP2 Hybrid          =          FALSE

   => Exchange Functionals <=

    0.0800   Slater exchange
    0.7200         Becke 88

   => Exact (HF) Exchange <=

    0.2000               HF 

   => Correlation Functionals <=

    0.1900   Vosko, Wilk & Nusair (VWN5_RPA)
    0.8100   Lee, Yang & Parr

   => LibXC Density Thresholds  <==

    XC_HYB_GGA_XC_B3LYP:  1.00E-15 

   => Molecular Quadrature <=

    Radial Scheme          =       TREUTLER
    Pruning Scheme         =           NONE
    Nuclear Scheme         =       TREUTLER

    Blocking Scheme        =         OCTREE
    BS radius alpha        =              1
    Pruning alpha          =              1
    Radial Points          =             75
    Spherical Points       =            302
    Total Points           =          42559
    Total Blocks           =            402
    Max Points             =            256
    Max Functions          =             36
    Weights Tolerance      =       1.00E-15

   => Loading Basis Set <=

    Name: (CC-PVDZ AUX)
    Role: JKFIT
    Keyword: DF_BASIS_SCF
    atoms 1 entry AL         line   371 file /Users/joseantoniorodriguesromero/anaconda3/share/psi4/basis/cc-pvdz-jkfit.gbs 
    atoms 2 entry P          line   519 file /Users/joseantoniorodriguesromero/anaconda3/share/psi4/basis/cc-pvdz-jkfit.gbs 

   => Loading Basis Set <=

    Name: CC-PVDZ
    Role: ORBITAL
    Keyword: BASIS
    atoms 1 entry AL         line   418 file /Users/joseantoniorodriguesromero/anaconda3/share/psi4/basis/cc-pvdz.gbs 
    atoms 2 entry P          line   538 file /Users/joseantoniorodriguesromero/anaconda3/share/psi4/basis/cc-pvdz.gbs 

  Reading orbitals from file /tmp/quartet_AlP.default.75244.180.npy, no projection.

  ==> Integral Setup <==

  DFHelper Memory: AOs need 0.003 GiB; user supplied 0.323 GiB. 
  Using in-core AOs.

  ==> MemDFJK: Density-Fitted J/K Matrices <==

    J tasked:                   Yes
    K tasked:                   Yes
    wK tasked:                   No
    OpenMP threads:               1
    Memory [MiB]:               330
    Algorithm:                 Core
    Schwarz Cutoff:           1E-12
    Mask sparsity (%):       0.0000
    Fitting Condition:        1E-10

   => Auxiliary Basis Set <=

  Basis Set: (CC-PVDZ AUX)
    Blend: CC-PVDZ-JKFIT
    Number of shells: 72
    Number of basis functions: 224
    Number of Cartesian functions: 260
    Spherical Harmonics?: true
    Max angular momentum: 3

  Cached 100.0% of DFT collocation blocks in 0.044 [GiB].

  Minimum eigenvalue in the overlap matrix is 3.7116168347E-03.
  Reciprocal condition number of the overlap matrix is 1.1518360966E-03.
    Using symmetric orthogonalization.

  ==> Pre-Iterations <==

  SCF Guess: Orbitals guess was supplied from a previous computation.

   -------------------------------------------------------
    Irrep   Nso     Nmo     Nalpha   Nbeta   Ndocc  Nsocc
   -------------------------------------------------------
     A1        18      18       9       7       7       2
     A2         2       2       0       0       0       0
     B1         8       8       3       3       3       0
     B2         8       8       3       2       2       1
   -------------------------------------------------------
    Total      36      36      15      12      12       3
   -------------------------------------------------------

  ==> Iterations <==

                           Total Energy        Delta E     RMS |[F,P]|

   @DF-UKS iter   0:  -582.24827238122509   -5.82248e+02   3.13876e-03 
   @DF-UKS iter   1:  -582.25002419760631   -1.75182e-03   1.80505e-04 ADIIS/DIIS
   @DF-UKS iter   2:  -582.25003101517109   -6.81756e-06   1.10611e-04 ADIIS/DIIS/DAMP=1%
   @DF-UKS iter   3:  -582.25015982916216   -1.28814e-04   9.24970e-06 DIIS/DAMP=1%
   @DF-UKS iter   4:  -582.25004173717832    1.18092e-04   3.24750e-06 DIIS/DAMP=1%
   @DF-UKS iter   5:  -582.25003283565013    8.90153e-06   4.51275e-07 DIIS/DAMP=1%
   @DF-UKS iter   6:  -582.25003524556757   -2.40992e-06   6.89285e-08 DIIS/DAMP=1%
   @DF-UKS iter   7:  -582.25003477158248    4.73985e-07   1.34755e-08 DIIS/DAMP=1%
   @DF-UKS iter   8:  -582.25003484081935   -6.92369e-08   9.74895e-10 DIIS/DAMP=1%
   @DF-UKS iter   9:  -582.25003482926491    1.15544e-08   8.66842e-11 DIIS/DAMP=1%
   @DF-UKS iter  10:  -582.25003483006435   -7.99446e-10   1.26261e-11 DIIS/DAMP=1%
  Energy and wave function converged.


  ==> Post-Iterations <==

   Electrons on quadrature grid:
      Nalpha   =   14.9999982116 ; deviation = -1.788e-06
      Nbeta    =   11.9999982883 ; deviation = -1.712e-06
      Ntotal   =   26.9999965000 ; deviation = -3.500e-06 

   @Spin Contamination Metric:   2.859516692E-03
   @S^2 Expected:                3.750000000E+00
   @S^2 Observed:                3.752859517E+00
   @S   Expected:                1.500000000E+00
   @S   Observed:                1.500000000E+00

    Orbital Energies [Eh]
    ---------------------

    Alpha Occupied:                                                       

       1A1   -77.459352     2A1   -56.463049     3A1    -6.992067  
       4A1    -5.185585     1B2    -5.137549     1B1    -5.120286  
       5A1    -4.628961     6A1    -3.210806     2B2    -3.153835  
       2B1    -3.144805     7A1    -0.960050     3B2    -0.662480  
       3B1    -0.615311     8A1    -0.604883     9A1    -0.427417  

    Alpha Virtual:                                                        

       4B2    -0.246383     4B1    -0.229261    10A1    -0.142742  
       5B2    -0.087443     1A2    -0.085999    11A1    -0.085356  
       5B1    -0.070464    12A1    -0.034160     6B2     0.067107  
       6B1     0.078949    13A1     0.085730    14A1     0.092294  
       7B2     0.230233     7B1     0.253572    15A1     0.286341  
       2A2     0.286667    16A1     0.317970     8B2     0.550653  
       8B1     0.572242    17A1     0.733478    18A1     1.408680  

    Beta Occupied:                                                        

       1A1   -77.448750     2A1   -56.453843     3A1    -6.980538  
       4A1    -5.164279     1B2    -5.117594     1B1    -5.113489  
       5A1    -4.616441     6A1    -3.191655     2B2    -3.140000  
       2B1    -3.137341     7A1    -0.876776     3B1    -0.588113  

    Beta Virtual:                                                         

       3B2    -0.510555     8A1    -0.453171     9A1    -0.281862  
       4B1    -0.190983     4B2    -0.187328    10A1    -0.123349  
       5B1    -0.053142     5B2    -0.051519     1A2    -0.047200  
      11A1    -0.043741    12A1     0.000238     6B1     0.122827  
       6B2     0.124383    13A1     0.131123    14A1     0.156086  
       7B1     0.279341     7B2     0.280395     2A2     0.329901  
      15A1     0.333589    16A1     0.359503     8B1     0.614343  
       8B2     0.615233    17A1     0.783531    18A1     1.440047  

    Final Occupation by Irrep:
             A1    A2    B1    B2 
    DOCC [     7,    0,    3,    2 ]
    SOCC [     2,    0,    0,    1 ]
    NA   [     9,    0,    3,    3 ]
    NB   [     7,    0,    3,    2 ]

  @DF-UKS Final Energy:  -582.25003483006435

   => Energetics <=

    Nuclear Repulsion Energy =             84.8678357255089395
    One-Electron Energy =                -964.4935824091426184
    Two-Electron Energy =                 331.2833880663635568
    DFT Exchange-Correlation Energy =     -33.9076762127942715
    Empirical Dispersion Energy =           0.0000000000000000
    VV10 Nonlocal Energy =                  0.0000000000000000
    Total Energy =                       -582.2500348300643509

  UHF NO Occupations:
  HONO-2 :    3 B2 1.0000000
  HONO-1 :    8 A1 1.0000000
  HONO-0 :    9 A1 1.0000000
  LUNO+0 :   10 A1 0.0012311
  LUNO+1 :    4 B1 0.0001979
  LUNO+2 :    4 B2 0.0000006
  LUNO+3 :    5 B1 0.0000004


Computation Completed


Properties will be evaluated at   0.000000,   0.000000,   0.000000 [a0]

Properties computed using the SCF density matrix


 Multipole Moments:

 ------------------------------------------------------------------------------------
     Multipole            Electronic (a.u.)      Nuclear  (a.u.)        Total (a.u.)
 ------------------------------------------------------------------------------------

 L = 1.  Multiply by 2.5417464519 to convert [e a0] to [Debye]
 Dipole X            :          0.0000000            0.0000000            0.0000000
 Dipole Y            :          0.0000000            0.0000000            0.0000000
 Dipole Z            :          0.1201443           -0.0818360            0.0383084
 Magnitude           :                                                    0.0383084

 ------------------------------------------------------------------------------------

*** tstop() called on Joses-MacBook-Pro-2.local at Thu Jul 17 15:18:11 2025
Module time:
	user time   =       8.66 seconds =       0.14 minutes
	system time =       1.77 seconds =       0.03 minutes
	total time  =          1 seconds =       0.02 minutes
Total time:
	user time   =      37.63 seconds =       0.63 minutes
	system time =       7.47 seconds =       0.12 minutes
	total time  =          4 seconds =       0.07 minutes

*** tstart() called on Joses-MacBook-Pro-2.local
*** at Thu Jul 17 15:18:11 2025


         ------------------------------------------------------------
                                   SCF GRAD                          
                          Rob Parrish, Justin Turney,                
                       Andy Simmonett, and Alex Sokolov              
         ------------------------------------------------------------

  ==> Geometry <==

    Molecular point group: c2v
    Full point group: C_inf_v

    Geometry (in Angstrom), charge = 1, multiplicity = 4:

       Center              X                  Y                   Z               Mass       
    ------------   -----------------  -----------------  -----------------  -----------------
         AL           0.000000000000     0.000000000000     0.649820505657    26.981538530000
         P            0.000000000000     0.000000000000    -0.566064820020    30.973761998420

  Nuclear repulsion =   84.867835725508940

  ==> Basis Set <==

  Basis Set: CC-PVDZ
    Blend: CC-PVDZ
    Number of shells: 16
    Number of basis functions: 36
    Number of Cartesian functions: 38
    Spherical Harmonics?: true
    Max angular momentum: 2

  ==> DFJKGrad: Density-Fitted SCF Gradients <==

    Gradient:                    1
    J tasked:                  Yes
    K tasked:                  Yes
    wK tasked:                  No
    OpenMP threads:              1
    Integrals threads:           1
    Memory [MiB]:              375
    Schwarz Cutoff:          1E-12
    Fitting Condition:       1E-10

   => Auxiliary Basis Set <=

  Basis Set: (CC-PVDZ AUX)
    Blend: CC-PVDZ-JKFIT
    Number of shells: 72
    Number of basis functions: 224
    Number of Cartesian functions: 260
    Spherical Harmonics?: true
    Max angular momentum: 3

  ==> DFT Potential <==

   => LibXC <=

    Version 6.2.2
    S. Lehtola, C. Steigemann, M. J.T. Oliveira, and M. A.L. Marques.,  SoftwareX 7, 1–5 (2018) (10.1016/j.softx.2017.11.002)

   => Composite Functional: B3LYP <= 

    B3LYP Hyb-GGA Exchange-Correlation Functional

    P. J. Stephens, F. J. Devlin, C. F. Chabalowski, and M. J. Frisch.,  J. Phys. Chem. 98, 11623 (1994) (10.1021/j100096a001)

    Deriv               =              1
    GGA                 =           TRUE
    Meta                =          FALSE

    Exchange Hybrid     =           TRUE
    MP2 Hybrid          =          FALSE

   => Exchange Functionals <=

    0.0800   Slater exchange
    0.7200         Becke 88

   => Exact (HF) Exchange <=

    0.2000               HF 

   => Correlation Functionals <=

    0.1900   Vosko, Wilk & Nusair (VWN5_RPA)
    0.8100   Lee, Yang & Parr

   => LibXC Density Thresholds  <==

    XC_HYB_GGA_XC_B3LYP:  1.00E-15 

   => Molecular Quadrature <=

    Radial Scheme          =       TREUTLER
    Pruning Scheme         =           NONE
    Nuclear Scheme         =       TREUTLER

    Blocking Scheme        =         OCTREE
    BS radius alpha        =              1
    Pruning alpha          =              1
    Radial Points          =             75
    Spherical Points       =            302
    Total Points           =          42559
    Total Blocks           =            402
    Max Points             =            256
    Max Functions          =             36
    Weights Tolerance      =       1.00E-15


  -Total Gradient:
     Atom            X                  Y                   Z
    ------   -----------------  -----------------  -----------------
       1        0.000000000000    -0.000000000000    -2.100150332331
       2        0.000000000000     0.000000000000     2.100187670935


*** tstop() called on Joses-MacBook-Pro-2.local at Thu Jul 17 15:18:12 2025
Module time:
	user time   =       2.46 seconds =       0.04 minutes
	system time =       0.92 seconds =       0.02 minutes
	total time  =          1 seconds =       0.02 minutes
Total time:
	user time   =      40.09 seconds =       0.67 minutes
	system time =       8.39 seconds =       0.14 minutes
	total time  =          5 seconds =       0.08 minutes

    			-----------------------------------------

    			 OPTKING 3.0: for geometry optimizations 

    			     By R.A. King, Bethel University     

    			        with contributions from          

    			    A.V. Copan, J. Cayton, A. Heide      

    			-----------------------------------------

    
	                            ===> Fragment 1 <== 

	 Z (Atomic Numbers)          Masses                          Geom                  
	      13.000000            26.981539          0.00000000  0.00000000  1.22798279   
	      15.000000            30.973762          0.00000000  0.00000000 -1.06970748   

	 - Coordinate -           - BOHR/RAD -       - ANG/DEG -
	 R(1,2)           =         2.297690           1.215885


	        --- Internal Coordinate Step in ANG or DEG, aJ/ANG or AJ/DEG ---
	-------------------------------------------------------------------------------
	           Coordinate      Previous         Force          Change          New 
	           ----------      --------        ------          ------        ------
	               R(1,2)       1.21589       17.30271        0.04058       1.25646
	-------------------------------------------------------------------------------

	                                 ==> Convergence Check <==                                  
    
	Measures of convergence in internal coordinates in au.
    
	Criteria marked as inactive (o), active & met (*), and active & unmet ( ).

	----------------------------------------------------------------------------------------------
	   Step    Total Energy     Delta E     Max Force     RMS Force      Max Disp      RMS Disp   
	----------------------------------------------------------------------------------------------
	  Convergence Criteria     1.00e-06 *    3.00e-04 *             o    1.20e-03 *             o
	----------------------------------------------------------------------------------------------
	     3    -582.25003483   -4.25e-02      2.10e+00      2.10e+00 o    7.67e-02      7.67e-02 o  ~
	----------------------------------------------------------------------------------------------

Next Geometry in Ang 
	Fragment 1 (Ang)

	   Al   0.0000000000   0.0000000000   0.6701091225
	    P   0.0000000000   0.0000000000  -0.5863534368


    Structure for next step:
    Molecular point group: c2v
    Full point group: C_inf_v

    Geometry (in Angstrom), charge = 1, multiplicity = 4:

    AL           0.000000000000     0.000000000000     0.671506694233
    P            0.000000000000     0.000000000000    -0.584955865049


Scratch directory: /tmp/
gradient() will perform analytic gradient computation.
   => Libint2 <=

    Primary   basis highest AM E, G, H:  6, 6, 3
    Auxiliary basis highest AM E, G, H:  7, 7, 4
    Onebody   basis highest AM E, G, H:  -, -, -
    Solid Harmonics ordering:            Gaussian

*** tstart() called on Joses-MacBook-Pro-2.local
*** at Thu Jul 17 15:18:12 2025

   => Loading Basis Set <=

    Name: CC-PVDZ
    Role: ORBITAL
    Keyword: BASIS
    atoms 1 entry AL         line   418 file /Users/joseantoniorodriguesromero/anaconda3/share/psi4/basis/cc-pvdz.gbs 
    atoms 2 entry P          line   538 file /Users/joseantoniorodriguesromero/anaconda3/share/psi4/basis/cc-pvdz.gbs 


         ---------------------------------------------------------
                                   SCF
               by Justin Turney, Rob Parrish, Andy Simmonett
                          and Daniel G. A. Smith
                              UKS Reference
                        1 Threads,    500 MiB Core
         ---------------------------------------------------------

  ==> Geometry <==

    Molecular point group: c2v
    Full point group: C_inf_v

    Geometry (in Angstrom), charge = 1, multiplicity = 4:

       Center              X                  Y                   Z               Mass       
    ------------   -----------------  -----------------  -----------------  -----------------
         AL           0.000000000000     0.000000000000     0.671506694233    26.981538530000
         P            0.000000000000     0.000000000000    -0.584955865049    30.973761998420

  Running in c2v symmetry.

  Rotational constants: A = ************  B =      0.74051  C =      0.74051 [cm^-1]
  Rotational constants: A = ************  B =  22199.87816  C =  22199.87816 [MHz]
  Nuclear repulsion =   82.127044151308823

  Charge       = 1
  Multiplicity = 4
  Electrons    = 27
  Nalpha       = 15
  Nbeta        = 12

  ==> Algorithm <==

  SCF Algorithm Type is DF.
  DIIS enabled.
  MOM disabled.
  Fractional occupation disabled.
  Guess Type is READ.
  Energy threshold   = 1.00e-08
  Density threshold  = 1.00e-08
  Integral threshold = 1.00e-12

  ==> Primary Basis <==

  Basis Set: CC-PVDZ
    Blend: CC-PVDZ
    Number of shells: 16
    Number of basis functions: 36
    Number of Cartesian functions: 38
    Spherical Harmonics?: true
    Max angular momentum: 2

  ==> DFT Potential <==

   => LibXC <=

    Version 6.2.2
    S. Lehtola, C. Steigemann, M. J.T. Oliveira, and M. A.L. Marques.,  SoftwareX 7, 1–5 (2018) (10.1016/j.softx.2017.11.002)

   => Composite Functional: B3LYP <= 

    B3LYP Hyb-GGA Exchange-Correlation Functional

    P. J. Stephens, F. J. Devlin, C. F. Chabalowski, and M. J. Frisch.,  J. Phys. Chem. 98, 11623 (1994) (10.1021/j100096a001)

    Deriv               =              1
    GGA                 =           TRUE
    Meta                =          FALSE

    Exchange Hybrid     =           TRUE
    MP2 Hybrid          =          FALSE

   => Exchange Functionals <=

    0.0800   Slater exchange
    0.7200         Becke 88

   => Exact (HF) Exchange <=

    0.2000               HF 

   => Correlation Functionals <=

    0.1900   Vosko, Wilk & Nusair (VWN5_RPA)
    0.8100   Lee, Yang & Parr

   => LibXC Density Thresholds  <==

    XC_HYB_GGA_XC_B3LYP:  1.00E-15 

   => Molecular Quadrature <=

    Radial Scheme          =       TREUTLER
    Pruning Scheme         =           NONE
    Nuclear Scheme         =       TREUTLER

    Blocking Scheme        =         OCTREE
    BS radius alpha        =              1
    Pruning alpha          =              1
    Radial Points          =             75
    Spherical Points       =            302
    Total Points           =          42563
    Total Blocks           =            401
    Max Points             =            256
    Max Functions          =             36
    Weights Tolerance      =       1.00E-15

   => Loading Basis Set <=

    Name: (CC-PVDZ AUX)
    Role: JKFIT
    Keyword: DF_BASIS_SCF
    atoms 1 entry AL         line   371 file /Users/joseantoniorodriguesromero/anaconda3/share/psi4/basis/cc-pvdz-jkfit.gbs 
    atoms 2 entry P          line   519 file /Users/joseantoniorodriguesromero/anaconda3/share/psi4/basis/cc-pvdz-jkfit.gbs 

   => Loading Basis Set <=

    Name: CC-PVDZ
    Role: ORBITAL
    Keyword: BASIS
    atoms 1 entry AL         line   418 file /Users/joseantoniorodriguesromero/anaconda3/share/psi4/basis/cc-pvdz.gbs 
    atoms 2 entry P          line   538 file /Users/joseantoniorodriguesromero/anaconda3/share/psi4/basis/cc-pvdz.gbs 

  Reading orbitals from file /tmp/quartet_AlP.default.75244.180.npy, no projection.

  ==> Integral Setup <==

  DFHelper Memory: AOs need 0.003 GiB; user supplied 0.323 GiB. 
  Using in-core AOs.

  ==> MemDFJK: Density-Fitted J/K Matrices <==

    J tasked:                   Yes
    K tasked:                   Yes
    wK tasked:                   No
    OpenMP threads:               1
    Memory [MiB]:               330
    Algorithm:                 Core
    Schwarz Cutoff:           1E-12
    Mask sparsity (%):       0.0000
    Fitting Condition:        1E-10

   => Auxiliary Basis Set <=

  Basis Set: (CC-PVDZ AUX)
    Blend: CC-PVDZ-JKFIT
    Number of shells: 72
    Number of basis functions: 224
    Number of Cartesian functions: 260
    Spherical Harmonics?: true
    Max angular momentum: 3

  Cached 100.0% of DFT collocation blocks in 0.044 [GiB].

  Minimum eigenvalue in the overlap matrix is 4.0098123130E-03.
  Reciprocal condition number of the overlap matrix is 1.2449715932E-03.
    Using symmetric orthogonalization.

  ==> Pre-Iterations <==

  SCF Guess: Orbitals guess was supplied from a previous computation.

   -------------------------------------------------------
    Irrep   Nso     Nmo     Nalpha   Nbeta   Ndocc  Nsocc
   -------------------------------------------------------
     A1        18      18       9       7       7       2
     A2         2       2       0       0       0       0
     B1         8       8       3       3       3       0
     B2         8       8       3       2       2       1
   -------------------------------------------------------
    Total      36      36      15      12      12       3
   -------------------------------------------------------

  ==> Iterations <==

                           Total Energy        Delta E     RMS |[F,P]|

   @DF-UKS iter   0:  -582.39634909808831   -5.82396e+02   1.19346e-02 
   @DF-UKS iter   1:  -582.40139584416147   -5.04675e-03   6.76761e-04 ADIIS/DIIS
   @DF-UKS iter   2:  -582.40149117389308   -9.53297e-05   4.17674e-04 ADIIS/DIIS/DAMP=1%
   @DF-UKS iter   3:  -582.40201842309602   -5.27249e-04   3.52244e-05 DIIS/DAMP=1%
   @DF-UKS iter   4:  -582.40157171837780    4.46705e-04   1.30860e-05 DIIS/DAMP=1%
   @DF-UKS iter   5:  -582.40153801995416    3.36984e-05   1.88853e-06 DIIS/DAMP=1%
   @DF-UKS iter   6:  -582.40154764221109   -9.62226e-06   3.04345e-07 DIIS/DAMP=1%
   @DF-UKS iter   7:  -582.40154571920857    1.92300e-06   5.60180e-08 DIIS/DAMP=1%
   @DF-UKS iter   8:  -582.40154600558060   -2.86372e-07   4.23564e-09 DIIS/DAMP=1%
   @DF-UKS iter   9:  -582.40154595625131    4.93293e-08   4.22493e-10 DIIS/DAMP=1%
   @DF-UKS iter  10:  -582.40154596007801   -3.82670e-09   5.64006e-11 DIIS/DAMP=1%
  Energy and wave function converged.


  ==> Post-Iterations <==

   Electrons on quadrature grid:
      Nalpha   =   14.9999984412 ; deviation = -1.559e-06
      Nbeta    =   11.9999984224 ; deviation = -1.578e-06
      Ntotal   =   26.9999968636 ; deviation = -3.136e-06 

   @Spin Contamination Metric:   2.790711803E-03
   @S^2 Expected:                3.750000000E+00
   @S^2 Observed:                3.752790712E+00
   @S   Expected:                1.500000000E+00
   @S   Observed:                1.500000000E+00

    Orbital Energies [Eh]
    ---------------------

    Alpha Occupied:                                                       

       1A1   -77.437106     2A1   -56.434584     3A1    -6.964767  
       4A1    -5.154253     1B2    -5.113693     1B1    -5.096814  
       5A1    -4.595514     6A1    -3.176386     2B2    -3.123659  
       2B1    -3.115205     7A1    -0.958189     3B2    -0.651054  
       8A1    -0.606975     3B1    -0.604849     9A1    -0.432692  

    Alpha Virtual:                                                        

       4B2    -0.247597     4B1    -0.230563    10A1    -0.144302  
       5B2    -0.085388     1A2    -0.078287    11A1    -0.077798  
       5B1    -0.068291    12A1    -0.033431     6B2     0.065421  
       6B1     0.077194    13A1     0.080412    14A1     0.082720  
       7B2     0.229319     7B1     0.252573    15A1     0.283274  
       2A2     0.283777    16A1     0.312883     8B2     0.547188  
       8B1     0.568825    17A1     0.708537    18A1     1.291771  

    Beta Occupied:                                                        

       1A1   -77.426470     2A1   -56.425614     3A1    -6.953169  
       4A1    -5.132515     1B2    -5.094019     1B1    -5.089967  
       5A1    -4.583275     6A1    -3.157351     2B2    -3.110517  
       2B1    -3.107909     7A1    -0.875259     3B1    -0.577933  

    Beta Virtual:                                                         

       3B2    -0.501089     8A1    -0.454974     9A1    -0.288563  
       4B1    -0.192065     4B2    -0.187991    10A1    -0.123987  
       5B1    -0.050706     5B2    -0.048743     1A2    -0.039797  
      11A1    -0.036303    12A1     0.000786    13A1     0.120674  
       6B1     0.121714     6B2     0.123427    14A1     0.150626  
       7B1     0.277166     7B2     0.278522     2A2     0.327730  
      15A1     0.331512    16A1     0.354745     8B1     0.611806  
       8B2     0.612968    17A1     0.757979    18A1     1.323923  

    Final Occupation by Irrep:
             A1    A2    B1    B2 
    DOCC [     7,    0,    3,    2 ]
    SOCC [     2,    0,    0,    1 ]
    NA   [     9,    0,    3,    3 ]
    NB   [     7,    0,    3,    2 ]

  @DF-UKS Final Energy:  -582.40154596007801

   => Energetics <=

    Nuclear Repulsion Energy =             82.1270441513088230
    One-Electron Energy =                -959.9251520164502836
    Two-Electron Energy =                 329.2828986352788547
    DFT Exchange-Correlation Energy =     -33.8863367302155325
    Empirical Dispersion Energy =           0.0000000000000000
    VV10 Nonlocal Energy =                  0.0000000000000000
    Total Energy =                       -582.4015459600782378

  UHF NO Occupations:
  HONO-2 :    8 A1 1.0000000
  HONO-1 :    9 A1 1.0000000
  HONO-0 :    3 B2 1.0000000
  LUNO+0 :   10 A1 0.0011834
  LUNO+1 :    4 B1 0.0002111
  LUNO+2 :    4 B2 0.0000005
  LUNO+3 :    5 B1 0.0000005


Computation Completed


Properties will be evaluated at   0.000000,   0.000000,   0.000000 [a0]

Properties computed using the SCF density matrix


 Multipole Moments:

 ------------------------------------------------------------------------------------
     Multipole            Electronic (a.u.)      Nuclear  (a.u.)        Total (a.u.)
 ------------------------------------------------------------------------------------

 L = 1.  Multiply by 2.5417464519 to convert [e a0] to [Debye]
 Dipole X            :          0.0000000            0.0000000            0.0000000
 Dipole Y            :          0.0000000            0.0000000            0.0000000
 Dipole Z            :          0.1402092           -0.0845670            0.0556421
 Magnitude           :                                                    0.0556421

 ------------------------------------------------------------------------------------

*** tstop() called on Joses-MacBook-Pro-2.local at Thu Jul 17 15:18:13 2025
Module time:
	user time   =       9.16 seconds =       0.15 minutes
	system time =       2.31 seconds =       0.04 minutes
	total time  =          1 seconds =       0.02 minutes
Total time:
	user time   =      49.36 seconds =       0.82 minutes
	system time =      10.85 seconds =       0.18 minutes
	total time  =          6 seconds =       0.10 minutes

*** tstart() called on Joses-MacBook-Pro-2.local
*** at Thu Jul 17 15:18:13 2025


         ------------------------------------------------------------
                                   SCF GRAD                          
                          Rob Parrish, Justin Turney,                
                       Andy Simmonett, and Alex Sokolov              
         ------------------------------------------------------------

  ==> Geometry <==

    Molecular point group: c2v
    Full point group: C_inf_v

    Geometry (in Angstrom), charge = 1, multiplicity = 4:

       Center              X                  Y                   Z               Mass       
    ------------   -----------------  -----------------  -----------------  -----------------
         AL           0.000000000000     0.000000000000     0.671506694233    26.981538530000
         P            0.000000000000     0.000000000000    -0.584955865049    30.973761998420

  Nuclear repulsion =   82.127044151308823

  ==> Basis Set <==

  Basis Set: CC-PVDZ
    Blend: CC-PVDZ
    Number of shells: 16
    Number of basis functions: 36
    Number of Cartesian functions: 38
    Spherical Harmonics?: true
    Max angular momentum: 2

  ==> DFJKGrad: Density-Fitted SCF Gradients <==

    Gradient:                    1
    J tasked:                  Yes
    K tasked:                  Yes
    wK tasked:                  No
    OpenMP threads:              1
    Integrals threads:           1
    Memory [MiB]:              375
    Schwarz Cutoff:          1E-12
    Fitting Condition:       1E-10

   => Auxiliary Basis Set <=

  Basis Set: (CC-PVDZ AUX)
    Blend: CC-PVDZ-JKFIT
    Number of shells: 72
    Number of basis functions: 224
    Number of Cartesian functions: 260
    Spherical Harmonics?: true
    Max angular momentum: 3

  ==> DFT Potential <==

   => LibXC <=

    Version 6.2.2
    S. Lehtola, C. Steigemann, M. J.T. Oliveira, and M. A.L. Marques.,  SoftwareX 7, 1–5 (2018) (10.1016/j.softx.2017.11.002)

   => Composite Functional: B3LYP <= 

    B3LYP Hyb-GGA Exchange-Correlation Functional

    P. J. Stephens, F. J. Devlin, C. F. Chabalowski, and M. J. Frisch.,  J. Phys. Chem. 98, 11623 (1994) (10.1021/j100096a001)

    Deriv               =              1
    GGA                 =           TRUE
    Meta                =          FALSE

    Exchange Hybrid     =           TRUE
    MP2 Hybrid          =          FALSE

   => Exchange Functionals <=

    0.0800   Slater exchange
    0.7200         Becke 88

   => Exact (HF) Exchange <=

    0.2000               HF 

   => Correlation Functionals <=

    0.1900   Vosko, Wilk & Nusair (VWN5_RPA)
    0.8100   Lee, Yang & Parr

   => LibXC Density Thresholds  <==

    XC_HYB_GGA_XC_B3LYP:  1.00E-15 

   => Molecular Quadrature <=

    Radial Scheme          =       TREUTLER
    Pruning Scheme         =           NONE
    Nuclear Scheme         =       TREUTLER

    Blocking Scheme        =         OCTREE
    BS radius alpha        =              1
    Pruning alpha          =              1
    Radial Points          =             75
    Spherical Points       =            302
    Total Points           =          42563
    Total Blocks           =            401
    Max Points             =            256
    Max Functions          =             36
    Weights Tolerance      =       1.00E-15


  -Total Gradient:
     Atom            X                  Y                   Z
    ------   -----------------  -----------------  -----------------
       1        0.000000000000    -0.000000000000    -1.856345972138
       2        0.000000000000    -0.000000000000     1.856409272093


*** tstop() called on Joses-MacBook-Pro-2.local at Thu Jul 17 15:18:13 2025
Module time:
	user time   =       2.73 seconds =       0.05 minutes
	system time =       0.85 seconds =       0.01 minutes
	total time  =          0 seconds =       0.00 minutes
Total time:
	user time   =      52.09 seconds =       0.87 minutes
	system time =      11.71 seconds =       0.20 minutes
	total time  =          6 seconds =       0.10 minutes

    			-----------------------------------------

    			 OPTKING 3.0: for geometry optimizations 

    			     By R.A. King, Bethel University     

    			        with contributions from          

    			    A.V. Copan, J. Cayton, A. Heide      

    			-----------------------------------------

    
	                            ===> Fragment 1 <== 

	 Z (Atomic Numbers)          Masses                          Geom                  
	      13.000000            26.981539          0.00000000  0.00000000  1.26896374   
	      15.000000            30.973762          0.00000000  0.00000000 -1.10540638   

	 - Coordinate -           - BOHR/RAD -       - ANG/DEG -
	 R(1,2)           =         2.374370           1.256463


	        --- Internal Coordinate Step in ANG or DEG, aJ/ANG or AJ/DEG ---
	-------------------------------------------------------------------------------
	           Coordinate      Previous         Force          Change          New 
	           ----------      --------        ------          ------        ------
	               R(1,2)       1.25646       15.29418        0.23278       1.48924
	-------------------------------------------------------------------------------

	                                 ==> Convergence Check <==                                  
    
	Measures of convergence in internal coordinates in au.
    
	Criteria marked as inactive (o), active & met (*), and active & unmet ( ).

	----------------------------------------------------------------------------------------------
	   Step    Total Energy     Delta E     Max Force     RMS Force      Max Disp      RMS Disp   
	----------------------------------------------------------------------------------------------
	  Convergence Criteria     1.00e-06 *    3.00e-04 *             o    1.20e-03 *             o
	----------------------------------------------------------------------------------------------
	     4    -582.40154596   -1.52e-01      1.86e+00      1.86e+00 o    4.40e-01      4.40e-01 o  ~
	----------------------------------------------------------------------------------------------

Next Geometry in Ang 
	Fragment 1 (Ang)

	   Al   0.0000000000   0.0000000000   0.7878971236
	    P   0.0000000000   0.0000000000  -0.7013462944


    Structure for next step:
    Molecular point group: c2v
    Full point group: C_inf_v

    Geometry (in Angstrom), charge = 1, multiplicity = 4:

    AL           0.000000000000     0.000000000000     0.795914623235
    P            0.000000000000     0.000000000000    -0.693328794691


Scratch directory: /tmp/
gradient() will perform analytic gradient computation.
   => Libint2 <=

    Primary   basis highest AM E, G, H:  6, 6, 3
    Auxiliary basis highest AM E, G, H:  7, 7, 4
    Onebody   basis highest AM E, G, H:  -, -, -
    Solid Harmonics ordering:            Gaussian

*** tstart() called on Joses-MacBook-Pro-2.local
*** at Thu Jul 17 15:18:13 2025

   => Loading Basis Set <=

    Name: CC-PVDZ
    Role: ORBITAL
    Keyword: BASIS
    atoms 1 entry AL         line   418 file /Users/joseantoniorodriguesromero/anaconda3/share/psi4/basis/cc-pvdz.gbs 
    atoms 2 entry P          line   538 file /Users/joseantoniorodriguesromero/anaconda3/share/psi4/basis/cc-pvdz.gbs 


         ---------------------------------------------------------
                                   SCF
               by Justin Turney, Rob Parrish, Andy Simmonett
                          and Daniel G. A. Smith
                              UKS Reference
                        1 Threads,    500 MiB Core
         ---------------------------------------------------------

  ==> Geometry <==

    Molecular point group: c2v
    Full point group: C_inf_v

    Geometry (in Angstrom), charge = 1, multiplicity = 4:

       Center              X                  Y                   Z               Mass       
    ------------   -----------------  -----------------  -----------------  -----------------
         AL           0.000000000000     0.000000000000     0.795914623235    26.981538530000
         P            0.000000000000     0.000000000000    -0.693328794691    30.973761998420

  Running in c2v symmetry.

  Rotational constants: A = ************  B =      0.52711  C =      0.52711 [cm^-1]
  Rotational constants: A = ************  B =  15802.22771  C =  15802.22771 [MHz]
  Nuclear repulsion =   69.289919188857937

  Charge       = 1
  Multiplicity = 4
  Electrons    = 27
  Nalpha       = 15
  Nbeta        = 12

  ==> Algorithm <==

  SCF Algorithm Type is DF.
  DIIS enabled.
  MOM disabled.
  Fractional occupation disabled.
  Guess Type is READ.
  Energy threshold   = 1.00e-08
  Density threshold  = 1.00e-08
  Integral threshold = 1.00e-12

  ==> Primary Basis <==

  Basis Set: CC-PVDZ
    Blend: CC-PVDZ
    Number of shells: 16
    Number of basis functions: 36
    Number of Cartesian functions: 38
    Spherical Harmonics?: true
[...]

	----------------------------------------------------------------------------------------------
	   Step    Total Energy     Delta E     Max Force     RMS Force      Max Disp      RMS Disp   
	----------------------------------------------------------------------------------------------
	  Convergence Criteria     1.00e-06 *    3.00e-04 *             o    1.20e-03 *             o
	----------------------------------------------------------------------------------------------
	    16    -583.46212959   -3.96e-06      1.81e-04 *    1.81e-04 o    5.08e-03      5.08e-03 o  ~
	----------------------------------------------------------------------------------------------

Next Geometry in Ang 
	Fragment 1 (Ang)

	   Al   0.0000000000   0.0000000000   1.3643238565
	    P   0.0000000000   0.0000000000  -1.1886486960


    Structure for next step:
    Molecular point group: c2v
    Full point group: C_inf_v

    Geometry (in Angstrom), charge = 1, multiplicity = 4:

    AL           0.000000000000     0.000000000000     1.364416429715
    P            0.000000000000     0.000000000000    -1.188556122799


Scratch directory: /tmp/
gradient() will perform analytic gradient computation.
   => Libint2 <=

    Primary   basis highest AM E, G, H:  6, 6, 3
    Auxiliary basis highest AM E, G, H:  7, 7, 4
    Onebody   basis highest AM E, G, H:  -, -, -
    Solid Harmonics ordering:            Gaussian

*** tstart() called on Joses-MacBook-Pro-2.local
*** at Thu Jul 17 15:18:56 2025

   => Loading Basis Set <=

    Name: CC-PVDZ
    Role: ORBITAL
    Keyword: BASIS
    atoms 1 entry AL         line   418 file /Users/joseantoniorodriguesromero/anaconda3/share/psi4/basis/cc-pvdz.gbs 
    atoms 2 entry P          line   538 file /Users/joseantoniorodriguesromero/anaconda3/share/psi4/basis/cc-pvdz.gbs 


         ---------------------------------------------------------
                                   SCF
               by Justin Turney, Rob Parrish, Andy Simmonett
                          and Daniel G. A. Smith
                              UKS Reference
                        1 Threads,    500 MiB Core
         ---------------------------------------------------------

  ==> Geometry <==

    Molecular point group: c2v
    Full point group: C_inf_v

    Geometry (in Angstrom), charge = 1, multiplicity = 4:

       Center              X                  Y                   Z               Mass       
    ------------   -----------------  -----------------  -----------------  -----------------
         AL           0.000000000000     0.000000000000     1.364416429715    26.981538530000
         P            0.000000000000     0.000000000000    -1.188556122799    30.973761998420

  Running in c2v symmetry.

  Rotational constants: A = ************  B =      0.17936  C =      0.17936 [cm^-1]
  Rotational constants: A = ************  B =   5377.21502  C =   5377.21502 [MHz]
  Nuclear repulsion =   40.419375437094764

  Charge       = 1
  Multiplicity = 4
  Electrons    = 27
  Nalpha       = 15
  Nbeta        = 12

  ==> Algorithm <==

  SCF Algorithm Type is DF.
  DIIS enabled.
  MOM disabled.
  Fractional occupation disabled.
  Guess Type is READ.
  Energy threshold   = 1.00e-08
  Density threshold  = 1.00e-08
  Integral threshold = 1.00e-12

  ==> Primary Basis <==

  Basis Set: CC-PVDZ
    Blend: CC-PVDZ
    Number of shells: 16
    Number of basis functions: 36
    Number of Cartesian functions: 38
    Spherical Harmonics?: true
    Max angular momentum: 2

  ==> DFT Potential <==

   => LibXC <=

    Version 6.2.2
    S. Lehtola, C. Steigemann, M. J.T. Oliveira, and M. A.L. Marques.,  SoftwareX 7, 1–5 (2018) (10.1016/j.softx.2017.11.002)

   => Composite Functional: B3LYP <= 

    B3LYP Hyb-GGA Exchange-Correlation Functional

    P. J. Stephens, F. J. Devlin, C. F. Chabalowski, and M. J. Frisch.,  J. Phys. Chem. 98, 11623 (1994) (10.1021/j100096a001)

    Deriv               =              1
    GGA                 =           TRUE
    Meta                =          FALSE

    Exchange Hybrid     =           TRUE
    MP2 Hybrid          =          FALSE

   => Exchange Functionals <=

    0.0800   Slater exchange
    0.7200         Becke 88

   => Exact (HF) Exchange <=

    0.2000               HF 

   => Correlation Functionals <=

    0.1900   Vosko, Wilk & Nusair (VWN5_RPA)
    0.8100   Lee, Yang & Parr

   => LibXC Density Thresholds  <==

    XC_HYB_GGA_XC_B3LYP:  1.00E-15 

   => Molecular Quadrature <=

    Radial Scheme          =       TREUTLER
    Pruning Scheme         =           NONE
    Nuclear Scheme         =       TREUTLER

    Blocking Scheme        =         OCTREE
    BS radius alpha        =              1
    Pruning alpha          =              1
    Radial Points          =             75
    Spherical Points       =            302
    Total Points           =          42688
    Total Blocks           =            401
    Max Points             =            256
    Max Functions          =             36
    Weights Tolerance      =       1.00E-15

   => Loading Basis Set <=

    Name: (CC-PVDZ AUX)
    Role: JKFIT
    Keyword: DF_BASIS_SCF
    atoms 1 entry AL         line   371 file /Users/joseantoniorodriguesromero/anaconda3/share/psi4/basis/cc-pvdz-jkfit.gbs 
    atoms 2 entry P          line   519 file /Users/joseantoniorodriguesromero/anaconda3/share/psi4/basis/cc-pvdz-jkfit.gbs 

   => Loading Basis Set <=

    Name: CC-PVDZ
    Role: ORBITAL
    Keyword: BASIS
    atoms 1 entry AL         line   418 file /Users/joseantoniorodriguesromero/anaconda3/share/psi4/basis/cc-pvdz.gbs 
    atoms 2 entry P          line   538 file /Users/joseantoniorodriguesromero/anaconda3/share/psi4/basis/cc-pvdz.gbs 

  Reading orbitals from file /tmp/quartet_AlP.default.75244.180.npy, no projection.

  ==> Integral Setup <==

  DFHelper Memory: AOs need 0.003 GiB; user supplied 0.323 GiB. 
  Using in-core AOs.

  ==> MemDFJK: Density-Fitted J/K Matrices <==

    J tasked:                   Yes
    K tasked:                   Yes
    wK tasked:                   No
    OpenMP threads:               1
    Memory [MiB]:               330
    Algorithm:                 Core
    Schwarz Cutoff:           1E-12
    Mask sparsity (%):       0.0000
    Fitting Condition:        1E-10

   => Auxiliary Basis Set <=

  Basis Set: (CC-PVDZ AUX)
    Blend: CC-PVDZ-JKFIT
    Number of shells: 72
    Number of basis functions: 224
    Number of Cartesian functions: 260
    Spherical Harmonics?: true
    Max angular momentum: 3

  Cached 100.0% of DFT collocation blocks in 0.043 [GiB].

  Minimum eigenvalue in the overlap matrix is 2.6808689635E-02.
  Reciprocal condition number of the overlap matrix is 9.5311802490E-03.
    Using symmetric orthogonalization.

  ==> Pre-Iterations <==

  SCF Guess: Orbitals guess was supplied from a previous computation.

   -------------------------------------------------------
    Irrep   Nso     Nmo     Nalpha   Nbeta   Ndocc  Nsocc
   -------------------------------------------------------
     A1        18      18       9       8       8       1
     A2         2       2       0       0       0       0
     B1         8       8       3       2       2       1
     B2         8       8       3       2       2       1
   -------------------------------------------------------
    Total      36      36      15      12      12       3
   -------------------------------------------------------

  ==> Iterations <==

                           Total Energy        Delta E     RMS |[F,P]|

   @DF-UKS iter   0:  -583.46155198147233   -5.83462e+02   1.13943e-04 
   @DF-UKS iter   1:  -583.46212994114671   -5.77960e-04   1.36674e-05 DIIS
   @DF-UKS iter   2:  -583.46213001433421   -7.31875e-08   1.22678e-05 DIIS/DAMP=1%
   @DF-UKS iter   3:  -583.46211772129573    1.22930e-05   2.20461e-06 DIIS/DAMP=1%
   @DF-UKS iter   4:  -583.46213077172149   -1.30504e-05   1.42025e-06 DIIS/DAMP=1%
   @DF-UKS iter   5:  -583.46212943277055    1.33895e-06   1.71641e-07 DIIS/DAMP=1%
   @DF-UKS iter   6:  -583.46213020233085   -7.69560e-07   4.50094e-08 DIIS/DAMP=1%
   @DF-UKS iter   7:  -583.46213008724044    1.15090e-07   4.76379e-09 DIIS/DAMP=1%
   @DF-UKS iter   8:  -583.46213010199585   -1.47554e-08   9.55514e-10 DIIS/DAMP=1%
   @DF-UKS iter   9:  -583.46213010058602    1.40983e-09   1.31394e-10 DIIS/DAMP=1%
  Energy and wave function converged.


  ==> Post-Iterations <==

   Electrons on quadrature grid:
      Nalpha   =   15.0000017146 ; deviation = 1.715e-06
      Nbeta    =   12.0000008510 ; deviation = 8.510e-07
      Ntotal   =   27.0000025655 ; deviation = 2.566e-06 

   @Spin Contamination Metric:   8.352178661E-03
   @S^2 Expected:                3.750000000E+00
   @S^2 Observed:                3.758352179E+00
   @S   Expected:                1.500000000E+00
   @S   Observed:                1.500000000E+00

    Orbital Energies [Eh]
    ---------------------

    Alpha Occupied:                                                       

       1A1   -77.347166     2A1   -56.353305     3A1    -6.814407  
       1B1    -4.977910     1B2    -4.977910     4A1    -4.976458  
       5A1    -4.427490     2B1    -2.980264     2B2    -2.980264  
       6A1    -2.978819     7A1    -0.829221     8A1    -0.579392  
       3B1    -0.475995     3B2    -0.475995     9A1    -0.462136  

    Alpha Virtual:                                                        

       4B2    -0.284213     4B1    -0.284213    10A1    -0.206952  
      11A1    -0.055604    12A1    -0.002797     5B2     0.004815  
       5B1     0.004815     6B2     0.028754     6B1     0.028754  
      13A1     0.036054     1A2     0.036054    14A1     0.094097  
       7B1     0.214349     7B2     0.214349    15A1     0.224255  
       2A2     0.224256    16A1     0.256824    17A1     0.279740  
       8B1     0.338068     8B2     0.338068    18A1     0.592468  

    Beta Occupied:                                                        

       1A1   -77.336298     2A1   -56.351676     3A1    -6.802885  
       4A1    -4.961640     1B1    -4.959788     1B2    -4.959788  
       5A1    -4.425206     2B1    -2.978563     2B2    -2.978563  
       6A1    -2.974918     7A1    -0.732093     8A1    -0.537470  

    Beta Virtual:                                                         

       9A1    -0.359810     3B2    -0.345452     3B1    -0.345452  
       4B2    -0.258005     4B1    -0.258005    10A1    -0.173323  
      11A1    -0.042080    12A1     0.017554     5B2     0.018427  
       5B1     0.018427    13A1     0.048404     1A2     0.048404  
       6B2     0.055558     6B1     0.055558    14A1     0.124852  
       7B1     0.264539     7B2     0.264539    15A1     0.296677  
       2A2     0.315411    16A1     0.315414    17A1     0.319095  
       8B1     0.398613     8B2     0.398613    18A1     0.636684  

    Final Occupation by Irrep:
             A1    A2    B1    B2 
    DOCC [     8,    0,    2,    2 ]
    SOCC [     1,    0,    1,    1 ]
    NA   [     9,    0,    3,    3 ]
    NB   [     8,    0,    2,    2 ]

  @DF-UKS Final Energy:  -583.46213010058602

   => Energetics <=

    Nuclear Repulsion Energy =             40.4193754370947644
    One-Electron Energy =                -882.2667057764163019
    Two-Electron Energy =                 291.8714010580418972
    DFT Exchange-Correlation Energy =     -33.4862008193064469
    Empirical Dispersion Energy =           0.0000000000000000
    VV10 Nonlocal Energy =                  0.0000000000000000
    Total Energy =                       -583.4621301005860232

  UHF NO Occupations:
  HONO-2 :    3 B1 1.0000000
  HONO-1 :    3 B2 1.0000000
  HONO-0 :    9 A1 1.0000000
  LUNO+0 :   10 A1 0.0039857
  LUNO+1 :   11 A1 0.0001978
  LUNO+2 :    4 B1 0.0000002
  LUNO+3 :    4 B2 0.0000002


Computation Completed


Properties will be evaluated at   0.000000,   0.000000,   0.000000 [a0]

Properties computed using the SCF density matrix


 Multipole Moments:

 ------------------------------------------------------------------------------------
     Multipole            Electronic (a.u.)      Nuclear  (a.u.)        Total (a.u.)
 ------------------------------------------------------------------------------------

 L = 1.  Multiply by 2.5417464519 to convert [e a0] to [Debye]
 Dipole X            :          0.0000000            0.0000000            0.0000000
 Dipole Y            :          0.0000000            0.0000000            0.0000000
 Dipole Z            :          1.4655745           -0.1718295            1.2937450
 Magnitude           :                                                    1.2937450

 ------------------------------------------------------------------------------------

*** tstop() called on Joses-MacBook-Pro-2.local at Thu Jul 17 15:18:57 2025
Module time:
	user time   =       8.94 seconds =       0.15 minutes
	system time =       1.38 seconds =       0.02 minutes
	total time  =          1 seconds =       0.02 minutes
Total time:
	user time   =     436.21 seconds =       7.27 minutes
	system time =      63.91 seconds =       1.07 minutes
	total time  =         50 seconds =       0.83 minutes

*** tstart() called on Joses-MacBook-Pro-2.local
*** at Thu Jul 17 15:18:57 2025


         ------------------------------------------------------------
                                   SCF GRAD                          
                          Rob Parrish, Justin Turney,                
                       Andy Simmonett, and Alex Sokolov              
         ------------------------------------------------------------

  ==> Geometry <==

    Molecular point group: c2v
    Full point group: C_inf_v

    Geometry (in Angstrom), charge = 1, multiplicity = 4:

       Center              X                  Y                   Z               Mass       
    ------------   -----------------  -----------------  -----------------  -----------------
         AL           0.000000000000     0.000000000000     1.364416429715    26.981538530000
         P            0.000000000000     0.000000000000    -1.188556122799    30.973761998420

  Nuclear repulsion =   40.419375437094764

  ==> Basis Set <==

  Basis Set: CC-PVDZ
    Blend: CC-PVDZ
    Number of shells: 16
    Number of basis functions: 36
    Number of Cartesian functions: 38
    Spherical Harmonics?: true
    Max angular momentum: 2

  ==> DFJKGrad: Density-Fitted SCF Gradients <==

    Gradient:                    1
    J tasked:                  Yes
    K tasked:                  Yes
    wK tasked:                  No
    OpenMP threads:              1
    Integrals threads:           1
    Memory [MiB]:              375
    Schwarz Cutoff:          1E-12
    Fitting Condition:       1E-10

   => Auxiliary Basis Set <=

  Basis Set: (CC-PVDZ AUX)
    Blend: CC-PVDZ-JKFIT
    Number of shells: 72
    Number of basis functions: 224
    Number of Cartesian functions: 260
    Spherical Harmonics?: true
    Max angular momentum: 3

  ==> DFT Potential <==

   => LibXC <=

    Version 6.2.2
    S. Lehtola, C. Steigemann, M. J.T. Oliveira, and M. A.L. Marques.,  SoftwareX 7, 1–5 (2018) (10.1016/j.softx.2017.11.002)

   => Composite Functional: B3LYP <= 

    B3LYP Hyb-GGA Exchange-Correlation Functional

    P. J. Stephens, F. J. Devlin, C. F. Chabalowski, and M. J. Frisch.,  J. Phys. Chem. 98, 11623 (1994) (10.1021/j100096a001)

    Deriv               =              1
    GGA                 =           TRUE
    Meta                =          FALSE

    Exchange Hybrid     =           TRUE
    MP2 Hybrid          =          FALSE

   => Exchange Functionals <=

    0.0800   Slater exchange
    0.7200         Becke 88

   => Exact (HF) Exchange <=

    0.2000               HF 

   => Correlation Functionals <=

    0.1900   Vosko, Wilk & Nusair (VWN5_RPA)
    0.8100   Lee, Yang & Parr

   => LibXC Density Thresholds  <==

    XC_HYB_GGA_XC_B3LYP:  1.00E-15 

   => Molecular Quadrature <=

    Radial Scheme          =       TREUTLER
    Pruning Scheme         =           NONE
    Nuclear Scheme         =       TREUTLER

    Blocking Scheme        =         OCTREE
    BS radius alpha        =              1
    Pruning alpha          =              1
    Radial Points          =             75
    Spherical Points       =            302
    Total Points           =          42688
    Total Blocks           =            401
    Max Points             =            256
    Max Functions          =             36
    Weights Tolerance      =       1.00E-15


  -Total Gradient:
     Atom            X                  Y                   Z
    ------   -----------------  -----------------  -----------------
       1        0.000000000000    -0.000000000000    -0.000028634355
       2        0.000000000000     0.000000000000     0.000054340276


*** tstop() called on Joses-MacBook-Pro-2.local at Thu Jul 17 15:18:57 2025
Module time:
	user time   =       2.55 seconds =       0.04 minutes
	system time =       1.97 seconds =       0.03 minutes
	total time  =          0 seconds =       0.00 minutes
Total time:
	user time   =     438.77 seconds =       7.31 minutes
	system time =      65.88 seconds =       1.10 minutes
	total time  =         50 seconds =       0.83 minutes

    			-----------------------------------------

    			 OPTKING 3.0: for geometry optimizations 

    			     By R.A. King, Bethel University     

    			        with contributions from          

    			    A.V. Copan, J. Cayton, A. Heide      

    			-----------------------------------------

    
	                            ===> Fragment 1 <== 

	 Z (Atomic Numbers)          Masses                          Geom                  
	      13.000000            26.981539          0.00000000  0.00000000  2.57837337   
	      15.000000            30.973762          0.00000000  0.00000000 -2.24604556   

	 - Coordinate -           - BOHR/RAD -       - ANG/DEG -
	 R(1,2)           =         4.824419           2.552973


	        --- Internal Coordinate Step in ANG or DEG, aJ/ANG or AJ/DEG ---
	-------------------------------------------------------------------------------
	           Coordinate      Previous         Force          Change          New 
	           ----------      --------        ------          ------        ------
	               R(1,2)       2.55297        0.00034        0.00072       2.55369
	-------------------------------------------------------------------------------

	                                 ==> Convergence Check <==                                  
    
	Measures of convergence in internal coordinates in au.
    
	Criteria marked as inactive (o), active & met (*), and active & unmet ( ).

	----------------------------------------------------------------------------------------------
	   Step    Total Energy     Delta E     Max Force     RMS Force      Max Disp      RMS Disp   
	----------------------------------------------------------------------------------------------
	  Convergence Criteria     1.00e-06 *    3.00e-04 *             o    1.20e-03 *             o
	----------------------------------------------------------------------------------------------
	    17    -583.46213010   -5.13e-07 *    4.15e-05 *    4.15e-05 o    1.36e-03      1.36e-03 o  ~
	----------------------------------------------------------------------------------------------

Next Geometry in Ang 
	Fragment 1 (Ang)

	   Al   0.0000000000   0.0000000000   1.3647752049
	    P   0.0000000000   0.0000000000  -1.1889148980


    Final optimized geometry and variables:
    Molecular point group: c2v
    Full point group: C_inf_v

    Geometry (in Angstrom), charge = 1, multiplicity = 4:

    AL           0.000000000000     0.000000000000     1.364416429715
    P            0.000000000000     0.000000000000    -1.188556122799


    Psi4 stopped on: Thursday, 17 July 2025 03:18PM
    Psi4 wall time for execution: 0:00:50.81

*** Psi4 exiting successfully. Buy a developer a beer!
