
    -----------------------------------------------------------------------
          Psi4: An Open-Source Ab Initio Electronic Structure Package
                               Psi4 1.9.1 release

                         Git: Rev {} zzzzzzz 


    D. G. A. Smith, L. A. Burns, A. C. Simmonett, R. M. Parrish,
    M. C. Schieber, R. Galvelis, P. Kraus, H. Kruse, R. Di Remigio,
    A. Alenaizan, A. M. James, S. Lehtola, J. P. Misiewicz, M. Scheurer,
    R. A. Shaw, J. B. Schriber, Y. Xie, Z. L. Glick, D. A. Sirianni,
    J. S. O'Brien, J. M. Waldrop, A. Kumar, E. G. Hohenstein,
    B. P. Pritchard, B. R. Brooks, H. F. Schaefer III, A. Yu. Sokolov,
    K. Patkowski, A. E. DePrince III, U. Bozkaya, R. A. King,
    F. A. Evangelista, J. M. Turney, T. D. Crawford, C. D. Sherrill,
    J. Chem. Phys. 152(18) 184108 (2020). https://doi.org/10.1063/5.0006002

                            Additional Code Authors
    E. T. Seidl, C. L. Janssen, E. F. Valeev, M. L. Leininger,
    J. F. Gonthier, R. M. Richard, H. R. McAlexander, M. Saitow, X. Wang,
    P. Verma, M. H. Lechner, A. Jiang, S. Behnle, A. G. Heide,
    M. F. Herbst, and D. L. Poole

             Previous Authors, Complete List of Code Contributors,
                       and Citations for Specific Modules
    https://github.com/psi4/psi4/blob/master/codemeta.json
    https://github.com/psi4/psi4/graphs/contributors
    http://psicode.org/psi4manual/master/introduction.html#citing-psifour

    -----------------------------------------------------------------------


    Psi4 started on: Thursday, 17 July 2025 03:41PM

    Process ID: 75570
    Host:       Joses-MacBook-Pro-2.local
    PSIDATADIR: /Users/joseantoniorodriguesromero/anaconda3/share/psi4
    Memory:     500.0 MiB
    Threads:    1
    
  ==> Input File <==

--------------------------------------------------------------------------
molecule { 
1 4
Si   0.00000        0.60000        0.00000
S   0.00000       -0.60000        0.00000
}

set { 
basis              cc-pvdz
reference          uks
maxiter            500
geom_maxiter       500
DAMPING_PERCENTAGE 1
guess              SAP
}

optimize('b3lyp')
--------------------------------------------------------------------------

Scratch directory: /tmp/
gradient() will perform analytic gradient computation.
   => Libint2 <=

    Primary   basis highest AM E, G, H:  6, 6, 3
    Auxiliary basis highest AM E, G, H:  7, 7, 4
    Onebody   basis highest AM E, G, H:  -, -, -
    Solid Harmonics ordering:            Gaussian

*** tstart() called on Joses-MacBook-Pro-2.local
*** at Thu Jul 17 15:41:05 2025

   => Loading Basis Set <=

    Name: CC-PVDZ
    Role: ORBITAL
    Keyword: BASIS
    atoms 1 entry SI         line   478 file /Users/joseantoniorodriguesromero/anaconda3/share/psi4/basis/cc-pvdz.gbs 
    atoms 2 entry S          line   598 file /Users/joseantoniorodriguesromero/anaconda3/share/psi4/basis/cc-pvdz.gbs 


         ---------------------------------------------------------
                                   SCF
               by Justin Turney, Rob Parrish, Andy Simmonett
                          and Daniel G. A. Smith
                              UKS Reference
                        1 Threads,    500 MiB Core
         ---------------------------------------------------------

  ==> Geometry <==

    Molecular point group: c2v
    Full point group: C_inf_v

    Geometry (in Angstrom), charge = 1, multiplicity = 4:

       Center              X                  Y                   Z               Mass       
    ------------   -----------------  -----------------  -----------------  -----------------
         SI           0.000000000000     0.000000000000     0.639985435544    27.976926534650
         S            0.000000000000     0.000000000000    -0.560014564456    31.972071174400

  Running in c2v symmetry.

  Rotational constants: A = ************  B =      0.78459  C =      0.78459 [cm^-1]
  Rotational constants: A = ************  B =  23521.54584  C =  23521.54584 [MHz]
  Nuclear repulsion =   98.779745991733350

  Charge       = 1
  Multiplicity = 4
  Electrons    = 29
  Nalpha       = 16
  Nbeta        = 13

  ==> Algorithm <==

  SCF Algorithm Type is DF.
  DIIS enabled.
  MOM disabled.
  Fractional occupation disabled.
  Guess Type is SAP.
  Energy threshold   = 1.00e-08
  Density threshold  = 1.00e-08
  Integral threshold = 1.00e-12

  ==> Primary Basis <==

  Basis Set: CC-PVDZ
    Blend: CC-PVDZ
    Number of shells: 16
    Number of basis functions: 36
    Number of Cartesian functions: 38
    Spherical Harmonics?: true
    Max angular momentum: 2

  ==> DFT Potential <==

   => LibXC <=

    Version 6.2.2
    S. Lehtola, C. Steigemann, M. J.T. Oliveira, and M. A.L. Marques.,  SoftwareX 7, 1–5 (2018) (10.1016/j.softx.2017.11.002)

   => Composite Functional: B3LYP <= 

    B3LYP Hyb-GGA Exchange-Correlation Functional

    P. J. Stephens, F. J. Devlin, C. F. Chabalowski, and M. J. Frisch.,  J. Phys. Chem. 98, 11623 (1994) (10.1021/j100096a001)

    Deriv               =              1
    GGA                 =           TRUE
    Meta                =          FALSE

    Exchange Hybrid     =           TRUE
    MP2 Hybrid          =          FALSE

   => Exchange Functionals <=

    0.0800   Slater exchange
    0.7200         Becke 88

   => Exact (HF) Exchange <=

    0.2000               HF 

   => Correlation Functionals <=

    0.1900   Vosko, Wilk & Nusair (VWN5_RPA)
    0.8100   Lee, Yang & Parr

   => LibXC Density Thresholds  <==

    XC_HYB_GGA_XC_B3LYP:  1.00E-15 

   => Molecular Quadrature <=

    Radial Scheme          =       TREUTLER
    Pruning Scheme         =           NONE
    Nuclear Scheme         =       TREUTLER

    Blocking Scheme        =         OCTREE
    BS radius alpha        =              1
    Pruning alpha          =              1
    Radial Points          =             75
    Spherical Points       =            302
    Total Points           =          41465
    Total Blocks           =            389
    Max Points             =            249
    Max Functions          =             36
    Weights Tolerance      =       1.00E-15

   => Loading Basis Set <=

    Name: (CC-PVDZ AUX)
    Role: JKFIT
    Keyword: DF_BASIS_SCF
    atoms 1 entry SI         line   445 file /Users/joseantoniorodriguesromero/anaconda3/share/psi4/basis/cc-pvdz-jkfit.gbs 
    atoms 2 entry S          line   593 file /Users/joseantoniorodriguesromero/anaconda3/share/psi4/basis/cc-pvdz-jkfit.gbs 

  ==> Integral Setup <==

  DFHelper Memory: AOs need 0.003 GiB; user supplied 0.324 GiB. 
  Using in-core AOs.

  ==> MemDFJK: Density-Fitted J/K Matrices <==

    J tasked:                   Yes
    K tasked:                   Yes
    wK tasked:                   No
    OpenMP threads:               1
    Memory [MiB]:               331
    Algorithm:                 Core
    Schwarz Cutoff:           1E-12
    Mask sparsity (%):       0.0000
    Fitting Condition:        1E-10

   => Auxiliary Basis Set <=

  Basis Set: (CC-PVDZ AUX)
    Blend: CC-PVDZ-JKFIT
    Number of shells: 72
    Number of basis functions: 224
    Number of Cartesian functions: 260
    Spherical Harmonics?: true
    Max angular momentum: 3

  Cached 100.0% of DFT collocation blocks in 0.043 [GiB].

  Minimum eigenvalue in the overlap matrix is 5.0097687474E-03.
  Reciprocal condition number of the overlap matrix is 1.5708927969E-03.
    Using symmetric orthogonalization.

  ==> Pre-Iterations <==

  SCF Guess: Superposition of Atomic Potentials (doi:10.1021/acs.jctc.8b01089).

  ==> SAP guess <==

   => Molecular Quadrature <=

    Radial Scheme          =       TREUTLER
    Pruning Scheme         =           NONE
    Nuclear Scheme         =       TREUTLER

    Blocking Scheme        =         OCTREE
    BS radius alpha        =              1
    Pruning alpha          =              1
    Radial Points          =             75
    Spherical Points       =            302
    Total Points           =          41465
    Total Blocks           =            389
    Max Points             =            249
    Max Functions          =             36
    Weights Tolerance      =       1.00E-15

   -------------------------------------------------------
    Irrep   Nso     Nmo     Nalpha   Nbeta   Ndocc  Nsocc
   -------------------------------------------------------
     A1        18      18       9       7       7       2
     A2         2       2       0       0       0       0
     B1         8       8       4       3       3       1
     B2         8       8       3       3       3       0
   -------------------------------------------------------
    Total      36      36      16      13      13       3
   -------------------------------------------------------

  ==> Iterations <==

                           Total Energy        Delta E     RMS |[F,P]|

   @DF-UKS iter   1:  -685.76513670667441   -6.85765e+02   2.38302e-02 DIIS/ADIIS
   @DF-UKS iter   2:  -685.85494350709712   -8.98068e-02   1.79880e-02 DIIS/ADIIS/DAMP=1%
   @DF-UKS iter   3:  -685.92170307458650   -6.67596e-02   1.84996e-03 DIIS/ADIIS/DAMP=1%
   @DF-UKS iter   4:  -685.95027645805510   -2.85734e-02   9.90896e-04 DIIS/ADIIS/DAMP=1%
   @DF-UKS iter   5:  -685.95017740666640    9.90514e-05   6.78910e-05 DIIS/DAMP=1%
   @DF-UKS iter   6:  -685.94974955166526    4.27855e-04   7.22334e-06 DIIS/DAMP=1%
   @DF-UKS iter   7:  -685.94984411945245   -9.45678e-05   1.44389e-06 DIIS/DAMP=1%
   @DF-UKS iter   8:  -685.94984066042832    3.45902e-06   1.54003e-07 DIIS/DAMP=1%
   @DF-UKS iter   9:  -685.94984071868464   -5.82563e-08   2.70402e-08 DIIS/DAMP=1%
   @DF-UKS iter  10:  -685.94984070750252    1.11821e-08   5.13795e-09 DIIS/DAMP=1%
   @DF-UKS iter  11:  -685.94984072180455   -1.43020e-08   5.66224e-10 DIIS/DAMP=1%
   @DF-UKS iter  12:  -685.94984071862143    3.18312e-09   6.96417e-11 DIIS/DAMP=1%
  Energy and wave function converged.


  ==> Post-Iterations <==

   Electrons on quadrature grid:
      Nalpha   =   15.9999981064 ; deviation = -1.894e-06
      Nbeta    =   12.9999981041 ; deviation = -1.896e-06
      Ntotal   =   28.9999962105 ; deviation = -3.789e-06 

   @Spin Contamination Metric:   4.512156795E-03
   @S^2 Expected:                3.750000000E+00
   @S^2 Observed:                3.754512157E+00
   @S   Expected:                1.500000000E+00
   @S   Observed:                1.500000000E+00

    Orbital Energies [Eh]
    ---------------------

    Alpha Occupied:                                                       

       1A1   -89.259798     2A1   -66.508872     3A1    -8.393924  
       4A1    -6.389126     1B2    -6.329236     1B1    -6.326763  
       5A1    -5.748290     6A1    -4.137622     2B2    -4.076975  
       2B1    -4.073269     7A1    -1.174290     8A1    -0.777330  
       3B2    -0.748000     3B1    -0.745380     9A1    -0.564253  
       4B1    -0.366962  

    Alpha Virtual:                                                        

       4B2    -0.303768    10A1    -0.150776     5B2    -0.065968  
       5B1    -0.065758     1A2    -0.037403    11A1    -0.035610  
      12A1     0.011918    13A1     0.058174     6B1     0.125101  
       6B2     0.132890    14A1     0.139332     7B1     0.283458  
       7B2     0.283773     2A2     0.371000    15A1     0.372763  
      16A1     0.402735     8B2     0.757393     8B1     0.758302  
      17A1     0.823994    18A1     1.504094  

    Beta Occupied:                                                        

       1A1   -89.250143     2A1   -66.497584     3A1    -8.383655  
       4A1    -6.364133     1B2    -6.322958     1B1    -6.316592  
       5A1    -5.734107     6A1    -4.115839     2B2    -4.068111  
       2B1    -4.056400     7A1    -1.123893     3B2    -0.728461  
       3B1    -0.707753  

    Beta Virtual:                                                         

       8A1    -0.590516     9A1    -0.388680     4B2    -0.247978  
       4B1    -0.222473    10A1    -0.125846     5B2    -0.041986  
       5B1    -0.026777     1A2     0.001122    11A1     0.001267  
      12A1     0.056701    13A1     0.098464     6B2     0.184763  
       6B1     0.206432    14A1     0.221492     7B2     0.314142  
       7B1     0.332365     2A2     0.420527    15A1     0.420880  
      16A1     0.452371     8B2     0.810746     8B1     0.832130  
      17A1     0.866862    18A1     1.545499  

    Final Occupation by Irrep:
             A1    A2    B1    B2 
    DOCC [     7,    0,    3,    3 ]
    SOCC [     2,    0,    1,    0 ]
    NA   [     9,    0,    4,    3 ]
    NB   [     7,    0,    3,    3 ]

  @DF-UKS Final Energy:  -685.94984071862143

   => Energetics <=

    Nuclear Repulsion Energy =             98.7797459917333498
    One-Electron Energy =               -1133.3077322840827037
    Two-Electron Energy =                 386.3404152615614748
    DFT Exchange-Correlation Energy =     -37.7622696878334594
    Empirical Dispersion Energy =           0.0000000000000000
    VV10 Nonlocal Energy =                  0.0000000000000000
    Total Energy =                       -685.9498407186214308

  UHF NO Occupations:
  HONO-2 :    8 A1 1.0000000
  HONO-1 :    4 B1 1.0000000
  HONO-0 :    9 A1 1.0000000
  LUNO+0 :    5 B1 0.0013910
  LUNO+1 :    4 B2 0.0004415
  LUNO+2 :   10 A1 0.0004234
  LUNO+3 :    5 B2 0.0000006


Computation Completed


Properties will be evaluated at   0.000000,   0.000000,   0.000000 [a0]

Properties computed using the SCF density matrix


 Multipole Moments:

 ------------------------------------------------------------------------------------
     Multipole            Electronic (a.u.)      Nuclear  (a.u.)        Total (a.u.)
 ------------------------------------------------------------------------------------

 L = 1.  Multiply by 2.5417464519 to convert [e a0] to [Debye]
 Dipole X            :          0.0000000            0.0000000            0.0000000
 Dipole Y            :          0.0000000            0.0000000            0.0000000
 Dipole Z            :         -0.3413106           -0.0008257           -0.3421363
 Magnitude           :                                                    0.3421363

 ------------------------------------------------------------------------------------

*** tstop() called on Joses-MacBook-Pro-2.local at Thu Jul 17 15:41:07 2025
Module time:
	user time   =      17.23 seconds =       0.29 minutes
	system time =       2.03 seconds =       0.03 minutes
	total time  =          2 seconds =       0.03 minutes
Total time:
	user time   =      17.23 seconds =       0.29 minutes
	system time =       2.03 seconds =       0.03 minutes
	total time  =          2 seconds =       0.03 minutes

*** tstart() called on Joses-MacBook-Pro-2.local
*** at Thu Jul 17 15:41:07 2025


         ------------------------------------------------------------
                                   SCF GRAD                          
                          Rob Parrish, Justin Turney,                
                       Andy Simmonett, and Alex Sokolov              
         ------------------------------------------------------------

  ==> Geometry <==

    Molecular point group: c2v
    Full point group: C_inf_v

    Geometry (in Angstrom), charge = 1, multiplicity = 4:

       Center              X                  Y                   Z               Mass       
    ------------   -----------------  -----------------  -----------------  -----------------
         SI           0.000000000000     0.000000000000     0.639985435544    27.976926534650
         S            0.000000000000     0.000000000000    -0.560014564456    31.972071174400

  Nuclear repulsion =   98.779745991733350

  ==> Basis Set <==

  Basis Set: CC-PVDZ
    Blend: CC-PVDZ
    Number of shells: 16
    Number of basis functions: 36
    Number of Cartesian functions: 38
    Spherical Harmonics?: true
    Max angular momentum: 2

  ==> DFJKGrad: Density-Fitted SCF Gradients <==

    Gradient:                    1
    J tasked:                  Yes
    K tasked:                  Yes
    wK tasked:                  No
    OpenMP threads:              1
    Integrals threads:           1
    Memory [MiB]:              375
    Schwarz Cutoff:          1E-12
    Fitting Condition:       1E-10

   => Auxiliary Basis Set <=

  Basis Set: (CC-PVDZ AUX)
    Blend: CC-PVDZ-JKFIT
    Number of shells: 72
    Number of basis functions: 224
    Number of Cartesian functions: 260
    Spherical Harmonics?: true
    Max angular momentum: 3

  ==> DFT Potential <==

   => LibXC <=

    Version 6.2.2
    S. Lehtola, C. Steigemann, M. J.T. Oliveira, and M. A.L. Marques.,  SoftwareX 7, 1–5 (2018) (10.1016/j.softx.2017.11.002)

   => Composite Functional: B3LYP <= 

    B3LYP Hyb-GGA Exchange-Correlation Functional

    P. J. Stephens, F. J. Devlin, C. F. Chabalowski, and M. J. Frisch.,  J. Phys. Chem. 98, 11623 (1994) (10.1021/j100096a001)

    Deriv               =              1
    GGA                 =           TRUE
    Meta                =          FALSE

    Exchange Hybrid     =           TRUE
    MP2 Hybrid          =          FALSE

   => Exchange Functionals <=

    0.0800   Slater exchange
    0.7200         Becke 88

   => Exact (HF) Exchange <=

    0.2000               HF 

   => Correlation Functionals <=

    0.1900   Vosko, Wilk & Nusair (VWN5_RPA)
    0.8100   Lee, Yang & Parr

   => LibXC Density Thresholds  <==

    XC_HYB_GGA_XC_B3LYP:  1.00E-15 

   => Molecular Quadrature <=

    Radial Scheme          =       TREUTLER
    Pruning Scheme         =           NONE
    Nuclear Scheme         =       TREUTLER

    Blocking Scheme        =         OCTREE
    BS radius alpha        =              1
    Pruning alpha          =              1
    Radial Points          =             75
    Spherical Points       =            302
    Total Points           =          41465
    Total Blocks           =            389
    Max Points             =            249
    Max Functions          =             36
    Weights Tolerance      =       1.00E-15


  -Total Gradient:
     Atom            X                  Y                   Z
    ------   -----------------  -----------------  -----------------
       1        0.000000000000     0.000000000000    -2.640974207380
       2       -0.000000000000     0.000000000000     2.641036753559


*** tstop() called on Joses-MacBook-Pro-2.local at Thu Jul 17 15:41:07 2025
Module time:
	user time   =       2.29 seconds =       0.04 minutes
	system time =       1.04 seconds =       0.02 minutes
	total time  =          0 seconds =       0.00 minutes
Total time:
	user time   =      19.53 seconds =       0.33 minutes
	system time =       3.07 seconds =       0.05 minutes
	total time  =          2 seconds =       0.03 minutes

    			-----------------------------------------

    			 OPTKING 3.0: for geometry optimizations 

    			     By R.A. King, Bethel University     

    			        with contributions from          

    			    A.V. Copan, J. Cayton, A. Heide      

    			-----------------------------------------

    
	                            ===> Fragment 1 <== 

	 Z (Atomic Numbers)          Masses                          Geom                  
	      14.000000            27.976927          0.00000000  0.00000000  1.20939720   
	      16.000000            31.972071          0.00000000  0.00000000 -1.05827415   

	 - Coordinate -           - BOHR/RAD -       - ANG/DEG -
	 R(1,2)           =         2.267671           1.200000


	        --- Internal Coordinate Step in ANG or DEG, aJ/ANG or AJ/DEG ---
	-------------------------------------------------------------------------------
	           Coordinate      Previous         Force          Change          New 
	           ----------      --------        ------          ------        ------
	               R(1,2)       1.20000       21.75851        0.00642       1.20642
	-------------------------------------------------------------------------------

	                                 ==> Convergence Check <==                                  
    
	Measures of convergence in internal coordinates in au.
    
	Criteria marked as inactive (o), active & met (*), and active & unmet ( ).

	----------------------------------------------------------------------------------------------
	   Step    Total Energy     Delta E     Max Force     RMS Force      Max Disp      RMS Disp   
	----------------------------------------------------------------------------------------------
	  Convergence Criteria     1.00e-06 *    3.00e-04 *             o    1.20e-03 *             o
	----------------------------------------------------------------------------------------------
	     1    -685.94984072   -6.86e+02      2.64e+00      2.64e+00 o    1.21e-02      1.21e-02 o  ~
	----------------------------------------------------------------------------------------------

Next Geometry in Ang 
	Fragment 1 (Ang)

	   Si   0.0000000000   0.0000000000   0.6431929955
	    S   0.0000000000   0.0000000000  -0.5632221244


    Structure for next step:
    Molecular point group: c2v
    Full point group: C_inf_v

    Geometry (in Angstrom), charge = 1, multiplicity = 4:

    SI           0.000000000000     0.000000000000     0.643406754970
    S            0.000000000000     0.000000000000    -0.563008364941


Scratch directory: /tmp/
gradient() will perform analytic gradient computation.
   => Libint2 <=

    Primary   basis highest AM E, G, H:  6, 6, 3
    Auxiliary basis highest AM E, G, H:  7, 7, 4
    Onebody   basis highest AM E, G, H:  -, -, -
    Solid Harmonics ordering:            Gaussian

*** tstart() called on Joses-MacBook-Pro-2.local
*** at Thu Jul 17 15:41:07 2025

   => Loading Basis Set <=

    Name: CC-PVDZ
    Role: ORBITAL
    Keyword: BASIS
    atoms 1 entry SI         line   478 file /Users/joseantoniorodriguesromero/anaconda3/share/psi4/basis/cc-pvdz.gbs 
    atoms 2 entry S          line   598 file /Users/joseantoniorodriguesromero/anaconda3/share/psi4/basis/cc-pvdz.gbs 


         ---------------------------------------------------------
                                   SCF
               by Justin Turney, Rob Parrish, Andy Simmonett
                          and Daniel G. A. Smith
                              UKS Reference
                        1 Threads,    500 MiB Core
         ---------------------------------------------------------

  ==> Geometry <==

    Molecular point group: c2v
    Full point group: C_inf_v

    Geometry (in Angstrom), charge = 1, multiplicity = 4:

       Center              X                  Y                   Z               Mass       
    ------------   -----------------  -----------------  -----------------  -----------------
         SI           0.000000000000     0.000000000000     0.643406754970    27.976926534650
         S            0.000000000000     0.000000000000    -0.563008364941    31.972071174400

  Running in c2v symmetry.

  Rotational constants: A = ************  B =      0.77627  C =      0.77627 [cm^-1]
  Rotational constants: A = ************  B =  23272.05900  C =  23272.05900 [MHz]
  Nuclear repulsion =   98.254484077415782

  Charge       = 1
  Multiplicity = 4
  Electrons    = 29
  Nalpha       = 16
  Nbeta        = 13

  ==> Algorithm <==

  SCF Algorithm Type is DF.
  DIIS enabled.
  MOM disabled.
  Fractional occupation disabled.
  Guess Type is READ.
  Energy threshold   = 1.00e-08
  Density threshold  = 1.00e-08
  Integral threshold = 1.00e-12

  ==> Primary Basis <==

  Basis Set: CC-PVDZ
    Blend: CC-PVDZ
    Number of shells: 16
    Number of basis functions: 36
    Number of Cartesian functions: 38
    Spherical Harmonics?: true
    Max angular momentum: 2

  ==> DFT Potential <==

   => LibXC <=

    Version 6.2.2
    S. Lehtola, C. Steigemann, M. J.T. Oliveira, and M. A.L. Marques.,  SoftwareX 7, 1–5 (2018) (10.1016/j.softx.2017.11.002)

   => Composite Functional: B3LYP <= 

    B3LYP Hyb-GGA Exchange-Correlation Functional

    P. J. Stephens, F. J. Devlin, C. F. Chabalowski, and M. J. Frisch.,  J. Phys. Chem. 98, 11623 (1994) (10.1021/j100096a001)

    Deriv               =              1
    GGA                 =           TRUE
    Meta                =          FALSE

    Exchange Hybrid     =           TRUE
    MP2 Hybrid          =          FALSE

   => Exchange Functionals <=

    0.0800   Slater exchange
    0.7200         Becke 88

   => Exact (HF) Exchange <=

    0.2000               HF 

   => Correlation Functionals <=

    0.1900   Vosko, Wilk & Nusair (VWN5_RPA)
    0.8100   Lee, Yang & Parr

   => LibXC Density Thresholds  <==

    XC_HYB_GGA_XC_B3LYP:  1.00E-15 

   => Molecular Quadrature <=

    Radial Scheme          =       TREUTLER
    Pruning Scheme         =           NONE
    Nuclear Scheme         =       TREUTLER

    Blocking Scheme        =         OCTREE
    BS radius alpha        =              1
    Pruning alpha          =              1
    Radial Points          =             75
    Spherical Points       =            302
    Total Points           =          41466
    Total Blocks           =            389
    Max Points             =            250
    Max Functions          =             36
    Weights Tolerance      =       1.00E-15

   => Loading Basis Set <=

    Name: (CC-PVDZ AUX)
    Role: JKFIT
    Keyword: DF_BASIS_SCF
    atoms 1 entry SI         line   445 file /Users/joseantoniorodriguesromero/anaconda3/share/psi4/basis/cc-pvdz-jkfit.gbs 
    atoms 2 entry S          line   593 file /Users/joseantoniorodriguesromero/anaconda3/share/psi4/basis/cc-pvdz-jkfit.gbs 

   => Loading Basis Set <=

    Name: CC-PVDZ
    Role: ORBITAL
    Keyword: BASIS
    atoms 1 entry SI         line   478 file /Users/joseantoniorodriguesromero/anaconda3/share/psi4/basis/cc-pvdz.gbs 
    atoms 2 entry S          line   598 file /Users/joseantoniorodriguesromero/anaconda3/share/psi4/basis/cc-pvdz.gbs 

  Reading orbitals from file /tmp/quartet_SiS.default.75570.180.npy, no projection.

  ==> Integral Setup <==

  DFHelper Memory: AOs need 0.003 GiB; user supplied 0.324 GiB. 
  Using in-core AOs.

  ==> MemDFJK: Density-Fitted J/K Matrices <==

    J tasked:                   Yes
    K tasked:                   Yes
    wK tasked:                   No
    OpenMP threads:               1
    Memory [MiB]:               331
    Algorithm:                 Core
    Schwarz Cutoff:           1E-12
    Mask sparsity (%):       0.0000
    Fitting Condition:        1E-10

   => Auxiliary Basis Set <=

  Basis Set: (CC-PVDZ AUX)
    Blend: CC-PVDZ-JKFIT
    Number of shells: 72
    Number of basis functions: 224
    Number of Cartesian functions: 260
    Spherical Harmonics?: true
    Max angular momentum: 3

  Cached 100.0% of DFT collocation blocks in 0.043 [GiB].

  Minimum eigenvalue in the overlap matrix is 5.0801600905E-03.
  Reciprocal condition number of the overlap matrix is 1.5931429266E-03.
    Using symmetric orthogonalization.

  ==> Pre-Iterations <==

  SCF Guess: Orbitals guess was supplied from a previous computation.

   -------------------------------------------------------
    Irrep   Nso     Nmo     Nalpha   Nbeta   Ndocc  Nsocc
   -------------------------------------------------------
     A1        18      18       9       7       7       2
     A2         2       2       0       0       0       0
     B1         8       8       4       3       3       1
     B2         8       8       3       3       3       0
   -------------------------------------------------------
    Total      36      36      16      13      13       3
   -------------------------------------------------------

  ==> Iterations <==

                           Total Energy        Delta E     RMS |[F,P]|

   @DF-UKS iter   0:  -685.98262974955787   -6.85983e+02   2.72127e-03 
   @DF-UKS iter   1:  -685.98147679014755    1.15296e-03   2.04501e-04 DIIS/ADIIS
   @DF-UKS iter   2:  -685.98148329230435   -6.50216e-06   1.35568e-04 DIIS/ADIIS/DAMP=1%
   @DF-UKS iter   3:  -685.98169154641153   -2.08254e-04   6.59735e-06 DIIS/DAMP=1%
   @DF-UKS iter   4:  -685.98148896273869    2.02584e-04   3.53200e-06 DIIS/DAMP=1%
   @DF-UKS iter   5:  -685.98148780755344    1.15519e-06   6.93112e-07 DIIS/DAMP=1%
   @DF-UKS iter   6:  -685.98148873941454   -9.31861e-07   8.93968e-08 DIIS/DAMP=1%
   @DF-UKS iter   7:  -685.98148801458660    7.24828e-07   1.56611e-08 DIIS/DAMP=1%
   @DF-UKS iter   8:  -685.98148813370517   -1.19119e-07   1.20495e-09 DIIS/DAMP=1%
   @DF-UKS iter   9:  -685.98148811603915    1.76660e-08   1.21895e-10 DIIS/DAMP=1%
   @DF-UKS iter  10:  -685.98148811680471   -7.65567e-10   1.54487e-11 DIIS/DAMP=1%
  Energy and wave function converged.


  ==> Post-Iterations <==

   Electrons on quadrature grid:
      Nalpha   =   15.9999980865 ; deviation = -1.914e-06
      Nbeta    =   12.9999980817 ; deviation = -1.918e-06
      Ntotal   =   28.9999961682 ; deviation = -3.832e-06 

   @Spin Contamination Metric:   4.569564934E-03
   @S^2 Expected:                3.750000000E+00
   @S^2 Observed:                3.754569565E+00
   @S   Expected:                1.500000000E+00
   @S   Observed:                1.500000000E+00

    Orbital Energies [Eh]
    ---------------------

    Alpha Occupied:                                                       

       1A1   -89.256965     2A1   -66.505842     3A1    -8.389964  
       4A1    -6.384489     1B2    -6.325892     1B1    -6.323422  
       5A1    -5.743615     6A1    -4.132533     2B2    -4.073121  
       2B1    -4.069420     7A1    -1.174013     8A1    -0.777937  
       3B2    -0.745776     3B1    -0.743226     9A1    -0.565268  
       4B1    -0.367426  

    Alpha Virtual:                                                        

       4B2    -0.304277    10A1    -0.151081     5B2    -0.065313  
       5B1    -0.065115     1A2    -0.035815    11A1    -0.034021  
      12A1     0.011528    13A1     0.057181     6B1     0.124886  
       6B2     0.132628    14A1     0.138319     7B1     0.283116  
       7B2     0.283393     2A2     0.370159    15A1     0.371910  
      16A1     0.401525     8B2     0.755352     8B1     0.756234  
      17A1     0.819215    18A1     1.492068  

    Beta Occupied:                                                        

       1A1   -89.247309     2A1   -66.494582     3A1    -8.379682  
       4A1    -6.359522     1B2    -6.319604     1B1    -6.313241  
       5A1    -5.729459     6A1    -4.110844     2B2    -4.064275  
       2B1    -4.052539     7A1    -1.123666     3B2    -0.726218  
       3B1    -0.705542  

    Beta Virtual:                                                         

       8A1    -0.591202     9A1    -0.389764     4B2    -0.248451  
       4B1    -0.222948    10A1    -0.125983     5B2    -0.041256  
       5B1    -0.026042     1A2     0.002892    11A1     0.003026  
      12A1     0.056102    13A1     0.097639     6B2     0.184570  
       6B1     0.206278    14A1     0.220306     7B2     0.313485  
       7B1     0.331639     2A2     0.419636    15A1     0.419988  
      16A1     0.451269     8B2     0.808795     8B1     0.830175  
      17A1     0.861845    18A1     1.533589  

    Final Occupation by Irrep:
             A1    A2    B1    B2 
    DOCC [     7,    0,    3,    3 ]
    SOCC [     2,    0,    1,    0 ]
    NA   [     9,    0,    4,    3 ]
    NB   [     7,    0,    3,    3 ]

  @DF-UKS Final Energy:  -685.98148811680471

   => Energetics <=

    Nuclear Repulsion Energy =             98.2544840774157819
    One-Electron Energy =               -1132.4088114313060487
    Two-Electron Energy =                 385.9292716545047597
    DFT Exchange-Correlation Energy =     -37.7564324174192407
    Empirical Dispersion Energy =           0.0000000000000000
    VV10 Nonlocal Energy =                  0.0000000000000000
    Total Energy =                       -685.9814881168047123

  UHF NO Occupations:
  HONO-2 :    8 A1 1.0000000
  HONO-1 :    9 A1 1.0000000
  HONO-0 :    4 B1 1.0000000
  LUNO+0 :    5 B1 0.0014103
  LUNO+1 :    4 B2 0.0004491
  LUNO+2 :   10 A1 0.0004253
  LUNO+3 :    5 B2 0.0000006


Computation Completed


Properties will be evaluated at   0.000000,   0.000000,   0.000000 [a0]

Properties computed using the SCF density matrix


 Multipole Moments:

 ------------------------------------------------------------------------------------
     Multipole            Electronic (a.u.)      Nuclear  (a.u.)        Total (a.u.)
 ------------------------------------------------------------------------------------

 L = 1.  Multiply by 2.5417464519 to convert [e a0] to [Debye]
 Dipole X            :          0.0000000            0.0000000            0.0000000
 Dipole Y            :          0.0000000            0.0000000            0.0000000
 Dipole Z            :         -0.3355437           -0.0008301           -0.3363738
 Magnitude           :                                                    0.3363738

 ------------------------------------------------------------------------------------

*** tstop() called on Joses-MacBook-Pro-2.local at Thu Jul 17 15:41:08 2025
Module time:
	user time   =       8.67 seconds =       0.14 minutes
	system time =       1.82 seconds =       0.03 minutes
	total time  =          1 seconds =       0.02 minutes
Total time:
	user time   =      28.24 seconds =       0.47 minutes
	system time =       5.14 seconds =       0.09 minutes
	total time  =          3 seconds =       0.05 minutes

*** tstart() called on Joses-MacBook-Pro-2.local
*** at Thu Jul 17 15:41:08 2025


         ------------------------------------------------------------
                                   SCF GRAD                          
                          Rob Parrish, Justin Turney,                
                       Andy Simmonett, and Alex Sokolov              
         ------------------------------------------------------------

  ==> Geometry <==

    Molecular point group: c2v
    Full point group: C_inf_v

    Geometry (in Angstrom), charge = 1, multiplicity = 4:

       Center              X                  Y                   Z               Mass       
    ------------   -----------------  -----------------  -----------------  -----------------
         SI           0.000000000000     0.000000000000     0.643406754970    27.976926534650
         S            0.000000000000     0.000000000000    -0.563008364941    31.972071174400

  Nuclear repulsion =   98.254484077415782

  ==> Basis Set <==

  Basis Set: CC-PVDZ
    Blend: CC-PVDZ
    Number of shells: 16
    Number of basis functions: 36
    Number of Cartesian functions: 38
    Spherical Harmonics?: true
    Max angular momentum: 2

  ==> DFJKGrad: Density-Fitted SCF Gradients <==

    Gradient:                    1
    J tasked:                  Yes
    K tasked:                  Yes
    wK tasked:                  No
    OpenMP threads:              1
    Integrals threads:           1
    Memory [MiB]:              375
    Schwarz Cutoff:          1E-12
    Fitting Condition:       1E-10

   => Auxiliary Basis Set <=

  Basis Set: (CC-PVDZ AUX)
    Blend: CC-PVDZ-JKFIT
    Number of shells: 72
    Number of basis functions: 224
    Number of Cartesian functions: 260
    Spherical Harmonics?: true
    Max angular momentum: 3

  ==> DFT Potential <==

   => LibXC <=

    Version 6.2.2
    S. Lehtola, C. Steigemann, M. J.T. Oliveira, and M. A.L. Marques.,  SoftwareX 7, 1–5 (2018) (10.1016/j.softx.2017.11.002)

   => Composite Functional: B3LYP <= 

    B3LYP Hyb-GGA Exchange-Correlation Functional

    P. J. Stephens, F. J. Devlin, C. F. Chabalowski, and M. J. Frisch.,  J. Phys. Chem. 98, 11623 (1994) (10.1021/j100096a001)

    Deriv               =              1
    GGA                 =           TRUE
    Meta                =          FALSE

    Exchange Hybrid     =           TRUE
    MP2 Hybrid          =          FALSE

   => Exchange Functionals <=

    0.0800   Slater exchange
    0.7200         Becke 88

   => Exact (HF) Exchange <=

    0.2000               HF 

   => Correlation Functionals <=

    0.1900   Vosko, Wilk & Nusair (VWN5_RPA)
    0.8100   Lee, Yang & Parr

   => LibXC Density Thresholds  <==

    XC_HYB_GGA_XC_B3LYP:  1.00E-15 

   => Molecular Quadrature <=

    Radial Scheme          =       TREUTLER
    Pruning Scheme         =           NONE
    Nuclear Scheme         =       TREUTLER

    Blocking Scheme        =         OCTREE
    BS radius alpha        =              1
    Pruning alpha          =              1
    Radial Points          =             75
    Spherical Points       =            302
    Total Points           =          41466
    Total Blocks           =            389
    Max Points             =            250
    Max Functions          =             36
    Weights Tolerance      =       1.00E-15


  -Total Gradient:
     Atom            X                  Y                   Z
    ------   -----------------  -----------------  -----------------
       1        0.000000000000    -0.000000000000    -2.580286112451
       2        0.000000000000     0.000000000000     2.580345250912


*** tstop() called on Joses-MacBook-Pro-2.local at Thu Jul 17 15:41:09 2025
Module time:
	user time   =       2.24 seconds =       0.04 minutes
	system time =       1.80 seconds =       0.03 minutes
	total time  =          1 seconds =       0.02 minutes
Total time:
	user time   =      30.49 seconds =       0.51 minutes
	system time =       6.94 seconds =       0.12 minutes
	total time  =          4 seconds =       0.07 minutes

    			-----------------------------------------

    			 OPTKING 3.0: for geometry optimizations 

    			     By R.A. King, Bethel University     

    			        with contributions from          

    			    A.V. Copan, J. Cayton, A. Heide      

    			-----------------------------------------

    
	                            ===> Fragment 1 <== 

	 Z (Atomic Numbers)          Masses                          Geom                  
	      14.000000            27.976927          0.00000000  0.00000000  1.21586255   
	      16.000000            31.972071          0.00000000  0.00000000 -1.06393162   

	 - Coordinate -           - BOHR/RAD -       - ANG/DEG -
	 R(1,2)           =         2.279794           1.206415


	        --- Internal Coordinate Step in ANG or DEG, aJ/ANG or AJ/DEG ---
	-------------------------------------------------------------------------------
	           Coordinate      Previous         Force          Change          New 
	           ----------      --------        ------          ------        ------
	               R(1,2)       1.20642       21.25851        0.01253       1.21895
	-------------------------------------------------------------------------------

	                                 ==> Convergence Check <==                                  
    
	Measures of convergence in internal coordinates in au.
    
	Criteria marked as inactive (o), active & met (*), and active & unmet ( ).

	----------------------------------------------------------------------------------------------
	   Step    Total Energy     Delta E     Max Force     RMS Force      Max Disp      RMS Disp   
	----------------------------------------------------------------------------------------------
	  Convergence Criteria     1.00e-06 *    3.00e-04 *             o    1.20e-03 *             o
	----------------------------------------------------------------------------------------------
	     2    -685.98148812   -3.16e-02      2.58e+00      2.58e+00 o    2.37e-02      2.37e-02 o  ~
	----------------------------------------------------------------------------------------------

Next Geometry in Ang 
	Fragment 1 (Ang)

	   Si   0.0000000000   0.0000000000   0.6496718632
	    S   0.0000000000   0.0000000000  -0.5692734732


    Structure for next step:
    Molecular point group: c2v
    Full point group: C_inf_v

    Geometry (in Angstrom), charge = 1, multiplicity = 4:

    SI           0.000000000000     0.000000000000     0.650089385025
    S            0.000000000000     0.000000000000    -0.568855951390


Scratch directory: /tmp/
gradient() will perform analytic gradient computation.
   => Libint2 <=

    Primary   basis highest AM E, G, H:  6, 6, 3
    Auxiliary basis highest AM E, G, H:  7, 7, 4
    Onebody   basis highest AM E, G, H:  -, -, -
    Solid Harmonics ordering:            Gaussian

*** tstart() called on Joses-MacBook-Pro-2.local
*** at Thu Jul 17 15:41:09 2025

   => Loading Basis Set <=

    Name: CC-PVDZ
    Role: ORBITAL
    Keyword: BASIS
    atoms 1 entry SI         line   478 file /Users/joseantoniorodriguesromero/anaconda3/share/psi4/basis/cc-pvdz.gbs 
    atoms 2 entry S          line   598 file /Users/joseantoniorodriguesromero/anaconda3/share/psi4/basis/cc-pvdz.gbs 


         ---------------------------------------------------------
                                   SCF
               by Justin Turney, Rob Parrish, Andy Simmonett
                          and Daniel G. A. Smith
                              UKS Reference
                        1 Threads,    500 MiB Core
         ---------------------------------------------------------

  ==> Geometry <==

    Molecular point group: c2v
    Full point group: C_inf_v

    Geometry (in Angstrom), charge = 1, multiplicity = 4:

       Center              X                  Y                   Z               Mass       
    ------------   -----------------  -----------------  -----------------  -----------------
         SI           0.000000000000     0.000000000000     0.650089385025    27.976926534650
         S            0.000000000000     0.000000000000    -0.568855951390    31.972071174400

  Running in c2v symmetry.

  Rotational constants: A = ************  B =      0.76039  C =      0.76039 [cm^-1]
  Rotational constants: A = ************  B =  22796.06528  C =  22796.06528 [MHz]
  Nuclear repulsion =   97.244471633754358

  Charge       = 1
  Multiplicity = 4
  Electrons    = 29
  Nalpha       = 16
  Nbeta        = 13

  ==> Algorithm <==

  SCF Algorithm Type is DF.
  DIIS enabled.
  MOM disabled.
  Fractional occupation disabled.
  Guess Type is READ.
  Energy threshold   = 1.00e-08
  Density threshold  = 1.00e-08
  Integral threshold = 1.00e-12

  ==> Primary Basis <==

  Basis Set: CC-PVDZ
    Blend: CC-PVDZ
    Number of shells: 16
    Number of basis functions: 36
    Number of Cartesian functions: 38
    Spherical Harmonics?: true
    Max angular momentum: 2

  ==> DFT Potential <==

   => LibXC <=

    Version 6.2.2
    S. Lehtola, C. Steigemann, M. J.T. Oliveira, and M. A.L. Marques.,  SoftwareX 7, 1–5 (2018) (10.1016/j.softx.2017.11.002)

   => Composite Functional: B3LYP <= 

    B3LYP Hyb-GGA Exchange-Correlation Functional

    P. J. Stephens, F. J. Devlin, C. F. Chabalowski, and M. J. Frisch.,  J. Phys. Chem. 98, 11623 (1994) (10.1021/j100096a001)

    Deriv               =              1
    GGA                 =           TRUE
    Meta                =          FALSE

    Exchange Hybrid     =           TRUE
    MP2 Hybrid          =          FALSE

   => Exchange Functionals <=

    0.0800   Slater exchange
    0.7200         Becke 88

   => Exact (HF) Exchange <=

    0.2000               HF 

   => Correlation Functionals <=

    0.1900   Vosko, Wilk & Nusair (VWN5_RPA)
    0.8100   Lee, Yang & Parr

   => LibXC Density Thresholds  <==

    XC_HYB_GGA_XC_B3LYP:  1.00E-15 

   => Molecular Quadrature <=

    Radial Scheme          =       TREUTLER
    Pruning Scheme         =           NONE
    Nuclear Scheme         =       TREUTLER

    Blocking Scheme        =         OCTREE
    BS radius alpha        =              1
    Pruning alpha          =              1
    Radial Points          =             75
    Spherical Points       =            302
    Total Points           =          41466
    Total Blocks           =            389
    Max Points             =            248
    Max Functions          =             36
    Weights Tolerance      =       1.00E-15

   => Loading Basis Set <=

    Name: (CC-PVDZ AUX)
    Role: JKFIT
    Keyword: DF_BASIS_SCF
    atoms 1 entry SI         line   445 file /Users/joseantoniorodriguesromero/anaconda3/share/psi4/basis/cc-pvdz-jkfit.gbs 
    atoms 2 entry S          line   593 file /Users/joseantoniorodriguesromero/anaconda3/share/psi4/basis/cc-pvdz-jkfit.gbs 

   => Loading Basis Set <=

    Name: CC-PVDZ
    Role: ORBITAL
    Keyword: BASIS
    atoms 1 entry SI         line   478 file /Users/joseantoniorodriguesromero/anaconda3/share/psi4/basis/cc-pvdz.gbs 
    atoms 2 entry S          line   598 file /Users/joseantoniorodriguesromero/anaconda3/share/psi4/basis/cc-pvdz.gbs 

  Reading orbitals from file /tmp/quartet_SiS.default.75570.180.npy, no projection.

  ==> Integral Setup <==

  DFHelper Memory: AOs need 0.003 GiB; user supplied 0.324 GiB. 
  Using in-core AOs.

  ==> MemDFJK: Density-Fitted J/K Matrices <==

    J tasked:                   Yes
    K tasked:                   Yes
    wK tasked:                   No
    OpenMP threads:               1
    Memory [MiB]:               331
    Algorithm:                 Core
    Schwarz Cutoff:           1E-12
    Mask sparsity (%):       0.0000
    Fitting Condition:        1E-10

   => Auxiliary Basis Set <=

  Basis Set: (CC-PVDZ AUX)
    Blend: CC-PVDZ-JKFIT
    Number of shells: 72
    Number of basis functions: 224
    Number of Cartesian functions: 260
    Spherical Harmonics?: true
    Max angular momentum: 3

  Cached 100.0% of DFT collocation blocks in 0.043 [GiB].

  Minimum eigenvalue in the overlap matrix is 5.2194633049E-03.
  Reciprocal condition number of the overlap matrix is 1.6372075703E-03.
    Using symmetric orthogonalization.

  ==> Pre-Iterations <==

  SCF Guess: Orbitals guess was supplied from a previous computation.

   -------------------------------------------------------
    Irrep   Nso     Nmo     Nalpha   Nbeta   Ndocc  Nsocc
   -------------------------------------------------------
     A1        18      18       9       7       7       2
     A2         2       2       0       0       0       0
     B1         8       8       4       3       3       1
     B2         8       8       3       3       3       0
   -------------------------------------------------------
    Total      36      36      16      13      13       3
   -------------------------------------------------------

  ==> Iterations <==

                           Total Energy        Delta E     RMS |[F,P]|

   @DF-UKS iter   0:  -686.04369340417611   -6.86044e+02   5.25387e-03 
   @DF-UKS iter   1:  -686.04117018408112    2.52322e-03   3.94561e-04 DIIS/ADIIS
   @DF-UKS iter   2:  -686.04119438931843   -2.42052e-05   2.60391e-04 DIIS/ADIIS/DAMP=1%
   @DF-UKS iter   3:  -686.04160450145355   -4.10112e-04   1.20084e-05 DIIS/DAMP=1%
   @DF-UKS iter   4:  -686.04121287538908    3.91626e-04   6.41082e-06 DIIS/DAMP=1%
   @DF-UKS iter   5:  -686.04121198188238    8.93507e-07   1.39063e-06 DIIS/DAMP=1%
   @DF-UKS iter   6:  -686.04121348016702   -1.49828e-06   1.72464e-07 DIIS/DAMP=1%
   @DF-UKS iter   7:  -686.04121209765685    1.38251e-06   3.06100e-08 DIIS/DAMP=1%
   @DF-UKS iter   8:  -686.04121232698765   -2.29331e-07   2.43976e-09 DIIS/DAMP=1%
   @DF-UKS iter   9:  -686.04121229260227    3.43854e-08   2.36920e-10 DIIS/DAMP=1%
   @DF-UKS iter  10:  -686.04121229416671   -1.56444e-09   3.08566e-11 DIIS/DAMP=1%
  Energy and wave function converged.


  ==> Post-Iterations <==

   Electrons on quadrature grid:
      Nalpha   =   15.9999980642 ; deviation = -1.936e-06
      Nbeta    =   12.9999980537 ; deviation = -1.946e-06
      Ntotal   =   28.9999961179 ; deviation = -3.882e-06 

   @Spin Contamination Metric:   4.680785587E-03
   @S^2 Expected:                3.750000000E+00
   @S^2 Observed:                3.754680786E+00
   @S   Expected:                1.500000000E+00
   @S   Observed:                1.500000000E+00

    Orbital Energies [Eh]
    ---------------------

    Alpha Occupied:                                                       

       1A1   -89.251792     2A1   -66.500415     3A1    -8.382620  
       4A1    -6.375865     1B2    -6.319694     1B1    -6.317228  
       5A1    -5.734961     6A1    -4.123039     2B2    -4.066031  
       2B1    -4.062338     7A1    -1.173421     8A1    -0.779101  
       3B2    -0.741499     3B1    -0.739089     9A1    -0.567197  
       4B1    -0.368360  

    Alpha Virtual:                                                        

       4B2    -0.305295    10A1    -0.151639     5B2    -0.064017  
       5B1    -0.063841     1A2    -0.032771    11A1    -0.030975  
      12A1     0.010687    13A1     0.055403     6B1     0.124445  
       6B2     0.132093    14A1     0.136338     7B1     0.282450  
       7B2     0.282655     2A2     0.368523    15A1     0.370250  
      16A1     0.399284     8B2     0.751278     8B1     0.752108  
      17A1     0.810093    18A1     1.469993  

    Beta Occupied:                                                        

       1A1   -89.242139     2A1   -66.489211     3A1    -8.372316  
       4A1    -6.350965     1B2    -6.313387     1B1    -6.307032  
       5A1    -5.720855     6A1    -4.101543     2B2    -4.057218  
       2B1    -4.045434     7A1    -1.123169     3B2    -0.721900  
       3B1    -0.701287  

    Beta Virtual:                                                         

       8A1    -0.592527     9A1    -0.391819     4B2    -0.249401  
       4B1    -0.223901    10A1    -0.126226     5B2    -0.039819  
       5B1    -0.024596     1A2     0.006299    11A1     0.006412  
      12A1     0.054862    13A1     0.096185     6B2     0.184159  
       6B1     0.205943    14A1     0.217994     7B2     0.312208  
       7B1     0.330227     2A2     0.417895    15A1     0.418246  
      16A1     0.449224     8B2     0.804885     8B1     0.826256  
      17A1     0.852270    18A1     1.511731  

    Final Occupation by Irrep:
             A1    A2    B1    B2 
    DOCC [     7,    0,    3,    3 ]
    SOCC [     2,    0,    1,    0 ]
    NA   [     9,    0,    4,    3 ]
    NB   [     7,    0,    3,    3 ]

  @DF-UKS Final Energy:  -686.04121229416671

   => Energetics <=

    Nuclear Repulsion Energy =             97.2444716337543582
    One-Electron Energy =               -1130.6723046360339140
    Two-Electron Energy =                 385.1316388631475434
    DFT Exchange-Correlation Energy =     -37.7450181550346784
    Empirical Dispersion Energy =           0.0000000000000000
    VV10 Nonlocal Energy =                  0.0000000000000000
    Total Energy =                       -686.0412122941667121

  UHF NO Occupations:
  HONO-2 :    4 B1 1.0000000
  HONO-1 :    8 A1 1.0000000
  HONO-0 :    9 A1 1.0000000
  LUNO+0 :    5 B1 0.0014475
  LUNO+1 :    4 B2 0.0004640
  LUNO+2 :   10 A1 0.0004288
  LUNO+3 :    5 B2 0.0000006


Computation Completed


Properties will be evaluated at   0.000000,   0.000000,   0.000000 [a0]

Properties computed using the SCF density matrix


 Multipole Moments:

 ------------------------------------------------------------------------------------
     Multipole            Electronic (a.u.)      Nuclear  (a.u.)        Total (a.u.)
 ------------------------------------------------------------------------------------

 L = 1.  Multiply by 2.5417464519 to convert [e a0] to [Debye]
 Dipole X            :          0.0000000            0.0000000            0.0000000
 Dipole Y            :          0.0000000            0.0000000            0.0000000
 Dipole Z            :         -0.3239512           -0.0008387           -0.3247899
 Magnitude           :                                                    0.3247899

 ------------------------------------------------------------------------------------

*** tstop() called on Joses-MacBook-Pro-2.local at Thu Jul 17 15:41:10 2025
Module time:
	user time   =       8.70 seconds =       0.15 minutes
	system time =       1.50 seconds =       0.03 minutes
	total time  =          1 seconds =       0.02 minutes
Total time:
	user time   =      39.51 seconds =       0.66 minutes
	system time =       8.44 seconds =       0.14 minutes
	total time  =          5 seconds =       0.08 minutes

*** tstart() called on Joses-MacBook-Pro-2.local
*** at Thu Jul 17 15:41:10 2025


         ------------------------------------------------------------
                                   SCF GRAD                          
                          Rob Parrish, Justin Turney,                
                       Andy Simmonett, and Alex Sokolov              
         ------------------------------------------------------------

  ==> Geometry <==

    Molecular point group: c2v
    Full point group: C_inf_v

    Geometry (in Angstrom), charge = 1, multiplicity = 4:

       Center              X                  Y                   Z               Mass       
    ------------   -----------------  -----------------  -----------------  -----------------
         SI           0.000000000000     0.000000000000     0.650089385025    27.976926534650
         S            0.000000000000     0.000000000000    -0.568855951390    31.972071174400

  Nuclear repulsion =   97.244471633754358

  ==> Basis Set <==

  Basis Set: CC-PVDZ
    Blend: CC-PVDZ
    Number of shells: 16
    Number of basis functions: 36
    Number of Cartesian functions: 38
    Spherical Harmonics?: true
    Max angular momentum: 2

  ==> DFJKGrad: Density-Fitted SCF Gradients <==

    Gradient:                    1
    J tasked:                  Yes
    K tasked:                  Yes
    wK tasked:                  No
    OpenMP threads:              1
    Integrals threads:           1
    Memory [MiB]:              375
    Schwarz Cutoff:          1E-12
    Fitting Condition:       1E-10

   => Auxiliary Basis Set <=

  Basis Set: (CC-PVDZ AUX)
    Blend: CC-PVDZ-JKFIT
    Number of shells: 72
    Number of basis functions: 224
    Number of Cartesian functions: 260
    Spherical Harmonics?: true
    Max angular momentum: 3

  ==> DFT Potential <==

   => LibXC <=

    Version 6.2.2
    S. Lehtola, C. Steigemann, M. J.T. Oliveira, and M. A.L. Marques.,  SoftwareX 7, 1–5 (2018) (10.1016/j.softx.2017.11.002)

   => Composite Functional: B3LYP <= 

    B3LYP Hyb-GGA Exchange-Correlation Functional

    P. J. Stephens, F. J. Devlin, C. F. Chabalowski, and M. J. Frisch.,  J. Phys. Chem. 98, 11623 (1994) (10.1021/j100096a001)

    Deriv               =              1
    GGA                 =           TRUE
    Meta                =          FALSE

    Exchange Hybrid     =           TRUE
    MP2 Hybrid          =          FALSE

   => Exchange Functionals <=

    0.0800   Slater exchange
    0.7200         Becke 88

   => Exact (HF) Exchange <=

    0.2000               HF 

   => Correlation Functionals <=

    0.1900   Vosko, Wilk & Nusair (VWN5_RPA)
    0.8100   Lee, Yang & Parr

   => LibXC Density Thresholds  <==

    XC_HYB_GGA_XC_B3LYP:  1.00E-15 

   => Molecular Quadrature <=

    Radial Scheme          =       TREUTLER
    Pruning Scheme         =           NONE
    Nuclear Scheme         =       TREUTLER

    Blocking Scheme        =         OCTREE
    BS radius alpha        =              1
    Pruning alpha          =              1
    Radial Points          =             75
    Spherical Points       =            302
    Total Points           =          41466
    Total Blocks           =            389
    Max Points             =            248
    Max Functions          =             36
    Weights Tolerance      =       1.00E-15


  -Total Gradient:
     Atom            X                  Y                   Z
    ------   -----------------  -----------------  -----------------
       1        0.000000000000    -0.000000000000    -2.464912386421
       2        0.000000000000    -0.000000000000     2.464965280423


*** tstop() called on Joses-MacBook-Pro-2.local at Thu Jul 17 15:41:10 2025
Module time:
	user time   =       2.52 seconds =       0.04 minutes
	system time =       0.83 seconds =       0.01 minutes
	total time  =          0 seconds =       0.00 minutes
Total time:
	user time   =      42.04 seconds =       0.70 minutes
	system time =       9.27 seconds =       0.15 minutes
	total time  =          5 seconds =       0.08 minutes

    			-----------------------------------------

    			 OPTKING 3.0: for geometry optimizations 

    			     By R.A. King, Bethel University     

    			        with contributions from          

    			    A.V. Copan, J. Cayton, A. Heide      

    			-----------------------------------------

    
	                            ===> Fragment 1 <== 

	 Z (Atomic Numbers)          Masses                          Geom                  
	      14.000000            27.976927          0.00000000  0.00000000  1.22849089   
	      16.000000            31.972071          0.00000000  0.00000000 -1.07498195   

	 - Coordinate -           - BOHR/RAD -       - ANG/DEG -
	 R(1,2)           =         2.303473           1.218945


	        --- Internal Coordinate Step in ANG or DEG, aJ/ANG or AJ/DEG ---
	-------------------------------------------------------------------------------
	           Coordinate      Previous         Force          Change          New 
	           ----------      --------        ------          ------        ------
	               R(1,2)       1.21895       20.30795        0.04752       1.26647
	-------------------------------------------------------------------------------

	                                 ==> Convergence Check <==                                  
    
	Measures of convergence in internal coordinates in au.
    
	Criteria marked as inactive (o), active & met (*), and active & unmet ( ).

	----------------------------------------------------------------------------------------------
	   Step    Total Energy     Delta E     Max Force     RMS Force      Max Disp      RMS Disp   
	----------------------------------------------------------------------------------------------
	  Convergence Criteria     1.00e-06 *    3.00e-04 *             o    1.20e-03 *             o
	----------------------------------------------------------------------------------------------
	     3    -686.04121229   -5.97e-02      2.46e+00      2.46e+00 o    8.98e-02      8.98e-02 o  ~
	----------------------------------------------------------------------------------------------

Next Geometry in Ang 
	Fragment 1 (Ang)

	   Si   0.0000000000   0.0000000000   0.6738495282
	    S   0.0000000000   0.0000000000  -0.5926160946


    Structure for next step:
    Molecular point group: c2v
    Full point group: C_inf_v

    Geometry (in Angstrom), charge = 1, multiplicity = 4:

    SI           0.000000000000     0.000000000000     0.675432960986
    S            0.000000000000     0.000000000000    -0.591032661773


Scratch directory: /tmp/
gradient() will perform analytic gradient computation.
   => Libint2 <=

    Primary   basis highest AM E, G, H:  6, 6, 3
    Auxiliary basis highest AM E, G, H:  7, 7, 4
    Onebody   basis highest AM E, G, H:  -, -, -
    Solid Harmonics ordering:            Gaussian

*** tstart() called on Joses-MacBook-Pro-2.local
*** at Thu Jul 17 15:41:10 2025

   => Loading Basis Set <=

    Name: CC-PVDZ
    Role: ORBITAL
    Keyword: BASIS
    atoms 1 entry SI         line   478 file /Users/joseantoniorodriguesromero/anaconda3/share/psi4/basis/cc-pvdz.gbs 
    atoms 2 entry S          line   598 file /Users/joseantoniorodriguesromero/anaconda3/share/psi4/basis/cc-pvdz.gbs 


         ---------------------------------------------------------
                                   SCF
               by Justin Turney, Rob Parrish, Andy Simmonett
                          and Daniel G. A. Smith
                              UKS Reference
                        1 Threads,    500 MiB Core
         ---------------------------------------------------------

  ==> Geometry <==

    Molecular point group: c2v
    Full point group: C_inf_v

    Geometry (in Angstrom), charge = 1, multiplicity = 4:

       Center              X                  Y                   Z               Mass       
    ------------   -----------------  -----------------  -----------------  -----------------
         SI           0.000000000000     0.000000000000     0.675432960986    27.976926534650
         S            0.000000000000     0.000000000000    -0.591032661773    31.972071174400

  Running in c2v symmetry.

  Rotational constants: A = ************  B =      0.70440  C =      0.70440 [cm^-1]
  Rotational constants: A = ************  B =  21117.45323  C =  21117.45323 [MHz]
  Nuclear repulsion =   93.595667391170451

  Charge       = 1
  Multiplicity = 4
  Electrons    = 29
  Nalpha       = 16
  Nbeta        = 13

  ==> Algorithm <==

  SCF Algorithm Type is DF.
  DIIS enabled.
  MOM disabled.
  Fractional occupation disabled.
  Guess Type is READ.
  Energy threshold   = 1.00e-08
  Density threshold  = 1.00e-08
  Integral threshold = 1.00e-12

  ==> Primary Basis <==

  Basis Set: CC-PVDZ
    Blend: CC-PVDZ
    Number of shells: 16
    Number of basis functions: 36
    Number of Cartesian functions: 38
    Spherical Harmonics?: true
    Max angular momentum: 2

  ==> DFT Potential <==

   => LibXC <=

    Version 6.2.2
    S. Lehtola, C. Steigemann, M. J.T. Oliveira, and M. A.L. Marques.,  SoftwareX 7, 1–5 (2018) (10.1016/j.softx.2017.11.002)

   => Composite Functional: B3LYP <= 

    B3LYP Hyb-GGA Exchange-Correlation Functional

    P. J. Stephens, F. J. Devlin, C. F. Chabalowski, and M. J. Frisch.,  J. Phys. Chem. 98, 11623 (1994) (10.1021/j100096a001)

    Deriv               =              1
    GGA                 =           TRUE
    Meta                =          FALSE

    Exchange Hybrid     =           TRUE
    MP2 Hybrid          =          FALSE

   => Exchange Functionals <=

    0.0800   Slater exchange
    0.7200         Becke 88

   => Exact (HF) Exchange <=

    0.2000               HF 

   => Correlation Functionals <=

    0.1900   Vosko, Wilk & Nusair (VWN5_RPA)
    0.8100   Lee, Yang & Parr

   => LibXC Density Thresholds  <==

    XC_HYB_GGA_XC_B3LYP:  1.00E-15 

   => Molecular Quadrature <=

    Radial Scheme          =       TREUTLER
    Pruning Scheme         =           NONE
    Nuclear Scheme         =       TREUTLER

    Blocking Scheme        =         OCTREE
    BS radius alpha        =              1
    Pruning alpha          =              1
    Radial Points          =             75
    Spherical Points       =            302
    Total Points           =          41474
    Total Blocks           =            388
    Max Points             =            248
    Max Functions          =             36
    Weights Tolerance      =       1.00E-15

   => Loading Basis Set <=

    Name: (CC-PVDZ AUX)
    Role: JKFIT
    Keyword: DF_BASIS_SCF
    atoms 1 entry SI         line   445 file /Users/joseantoniorodriguesromero/anaconda3/share/psi4/basis/cc-pvdz-jkfit.gbs 
    atoms 2 entry S          line   593 file /Users/joseantoniorodriguesromero/anaconda3/share/psi4/basis/cc-pvdz-jkfit.gbs 

   => Loading Basis Set <=

    Name: CC-PVDZ
    Role: ORBITAL
    Keyword: BASIS
    atoms 1 entry SI         line   478 file /Users/joseantoniorodriguesromero/anaconda3/share/psi4/basis/cc-pvdz.gbs 
    atoms 2 entry S          line   598 file /Users/joseantoniorodriguesromero/anaconda3/share/psi4/basis/cc-pvdz.gbs 

  Reading orbitals from file /tmp/quartet_SiS.default.75570.180.npy, no projection.

  ==> Integral Setup <==

  DFHelper Memory: AOs need 0.003 GiB; user supplied 0.324 GiB. 
  Using in-core AOs.

  ==> MemDFJK: Density-Fitted J/K Matrices <==

    J tasked:                   Yes
    K tasked:                   Yes
    wK tasked:                   No
    OpenMP threads:               1
    Memory [MiB]:               331
    Algorithm:                 Core
    Schwarz Cutoff:           1E-12
    Mask sparsity (%):       0.0000
    Fitting Condition:        1E-10

   => Auxiliary Basis Set <=

  Basis Set: (CC-PVDZ AUX)
    Blend: CC-PVDZ-JKFIT
    Number of shells: 72
    Number of basis functions: 224
    Number of Cartesian functions: 260
    Spherical Harmonics?: true
    Max angular momentum: 3

  Cached 100.0% of DFT collocation blocks in 0.042 [GiB].

  Minimum eigenvalue in the overlap matrix is 5.7695775291E-03.
  Reciprocal condition number of the overlap matrix is 1.8116739894E-03.
    Using symmetric orthogonalization.

  ==> Pre-Iterations <==

  SCF Guess: Orbitals guess was supplied from a previous computation.

   -------------------------------------------------------
    Irrep   Nso     Nmo     Nalpha   Nbeta   Ndocc  Nsocc
   -------------------------------------------------------
     A1        18      18       9       7       7       2
     A2         2       2       0       0       0       0
     B1         8       8       4       3       3       1
     B2         8       8       3       3       3       0
   -------------------------------------------------------
    Total      36      36      16      13      13       3
   -------------------------------------------------------

  ==> Iterations <==

                           Total Energy        Delta E     RMS |[F,P]|

   @DF-UKS iter   0:  -686.25824747788545   -6.86258e+02   1.91978e-02 
   @DF-UKS iter   1:  -686.24357245812257    1.46750e-02   1.44245e-03 DIIS/ADIIS
   @DF-UKS iter   2:  -686.24389552722300   -3.23069e-04   9.38962e-04 DIIS/ADIIS/DAMP=1%
   @DF-UKS iter   3:  -686.24554942983059   -1.65390e-03   3.80384e-05 DIIS/DAMP=1%
   @DF-UKS iter   4:  -686.24412656763025    1.42286e-03   1.78629e-05 DIIS/DAMP=1%
   @DF-UKS iter   5:  -686.24413556533136   -8.99770e-06   5.84819e-06 DIIS/DAMP=1%
   @DF-UKS iter   6:  -686.24413740566717   -1.84034e-06   6.25321e-07 DIIS/DAMP=1%
   @DF-UKS iter   7:  -686.24413294766873    4.45800e-06   1.17945e-07 DIIS/DAMP=1%
   @DF-UKS iter   8:  -686.24413377802466   -8.30356e-07   1.08128e-08 DIIS/DAMP=1%
   @DF-UKS iter   9:  -686.24413365155783    1.26467e-07   9.40114e-10 DIIS/DAMP=1%
   @DF-UKS iter  10:  -686.24413365842554   -6.86771e-09   1.29821e-10 DIIS/DAMP=1%
  Energy and wave function converged.


  ==> Post-Iterations <==

   Electrons on quadrature grid:
      Nalpha   =   15.9999984467 ; deviation = -1.553e-06
      Nbeta    =   12.9999984106 ; deviation = -1.589e-06
      Ntotal   =   28.9999968573 ; deviation = -3.143e-06 

   @Spin Contamination Metric:   5.085836847E-03
   @S^2 Expected:                3.750000000E+00
   @S^2 Observed:                3.755085837E+00
   @S   Expected:                1.500000000E+00
   @S   Observed:                1.500000000E+00

    Orbital Energies [Eh]
    ---------------------

    Alpha Occupied:                                                       

       1A1   -89.236127     2A1   -66.485146     3A1    -8.359020  
       4A1    -6.347912     1B2    -6.299849     1B1    -6.297402  
       5A1    -5.707478     6A1    -4.092131     2B2    -4.043957  
       2B1    -4.040280     7A1    -1.170443     8A1    -0.783150  
       3B2    -0.726083     3B1    -0.724206     9A1    -0.573912  
       4B1    -0.372191  

    Alpha Virtual:                                                        

       4B2    -0.309407    10A1    -0.153301     5B2    -0.058950  
       5B1    -0.058844     1A2    -0.021905    11A1    -0.020133  
      12A1     0.006627    13A1     0.050436     6B1     0.122489  
      14A1     0.128821     6B2     0.129784     7B2     0.279905  
       7B1     0.279979     2A2     0.362434    15A1     0.364075  
      16A1     0.392206     8B2     0.734848     8B1     0.735512  
      17A1     0.778027    18A1     1.399837  

    Beta Occupied:                                                        

       1A1   -89.226525     2A1   -66.474151     3A1    -8.348669  
       4A1    -6.323421     1B2    -6.293496     1B1    -6.287170  
       5A1    -5.693543     6A1    -4.071422     2B2    -4.035259  
       2B1    -4.023290     7A1    -1.120537     3B2    -0.706265  
       3B1    -0.685900  

    Beta Virtual:                                                         

       8A1    -0.597303     9A1    -0.398913     4B2    -0.253302  
       4B1    -0.227782    10A1    -0.126837     5B2    -0.034252  
       5B1    -0.018989     1A2     0.018626    11A1     0.018648  
      12A1     0.049478    13A1     0.092281     6B2     0.182204  
       6B1     0.204269    14A1     0.209250     7B2     0.307455  
       7B1     0.324956     2A2     0.411306    15A1     0.411661  
      16A1     0.442732     8B2     0.788963     8B1     0.810267  
      17A1     0.818639    18A1     1.442293  

    Final Occupation by Irrep:
             A1    A2    B1    B2 
    DOCC [     7,    0,    3,    3 ]
    SOCC [     2,    0,    1,    0 ]
    NA   [     9,    0,    4,    3 ]
    NB   [     7,    0,    3,    3 ]

  @DF-UKS Final Energy:  -686.24413365842554

   => Energetics <=

    Nuclear Repulsion Energy =             93.5956673911704513
    One-Electron Energy =               -1124.3102362486079073
    Two-Electron Energy =                 382.1721835002672378
    DFT Exchange-Correlation Energy =     -37.7017483012553711
    Empirical Dispersion Energy =           0.0000000000000000
    VV10 Nonlocal Energy =                  0.0000000000000000
    Total Energy =                       -686.2441336584255396

  UHF NO Occupations:
  HONO-2 :    8 A1 1.0000000
  HONO-1 :    4 B1 1.0000000
  HONO-0 :    9 A1 1.0000000
  LUNO+0 :    5 B1 0.0015812
  LUNO+1 :    4 B2 0.0005212
  LUNO+2 :   10 A1 0.0004406
  LUNO+3 :    5 B2 0.0000007


Computation Completed


Properties will be evaluated at   0.000000,   0.000000,   0.000000 [a0]

Properties computed using the SCF density matrix


 Multipole Moments:

 ------------------------------------------------------------------------------------
     Multipole            Electronic (a.u.)      Nuclear  (a.u.)        Total (a.u.)
 ------------------------------------------------------------------------------------

 L = 1.  Multiply by 2.5417464519 to convert [e a0] to [Debye]
 Dipole X            :          0.0000000            0.0000000            0.0000000
 Dipole Y            :          0.0000000            0.0000000            0.0000000
 Dipole Z            :         -0.2759662           -0.0008714           -0.2768376
 Magnitude           :                                                    0.2768376

 ------------------------------------------------------------------------------------

*** tstop() called on Joses-MacBook-Pro-2.local at Thu Jul 17 15:41:11 2025
Module time:
	user time   =       8.17 seconds =       0.14 minutes
	system time =       1.85 seconds =       0.03 minutes
	total time  =          1 seconds =       0.02 minutes
Total time:
	user time   =      50.36 seconds =       0.84 minutes
	system time =      11.26 seconds =       0.19 minutes
	total time  =          6 seconds =       0.10 minutes

*** tstart() called on Joses-MacBook-Pro-2.local
*** at Thu Jul 17 15:41:11 2025


         ------------------------------------------------------------
                                   SCF GRAD                          
                          Rob Parrish, Justin Turney,                
                       Andy Simmonett, and Alex Sokolov              
         ------------------------------------------------------------

  ==> Geometry <==

    Molecular point group: c2v
    Full point group: C_inf_v

    Geometry (in Angstrom), charge = 1, multiplicity = 4:

       Center              X                  Y                   Z               Mass       
    ------------   -----------------  -----------------  -----------------  -----------------
         SI           0.000000000000     0.000000000000     0.675432960986    27.976926534650
         S            0.000000000000     0.000000000000    -0.591032661773    31.972071174400

  Nuclear repulsion =   93.595667391170451

  ==> Basis Set <==

  Basis Set: CC-PVDZ
    Blend: CC-PVDZ
    Number of shells: 16
    Number of basis functions: 36
    Number of Cartesian functions: 38
    Spherical Harmonics?: true
    Max angular momentum: 2

  ==> DFJKGrad: Density-Fitted SCF Gradients <==

    Gradient:                    1
    J tasked:                  Yes
    K tasked:                  Yes
    wK tasked:                  No
    OpenMP threads:              1
    Integrals threads:           1
    Memory [MiB]:              375
    Schwarz Cutoff:          1E-12
    Fitting Condition:       1E-10

   => Auxiliary Basis Set <=

  Basis Set: (CC-PVDZ AUX)
    Blend: CC-PVDZ-JKFIT
    Number of shells: 72
    Number of basis functions: 224
    Number of Cartesian functions: 260
    Spherical Harmonics?: true
    Max angular momentum: 3

  ==> DFT Potential <==

   => LibXC <=

    Version 6.2.2
    S. Lehtola, C. Steigemann, M. J.T. Oliveira, and M. A.L. Marques.,  SoftwareX 7, 1–5 (2018) (10.1016/j.softx.2017.11.002)

   => Composite Functional: B3LYP <= 

    B3LYP Hyb-GGA Exchange-Correlation Functional

    P. J. Stephens, F. J. Devlin, C. F. Chabalowski, and M. J. Frisch.,  J. Phys. Chem. 98, 11623 (1994) (10.1021/j100096a001)

    Deriv               =              1
    GGA                 =           TRUE
    Meta                =          FALSE

    Exchange Hybrid     =           TRUE
    MP2 Hybrid          =          FALSE

   => Exchange Functionals <=

    0.0800   Slater exchange
    0.7200         Becke 88

   => Exact (HF) Exchange <=

    0.2000               HF 

   => Correlation Functionals <=

    0.1900   Vosko, Wilk & Nusair (VWN5_RPA)
    0.8100   Lee, Yang & Parr

   => LibXC Density Thresholds  <==

    XC_HYB_GGA_XC_B3LYP:  1.00E-15 

   => Molecular Quadrature <=

    Radial Scheme          =       TREUTLER
    Pruning Scheme         =           NONE
    Nuclear Scheme         =       TREUTLER

    Blocking Scheme        =         OCTREE
    BS radius alpha        =              1
    Pruning alpha          =              1
    Radial Points          =             75
    Spherical Points       =            302
    Total Points           =          41474
    Total Blocks           =            388
    Max Points             =            248
    Max Functions          =             36
    Weights Tolerance      =       1.00E-15


  -Total Gradient:
     Atom            X                  Y                   Z
    ------   -----------------  -----------------  -----------------
       1        0.000000000000     0.000000000000    -2.063826650523
       2       -0.000000000000     0.000000000000     2.063836846630


*** tstop() called on Joses-MacBook-Pro-2.local at Thu Jul 17 15:41:11 2025
Module time:
	user time   =       3.14 seconds =       0.05 minutes
	system time =       1.20 seconds =       0.02 minutes
	total time  =          0 seconds =       0.00 minutes
Total time:
	user time   =      53.50 seconds =       0.89 minutes
	system time =      12.46 seconds =       0.21 minutes
	total time  =          6 seconds =       0.10 minutes

    			-----------------------------------------

    			 OPTKING 3.0: for geometry optimizations 

    			     By R.A. King, Bethel University     

    			        with contributions from          

    			    A.V. Copan, J. Cayton, A. Heide      

    			-----------------------------------------

    
	                            ===> Fragment 1 <== 

	 Z (Atomic Numbers)          Masses                          Geom                  
	      14.000000            27.976927          0.00000000  0.00000000  1.27638331   
	      16.000000            31.972071          0.00000000  0.00000000 -1.11688986   

	 - Coordinate -           - BOHR/RAD -       - ANG/DEG -
	 R(1,2)           =         2.393273           1.266466


	        --- Internal Coordinate Step in ANG or DEG, aJ/ANG or AJ/DEG ---
	-------------------------------------------------------------------------------
	           Coordinate      Previous         Force          Change          New 
	           ----------      --------        ------          ------        ------
	               R(1,2)       1.26647       17.00334        0.20277       1.46924
	-------------------------------------------------------------------------------

	                                 ==> Convergence Check <==                                  
    
	Measures of convergence in internal coordinates in au.
    
	Criteria marked as inactive (o), active & met (*), and active & unmet ( ).

	----------------------------------------------------------------------------------------------
	   Step    Total Energy     Delta E     Max Force     RMS Force      Max Disp      RMS Disp   
	----------------------------------------------------------------------------------------------
	  Convergence Criteria     1.00e-06 *    3.00e-04 *             o    1.20e-03 *             o
	----------------------------------------------------------------------------------------------
	     4    -686.24413366   -2.03e-01      2.06e+00      2.06e+00 o    3.83e-01      3.83e-01 o  ~
	----------------------------------------------------------------------------------------------

Next Geometry in Ang 
	Fragment 1 (Ang)

	   Si   0.0000000000   0.0000000000   0.7768176740
	    S   0.0000000000   0.0000000000  -0.6924173748


    Structure for next step:
    Molecular point group: c2v
    Full point group: C_inf_v

    Geometry (in Angstrom), charge = 1, multiplicity = 4:

    SI           0.000000000000     0.000000000000     0.783574193842
    S            0.000000000000     0.000000000000    -0.685660854938


Scratch directory: /tmp/
gradient() will perform analytic gradient computation.
   => Libint2 <=

    Primary   basis highest AM E, G, H:  6, 6, 3
    Auxiliary basis highest AM E, G, H:  7, 7, 4
    Onebody   basis highest AM E, G, H:  -, -, -
    Solid Harmonics ordering:            Gaussian

*** tstart() called on Joses-MacBook-Pro-2.local
*** at Thu Jul 17 15:41:11 2025

   => Loading Basis Set <=

    Name: CC-PVDZ
    Role: ORBITAL
    Keyword: BASIS
    atoms 1 entry SI         line   478 file /Users/joseantoniorodriguesromero/anaconda3/share/psi4/basis/cc-pvdz.gbs 
    atoms 2 entry S          line   598 file /Users/joseantoniorodriguesromero/anaconda3/share/psi4/basis/cc-pvdz.gbs 


         ---------------------------------------------------------
                                   SCF
               by Justin Turney, Rob Parrish, Andy Simmonett
                          and Daniel G. A. Smith
                              UKS Reference
                        1 Threads,    500 MiB Core
         ---------------------------------------------------------

  ==> Geometry <==

    Molecular point group: c2v
    Full point group: C_inf_v

    Geometry (in Angstrom), charge = 1, multiplicity = 4:

       Center              X                  Y                   Z               Mass       
    ------------   -----------------  -----------------  -----------------  -----------------
         SI           0.000000000000     0.000000000000     0.783574193842    27.976926534650
         S            0.000000000000     0.000000000000    -0.685660854938    31.972071174400

  Running in c2v symmetry.

  Rotational constants: A = ************  B =      0.52339  C =      0.52339 [cm^-1]
  Rotational constants: A = ************  B =  15690.82549  C =  15690.82549 [MHz]
  Nuclear repulsion =   80.678510418435238

  Charge       = 1
  Multiplicity = 4
  Electrons    = 29
  Nalpha       = 16
  Nbeta        = 13

  ==> Algorithm <==

  SCF Algorithm Type is DF.
  DIIS enabled.
  MOM disabled.
  Fractional occupation disabled.
  Guess Type is READ.
  Energy threshold   = 1.00e-08
  Density threshold  = 1.00e-08
[...]
	   Step    Total Energy     Delta E     Max Force     RMS Force      Max Disp      RMS Disp   
	----------------------------------------------------------------------------------------------
	  Convergence Criteria     1.00e-06 *    3.00e-04 *             o    1.20e-03 *             o
	----------------------------------------------------------------------------------------------
	    16    -687.25241488   -2.27e-06      1.44e-04 *    1.44e-04 o    1.63e-03      1.63e-03 o  ~
	----------------------------------------------------------------------------------------------

Next Geometry in Ang 
	Fragment 1 (Ang)

	   Si   0.0000000000   0.0000000000   1.1899697234
	    S   0.0000000000   0.0000000000  -1.0413281496


    Structure for next step:
    Molecular point group: c2v
    Full point group: C_inf_v

    Geometry (in Angstrom), charge = 1, multiplicity = 4:

    SI           0.000000000000     0.000000000000     1.189998450885
    S            0.000000000000     0.000000000000    -1.041299422085


Scratch directory: /tmp/
gradient() will perform analytic gradient computation.
   => Libint2 <=

    Primary   basis highest AM E, G, H:  6, 6, 3
    Auxiliary basis highest AM E, G, H:  7, 7, 4
    Onebody   basis highest AM E, G, H:  -, -, -
    Solid Harmonics ordering:            Gaussian

*** tstart() called on Joses-MacBook-Pro-2.local
*** at Thu Jul 17 15:41:29 2025

   => Loading Basis Set <=

    Name: CC-PVDZ
    Role: ORBITAL
    Keyword: BASIS
    atoms 1 entry SI         line   478 file /Users/joseantoniorodriguesromero/anaconda3/share/psi4/basis/cc-pvdz.gbs 
    atoms 2 entry S          line   598 file /Users/joseantoniorodriguesromero/anaconda3/share/psi4/basis/cc-pvdz.gbs 


         ---------------------------------------------------------
                                   SCF
               by Justin Turney, Rob Parrish, Andy Simmonett
                          and Daniel G. A. Smith
                              UKS Reference
                        1 Threads,    500 MiB Core
         ---------------------------------------------------------

  ==> Geometry <==

    Molecular point group: c2v
    Full point group: C_inf_v

    Geometry (in Angstrom), charge = 1, multiplicity = 4:

       Center              X                  Y                   Z               Mass       
    ------------   -----------------  -----------------  -----------------  -----------------
         SI           0.000000000000     0.000000000000     1.189998450885    27.976926534650
         S            0.000000000000     0.000000000000    -1.041299422085    31.972071174400

  Running in c2v symmetry.

  Rotational constants: A = ************  B =      0.22693  C =      0.22693 [cm^-1]
  Rotational constants: A = ************  B =   6803.20017  C =   6803.20017 [MHz]
  Nuclear repulsion =   53.124101728413393

  Charge       = 1
  Multiplicity = 4
  Electrons    = 29
  Nalpha       = 16
  Nbeta        = 13

  ==> Algorithm <==

  SCF Algorithm Type is DF.
  DIIS enabled.
  MOM disabled.
  Fractional occupation disabled.
  Guess Type is READ.
  Energy threshold   = 1.00e-08
  Density threshold  = 1.00e-08
  Integral threshold = 1.00e-12

  ==> Primary Basis <==

  Basis Set: CC-PVDZ
    Blend: CC-PVDZ
    Number of shells: 16
    Number of basis functions: 36
    Number of Cartesian functions: 38
    Spherical Harmonics?: true
    Max angular momentum: 2

  ==> DFT Potential <==

   => LibXC <=

    Version 6.2.2
    S. Lehtola, C. Steigemann, M. J.T. Oliveira, and M. A.L. Marques.,  SoftwareX 7, 1–5 (2018) (10.1016/j.softx.2017.11.002)

   => Composite Functional: B3LYP <= 

    B3LYP Hyb-GGA Exchange-Correlation Functional

    P. J. Stephens, F. J. Devlin, C. F. Chabalowski, and M. J. Frisch.,  J. Phys. Chem. 98, 11623 (1994) (10.1021/j100096a001)

    Deriv               =              1
    GGA                 =           TRUE
    Meta                =          FALSE

    Exchange Hybrid     =           TRUE
    MP2 Hybrid          =          FALSE

   => Exchange Functionals <=

    0.0800   Slater exchange
    0.7200         Becke 88

   => Exact (HF) Exchange <=

    0.2000               HF 

   => Correlation Functionals <=

    0.1900   Vosko, Wilk & Nusair (VWN5_RPA)
    0.8100   Lee, Yang & Parr

   => LibXC Density Thresholds  <==

    XC_HYB_GGA_XC_B3LYP:  1.00E-15 

   => Molecular Quadrature <=

    Radial Scheme          =       TREUTLER
    Pruning Scheme         =           NONE
    Nuclear Scheme         =       TREUTLER

    Blocking Scheme        =         OCTREE
    BS radius alpha        =              1
    Pruning alpha          =              1
    Radial Points          =             75
    Spherical Points       =            302
    Total Points           =          41610
    Total Blocks           =            385
    Max Points             =            253
    Max Functions          =             36
    Weights Tolerance      =       1.00E-15

   => Loading Basis Set <=

    Name: (CC-PVDZ AUX)
    Role: JKFIT
    Keyword: DF_BASIS_SCF
    atoms 1 entry SI         line   445 file /Users/joseantoniorodriguesromero/anaconda3/share/psi4/basis/cc-pvdz-jkfit.gbs 
    atoms 2 entry S          line   593 file /Users/joseantoniorodriguesromero/anaconda3/share/psi4/basis/cc-pvdz-jkfit.gbs 

   => Loading Basis Set <=

    Name: CC-PVDZ
    Role: ORBITAL
    Keyword: BASIS
    atoms 1 entry SI         line   478 file /Users/joseantoniorodriguesromero/anaconda3/share/psi4/basis/cc-pvdz.gbs 
    atoms 2 entry S          line   598 file /Users/joseantoniorodriguesromero/anaconda3/share/psi4/basis/cc-pvdz.gbs 

  Reading orbitals from file /tmp/quartet_SiS.default.75570.180.npy, no projection.

  ==> Integral Setup <==

  DFHelper Memory: AOs need 0.003 GiB; user supplied 0.324 GiB. 
  Using in-core AOs.

  ==> MemDFJK: Density-Fitted J/K Matrices <==

    J tasked:                   Yes
    K tasked:                   Yes
    wK tasked:                   No
    OpenMP threads:               1
    Memory [MiB]:               331
    Algorithm:                 Core
    Schwarz Cutoff:           1E-12
    Mask sparsity (%):       0.0000
    Fitting Condition:        1E-10

   => Auxiliary Basis Set <=

  Basis Set: (CC-PVDZ AUX)
    Blend: CC-PVDZ-JKFIT
    Number of shells: 72
    Number of basis functions: 224
    Number of Cartesian functions: 260
    Spherical Harmonics?: true
    Max angular momentum: 3

  Cached 100.0% of DFT collocation blocks in 0.042 [GiB].

  Minimum eigenvalue in the overlap matrix is 2.5573449964E-02.
  Reciprocal condition number of the overlap matrix is 9.1426828701E-03.
    Using symmetric orthogonalization.

  ==> Pre-Iterations <==

  SCF Guess: Orbitals guess was supplied from a previous computation.

   -------------------------------------------------------
    Irrep   Nso     Nmo     Nalpha   Nbeta   Ndocc  Nsocc
   -------------------------------------------------------
     A1        18      18       9       8       8       1
     A2         2       2       0       0       0       0
     B1         8       8       4       2       2       2
     B2         8       8       3       3       3       0
   -------------------------------------------------------
    Total      36      36      16      13      13       3
   -------------------------------------------------------

  ==> Iterations <==

                           Total Energy        Delta E     RMS |[F,P]|

   @DF-UKS iter   0:  -687.25206937495398   -6.87252e+02   5.32766e-05 
   @DF-UKS iter   1:  -687.25241496061312   -3.45586e-04   8.53830e-06 DIIS
   @DF-UKS iter   2:  -687.25241495613614    4.47699e-09   1.03599e-05 DIIS/DAMP=1%
   @DF-UKS iter   3:  -687.25240547834414    9.47779e-06   2.53195e-06 DIIS/DAMP=1%
   @DF-UKS iter   4:  -687.25241546831012   -9.98997e-06   8.42212e-07 DIIS/DAMP=1%
   @DF-UKS iter   5:  -687.25241464269527    8.25615e-07   9.84890e-08 DIIS/DAMP=1%
   @DF-UKS iter   6:  -687.25241507026806   -4.27573e-07   2.78291e-08 DIIS/DAMP=1%
   @DF-UKS iter   7:  -687.25241498609478    8.41733e-08   6.57229e-09 DIIS/DAMP=1%
   @DF-UKS iter   8:  -687.25241500158279   -1.54880e-08   1.75076e-09 DIIS/DAMP=1%
   @DF-UKS iter   9:  -687.25241500105574    5.27052e-10   5.81751e-10 DIIS/DAMP=1%
  Energy and wave function converged.


  ==> Post-Iterations <==

   Electrons on quadrature grid:
      Nalpha   =   16.0000011707 ; deviation = 1.171e-06
      Nbeta    =   13.0000006667 ; deviation = 6.667e-07
      Ntotal   =   29.0000018374 ; deviation = 1.837e-06 

   @Spin Contamination Metric:   7.395806752E-03
   @S^2 Expected:                3.750000000E+00
   @S^2 Observed:                3.757395807E+00
   @S   Expected:                1.500000000E+00
   @S   Observed:                1.500000000E+00

    Orbital Energies [Eh]
    ---------------------

    Alpha Occupied:                                                       

       1A1   -89.207534     2A1   -66.486867     3A1    -8.265488  
       1B1    -6.234091     4A1    -6.231637     1B2    -6.217058  
       5A1    -5.624869     2B2    -3.984623     6A1    -3.984571  
       2B1    -3.982078     7A1    -1.010418     8A1    -0.744880  
       3B1    -0.598102     9A1    -0.590537     3B2    -0.553897  
       4B1    -0.439934  

    Alpha Virtual:                                                        

       4B2    -0.363616    10A1    -0.262966    11A1    -0.029564  
       5B1     0.025354    12A1     0.039732     5B2     0.043578  
       1A2     0.073182     6B1     0.074539    13A1     0.077782  
       6B2     0.085965    14A1     0.139793     7B1     0.239543  
       7B2     0.265184    15A1     0.304067     2A2     0.305323  
      16A1     0.345800    17A1     0.356405     8B1     0.421049  
       8B2     0.448760    18A1     0.769865  

    Beta Occupied:                                                        

       1A1   -89.198446     2A1   -66.480588     3A1    -8.256241  
       4A1    -6.217389     1B1    -6.212498     1B2    -6.211425  
       5A1    -5.617146     2B2    -3.980355     6A1    -3.976650  
       2B1    -3.966105     7A1    -0.939665     8A1    -0.676581  
       3B2    -0.532620  

    Beta Virtual:                                                         

       9A1    -0.468854     3B1    -0.444268     4B2    -0.337622  
       4B1    -0.301611    10A1    -0.216611    11A1    -0.007298  
       5B2     0.063284    12A1     0.068959     5B1     0.086919  
       6B2     0.104957     6B1     0.127116    13A1     0.129628  
       1A2     0.130054    14A1     0.175349     7B2     0.277917  
       7B1     0.290482     2A2     0.363074    15A1     0.366854  
      16A1     0.381522    17A1     0.394406     8B2     0.478802  
       8B1     0.496574    18A1     0.806806  

    Final Occupation by Irrep:
             A1    A2    B1    B2 
    DOCC [     8,    0,    2,    3 ]
    SOCC [     1,    0,    2,    0 ]
    NA   [     9,    0,    4,    3 ]
    NB   [     8,    0,    2,    3 ]

  @DF-UKS Final Energy:  -687.25241500105574

   => Energetics <=

    Nuclear Repulsion Energy =             53.1241017284133932
    One-Electron Energy =               -1047.8190646572440983
    Two-Electron Energy =                 344.6857807227921739
    DFT Exchange-Correlation Energy =     -37.2432327950171924
    Empirical Dispersion Energy =           0.0000000000000000
    VV10 Nonlocal Energy =                  0.0000000000000000
    Total Energy =                       -687.2524150010557378

  UHF NO Occupations:
  HONO-2 :    9 A1 1.0000000
  HONO-1 :    3 B1 1.0000000
  HONO-0 :    4 B1 1.0000000
  LUNO+0 :   10 A1 0.0026779
  LUNO+1 :   11 A1 0.0007727
  LUNO+2 :    4 B2 0.0002506
  LUNO+3 :    5 B2 0.0000003


Computation Completed


Properties will be evaluated at   0.000000,   0.000000,   0.000000 [a0]

Properties computed using the SCF density matrix


 Multipole Moments:

 ------------------------------------------------------------------------------------
     Multipole            Electronic (a.u.)      Nuclear  (a.u.)        Total (a.u.)
 ------------------------------------------------------------------------------------

 L = 1.  Multiply by 2.5417464519 to convert [e a0] to [Debye]
 Dipole X            :          0.0000000            0.0000000            0.0000000
 Dipole Y            :          0.0000000            0.0000000            0.0000000
 Dipole Z            :          0.9423104           -0.0015353            0.9407751
 Magnitude           :                                                    0.9407751

 ------------------------------------------------------------------------------------

*** tstop() called on Joses-MacBook-Pro-2.local at Thu Jul 17 15:41:30 2025
Module time:
	user time   =       8.41 seconds =       0.14 minutes
	system time =       1.50 seconds =       0.03 minutes
	total time  =          1 seconds =       0.02 minutes
Total time:
	user time   =     208.92 seconds =       3.48 minutes
	system time =      52.89 seconds =       0.88 minutes
	total time  =         25 seconds =       0.42 minutes

*** tstart() called on Joses-MacBook-Pro-2.local
*** at Thu Jul 17 15:41:30 2025


         ------------------------------------------------------------
                                   SCF GRAD                          
                          Rob Parrish, Justin Turney,                
                       Andy Simmonett, and Alex Sokolov              
         ------------------------------------------------------------

  ==> Geometry <==

    Molecular point group: c2v
    Full point group: C_inf_v

    Geometry (in Angstrom), charge = 1, multiplicity = 4:

       Center              X                  Y                   Z               Mass       
    ------------   -----------------  -----------------  -----------------  -----------------
         SI           0.000000000000     0.000000000000     1.189998450885    27.976926534650
         S            0.000000000000     0.000000000000    -1.041299422085    31.972071174400

  Nuclear repulsion =   53.124101728413393

  ==> Basis Set <==

  Basis Set: CC-PVDZ
    Blend: CC-PVDZ
    Number of shells: 16
    Number of basis functions: 36
    Number of Cartesian functions: 38
    Spherical Harmonics?: true
    Max angular momentum: 2

  ==> DFJKGrad: Density-Fitted SCF Gradients <==

    Gradient:                    1
    J tasked:                  Yes
    K tasked:                  Yes
    wK tasked:                  No
    OpenMP threads:              1
    Integrals threads:           1
    Memory [MiB]:              375
    Schwarz Cutoff:          1E-12
    Fitting Condition:       1E-10

   => Auxiliary Basis Set <=

  Basis Set: (CC-PVDZ AUX)
    Blend: CC-PVDZ-JKFIT
    Number of shells: 72
    Number of basis functions: 224
    Number of Cartesian functions: 260
    Spherical Harmonics?: true
    Max angular momentum: 3

  ==> DFT Potential <==

   => LibXC <=

    Version 6.2.2
    S. Lehtola, C. Steigemann, M. J.T. Oliveira, and M. A.L. Marques.,  SoftwareX 7, 1–5 (2018) (10.1016/j.softx.2017.11.002)

   => Composite Functional: B3LYP <= 

    B3LYP Hyb-GGA Exchange-Correlation Functional

    P. J. Stephens, F. J. Devlin, C. F. Chabalowski, and M. J. Frisch.,  J. Phys. Chem. 98, 11623 (1994) (10.1021/j100096a001)

    Deriv               =              1
    GGA                 =           TRUE
    Meta                =          FALSE

    Exchange Hybrid     =           TRUE
    MP2 Hybrid          =          FALSE

   => Exchange Functionals <=

    0.0800   Slater exchange
    0.7200         Becke 88

   => Exact (HF) Exchange <=

    0.2000               HF 

   => Correlation Functionals <=

    0.1900   Vosko, Wilk & Nusair (VWN5_RPA)
    0.8100   Lee, Yang & Parr

   => LibXC Density Thresholds  <==

    XC_HYB_GGA_XC_B3LYP:  1.00E-15 

   => Molecular Quadrature <=

    Radial Scheme          =       TREUTLER
    Pruning Scheme         =           NONE
    Nuclear Scheme         =       TREUTLER

    Blocking Scheme        =         OCTREE
    BS radius alpha        =              1
    Pruning alpha          =              1
    Radial Points          =             75
    Spherical Points       =            302
    Total Points           =          41610
    Total Blocks           =            385
    Max Points             =            253
    Max Functions          =             36
    Weights Tolerance      =       1.00E-15


  -Total Gradient:
     Atom            X                  Y                   Z
    ------   -----------------  -----------------  -----------------
       1        0.000000000000     0.000000000000    -0.000013025666
       2        0.000000000000    -0.000000000000     0.000031274520


*** tstop() called on Joses-MacBook-Pro-2.local at Thu Jul 17 15:41:30 2025
Module time:
	user time   =       2.31 seconds =       0.04 minutes
	system time =       1.10 seconds =       0.02 minutes
	total time  =          0 seconds =       0.00 minutes
Total time:
	user time   =     211.23 seconds =       3.52 minutes
	system time =      53.99 seconds =       0.90 minutes
	total time  =         25 seconds =       0.42 minutes

    			-----------------------------------------

    			 OPTKING 3.0: for geometry optimizations 

    			     By R.A. King, Bethel University     

    			        with contributions from          

    			    A.V. Copan, J. Cayton, A. Heide      

    			-----------------------------------------

    
	                            ===> Fragment 1 <== 

	 Z (Atomic Numbers)          Masses                          Geom                  
	      14.000000            27.976927          0.00000000  0.00000000  2.24877116   
	      16.000000            31.972071          0.00000000  0.00000000 -1.96777072   

	 - Coordinate -           - BOHR/RAD -       - ANG/DEG -
	 R(1,2)           =         4.216542           2.231298


	        --- Internal Coordinate Step in ANG or DEG, aJ/ANG or AJ/DEG ---
	-------------------------------------------------------------------------------
	           Coordinate      Previous         Force          Change          New 
	           ----------      --------        ------          ------        ------
	               R(1,2)       2.23130        0.00018        0.00015       2.23144
	-------------------------------------------------------------------------------

	                                 ==> Convergence Check <==                                  
    
	Measures of convergence in internal coordinates in au.
    
	Criteria marked as inactive (o), active & met (*), and active & unmet ( ).

	----------------------------------------------------------------------------------------------
	   Step    Total Energy     Delta E     Max Force     RMS Force      Max Disp      RMS Disp   
	----------------------------------------------------------------------------------------------
	  Convergence Criteria     1.00e-06 *    3.00e-04 *             o    1.20e-03 *             o
	----------------------------------------------------------------------------------------------
	    17    -687.25241500   -1.26e-07 *    2.22e-05 *    2.22e-05 o    2.74e-04 *    2.74e-04 o  ~
	----------------------------------------------------------------------------------------------

Next Geometry in Ang 
	Fragment 1 (Ang)

	   Si   0.0000000000   0.0000000000   1.1900710229
	    S   0.0000000000   0.0000000000  -1.0413719941


    Final optimized geometry and variables:
    Molecular point group: c2v
    Full point group: C_inf_v

    Geometry (in Angstrom), charge = 1, multiplicity = 4:

    SI           0.000000000000     0.000000000000     1.189998450885
    S            0.000000000000     0.000000000000    -1.041299422085


    Psi4 stopped on: Thursday, 17 July 2025 03:41PM
    Psi4 wall time for execution: 0:00:25.69

*** Psi4 exiting successfully. Buy a developer a beer!
