
    -----------------------------------------------------------------------
          Psi4: An Open-Source Ab Initio Electronic Structure Package
                               Psi4 1.9.1 release

                         Git: Rev {} zzzzzzz 


    D. G. A. Smith, L. A. Burns, A. C. Simmonett, R. M. Parrish,
    M. C. Schieber, R. Galvelis, P. Kraus, H. Kruse, R. Di Remigio,
    A. Alenaizan, A. M. James, S. Lehtola, J. P. Misiewicz, M. Scheurer,
    R. A. Shaw, J. B. Schriber, Y. Xie, Z. L. Glick, D. A. Sirianni,
    J. S. O'Brien, J. M. Waldrop, A. Kumar, E. G. Hohenstein,
    B. P. Pritchard, B. R. Brooks, H. F. Schaefer III, A. Yu. Sokolov,
    K. Patkowski, A. E. DePrince III, U. Bozkaya, R. A. King,
    F. A. Evangelista, J. M. Turney, T. D. Crawford, C. D. Sherrill,
    J. Chem. Phys. 152(18) 184108 (2020). https://doi.org/10.1063/5.0006002

                            Additional Code Authors
    E. T. Seidl, C. L. Janssen, E. F. Valeev, M. L. Leininger,
    J. F. Gonthier, R. M. Richard, H. R. McAlexander, M. Saitow, X. Wang,
    P. Verma, M. H. Lechner, A. Jiang, S. Behnle, A. G. Heide,
    M. F. Herbst, and D. L. Poole

             Previous Authors, Complete List of Code Contributors,
                       and Citations for Specific Modules
    https://github.com/psi4/psi4/blob/master/codemeta.json
    https://github.com/psi4/psi4/graphs/contributors
    http://psicode.org/psi4manual/master/introduction.html#citing-psifour

    -----------------------------------------------------------------------


    Psi4 started on: Thursday, 17 July 2025 01:36PM

    Process ID: 74277
    Host:       Joses-MacBook-Pro-2.local
    PSIDATADIR: /Users/joseantoniorodriguesromero/anaconda3/share/psi4
    Memory:     500.0 MiB
    Threads:    1
    
  ==> Input File <==

--------------------------------------------------------------------------
molecule { 
1 5
B   0.00000        0.60000        0.00000
Si   0.00000       -0.60000        0.00000
}

set { 
basis              cc-pvdz
reference          uks
maxiter            500
geom_maxiter       500
DAMPING_PERCENTAGE 1
guess              SAP
}

optimize('b3lyp')
--------------------------------------------------------------------------

Scratch directory: /tmp/
gradient() will perform analytic gradient computation.
   => Libint2 <=

    Primary   basis highest AM E, G, H:  6, 6, 3
    Auxiliary basis highest AM E, G, H:  7, 7, 4
    Onebody   basis highest AM E, G, H:  -, -, -
    Solid Harmonics ordering:            Gaussian

*** tstart() called on Joses-MacBook-Pro-2.local
*** at Thu Jul 17 13:36:17 2025

   => Loading Basis Set <=

    Name: CC-PVDZ
    Role: ORBITAL
    Keyword: BASIS
    atoms 1 entry B          line   108 file /Users/joseantoniorodriguesromero/anaconda3/share/psi4/basis/cc-pvdz.gbs 
    atoms 2 entry SI         line   478 file /Users/joseantoniorodriguesromero/anaconda3/share/psi4/basis/cc-pvdz.gbs 


         ---------------------------------------------------------
                                   SCF
               by Justin Turney, Rob Parrish, Andy Simmonett
                          and Daniel G. A. Smith
                              UKS Reference
                        1 Threads,    500 MiB Core
         ---------------------------------------------------------

  ==> Geometry <==

    Molecular point group: c2v
    Full point group: C_inf_v

    Geometry (in Angstrom), charge = 1, multiplicity = 5:

       Center              X                  Y                   Z               Mass       
    ------------   -----------------  -----------------  -----------------  -----------------
         B            0.000000000000     0.000000000000     0.861132512942    11.009305360000
         SI           0.000000000000     0.000000000000    -0.338867487058    27.976926534650

  Running in c2v symmetry.

  Rotational constants: A = ************  B =      1.48179  C =      1.48179 [cm^-1]
  Rotational constants: A = ************  B =  44422.81226  C =  44422.81226 [MHz]
  Nuclear repulsion =   30.868670622416673

  Charge       = 1
  Multiplicity = 5
  Electrons    = 18
  Nalpha       = 11
  Nbeta        = 7

  ==> Algorithm <==

  SCF Algorithm Type is DF.
  DIIS enabled.
  MOM disabled.
  Fractional occupation disabled.
  Guess Type is SAP.
  Energy threshold   = 1.00e-08
  Density threshold  = 1.00e-08
  Integral threshold = 1.00e-12

  ==> Primary Basis <==

  Basis Set: CC-PVDZ
    Blend: CC-PVDZ
    Number of shells: 14
    Number of basis functions: 32
    Number of Cartesian functions: 34
    Spherical Harmonics?: true
    Max angular momentum: 2

  ==> DFT Potential <==

   => LibXC <=

    Version 6.2.2
    S. Lehtola, C. Steigemann, M. J.T. Oliveira, and M. A.L. Marques.,  SoftwareX 7, 1–5 (2018) (10.1016/j.softx.2017.11.002)

   => Composite Functional: B3LYP <= 

    B3LYP Hyb-GGA Exchange-Correlation Functional

    P. J. Stephens, F. J. Devlin, C. F. Chabalowski, and M. J. Frisch.,  J. Phys. Chem. 98, 11623 (1994) (10.1021/j100096a001)

    Deriv               =              1
    GGA                 =           TRUE
    Meta                =          FALSE

    Exchange Hybrid     =           TRUE
    MP2 Hybrid          =          FALSE

   => Exchange Functionals <=

    0.0800   Slater exchange
    0.7200         Becke 88

   => Exact (HF) Exchange <=

    0.2000               HF 

   => Correlation Functionals <=

    0.1900   Vosko, Wilk & Nusair (VWN5_RPA)
    0.8100   Lee, Yang & Parr

   => LibXC Density Thresholds  <==

    XC_HYB_GGA_XC_B3LYP:  1.00E-15 

   => Molecular Quadrature <=

    Radial Scheme          =       TREUTLER
    Pruning Scheme         =           NONE
    Nuclear Scheme         =       TREUTLER

    Blocking Scheme        =         OCTREE
    BS radius alpha        =              1
    Pruning alpha          =              1
    Radial Points          =             75
    Spherical Points       =            302
    Total Points           =          42025
    Total Blocks           =            388
    Max Points             =            256
    Max Functions          =             32
    Weights Tolerance      =       1.00E-15

   => Loading Basis Set <=

    Name: (CC-PVDZ AUX)
    Role: JKFIT
    Keyword: DF_BASIS_SCF
    atoms 1 entry B          line    71 file /Users/joseantoniorodriguesromero/anaconda3/share/psi4/basis/cc-pvdz-jkfit.gbs 
    atoms 2 entry SI         line   445 file /Users/joseantoniorodriguesromero/anaconda3/share/psi4/basis/cc-pvdz-jkfit.gbs 

  ==> Integral Setup <==

  DFHelper Memory: AOs need 0.002 GiB; user supplied 0.327 GiB. 
  Using in-core AOs.

  ==> MemDFJK: Density-Fitted J/K Matrices <==

    J tasked:                   Yes
    K tasked:                   Yes
    wK tasked:                   No
    OpenMP threads:               1
    Memory [MiB]:               334
    Algorithm:                 Core
    Schwarz Cutoff:           1E-12
    Mask sparsity (%):       0.0000
    Fitting Condition:        1E-10

   => Auxiliary Basis Set <=

  Basis Set: (CC-PVDZ AUX)
    Blend: CC-PVDZ-JKFIT
    Number of shells: 60
    Number of basis functions: 182
    Number of Cartesian functions: 211
    Spherical Harmonics?: true
    Max angular momentum: 3

  Cached 100.0% of DFT collocation blocks in 0.039 [GiB].

  Minimum eigenvalue in the overlap matrix is 2.1213761929E-03.
  Reciprocal condition number of the overlap matrix is 6.4590595875E-04.
    Using symmetric orthogonalization.

  ==> Pre-Iterations <==

  SCF Guess: Superposition of Atomic Potentials (doi:10.1021/acs.jctc.8b01089).

  ==> SAP guess <==

   => Molecular Quadrature <=

    Radial Scheme          =       TREUTLER
    Pruning Scheme         =           NONE
    Nuclear Scheme         =       TREUTLER

    Blocking Scheme        =         OCTREE
    BS radius alpha        =              1
    Pruning alpha          =              1
    Radial Points          =             75
    Spherical Points       =            302
    Total Points           =          42025
    Total Blocks           =            388
    Max Points             =            256
    Max Functions          =             32
    Weights Tolerance      =       1.00E-15

   -------------------------------------------------------
    Irrep   Nso     Nmo     Nalpha   Nbeta   Ndocc  Nsocc
   -------------------------------------------------------
     A1        16      16       7       5       5       2
     A2         2       2       0       0       0       0
     B1         7       7       2       1       1       1
     B2         7       7       2       1       1       1
   -------------------------------------------------------
    Total      32      32      11       7       7       4
   -------------------------------------------------------

  ==> Iterations <==

                           Total Energy        Delta E     RMS |[F,P]|

   @DF-UKS iter   1:  -313.11234450953600   -3.13112e+02   2.29275e-02 ADIIS/DIIS
   @DF-UKS iter   2:  -313.09464496657898    1.76995e-02   2.36012e-02 ADIIS/DIIS/DAMP=1%
   @DF-UKS iter   3:  -313.27141986009678   -1.76775e-01   1.35467e-03 ADIIS/DIIS/DAMP=1%
   @DF-UKS iter   4:  -313.28001862775432   -8.59877e-03   3.56535e-04 ADIIS/DIIS/DAMP=1%
   @DF-UKS iter   5:  -313.28060255789359   -5.83930e-04   5.12647e-05 DIIS/DAMP=1%
   @DF-UKS iter   6:  -313.28043227933853    1.70279e-04   6.39365e-06 DIIS/DAMP=1%
   @DF-UKS iter   7:  -313.28046179361820   -2.95143e-05   9.05403e-07 DIIS/DAMP=1%
   @DF-UKS iter   8:  -313.28046241872210   -6.25104e-07   7.31547e-08 DIIS/DAMP=1%
   @DF-UKS iter   9:  -313.28046232608722    9.26349e-08   1.05660e-08 DIIS/DAMP=1%
   @DF-UKS iter  10:  -313.28046230483028    2.12569e-08   2.15549e-09 DIIS/DAMP=1%
   @DF-UKS iter  11:  -313.28046230467396    1.56319e-10   2.08609e-10 DIIS/DAMP=1%
  Energy and wave function converged.


  ==> Post-Iterations <==

   Electrons on quadrature grid:
      Nalpha   =   11.0000001398 ; deviation = 1.398e-07
      Nbeta    =    7.0000001889 ; deviation = 1.889e-07
      Ntotal   =   18.0000003287 ; deviation = 3.287e-07 

   @Spin Contamination Metric:   1.034817026E-03
   @S^2 Expected:                6.000000000E+00
   @S^2 Observed:                6.001034817E+00
   @S   Expected:                2.000000000E+00
   @S   Observed:                2.000000000E+00

    Orbital Energies [Eh]
    ---------------------

    Alpha Occupied:                                                       

       1A1   -66.474207     2A1    -7.128542     3A1    -5.672617  
       4A1    -4.045567     1B2    -4.020107     1B1    -4.020107  
       5A1    -0.941424     2B2    -0.627458     2B1    -0.627458  
       6A1    -0.614504     7A1    -0.488546  

    Alpha Virtual:                                                        

       3B2    -0.274869     3B1    -0.274869     8A1    -0.125328  
       4B2    -0.012282     4B1    -0.012282     9A1    -0.000780  
      10A1     0.010072     1A2     0.010073    11A1     0.019011  
       5B2     0.123220     5B1     0.123220    12A1     0.200016  
       6B2     0.281972     6B1     0.281972    13A1     0.392429  
      14A1     0.498352     2A2     0.498352    15A1     0.793275  
       7B2     0.848923     7B1     0.848923    16A1     2.054757  

    Beta Occupied:                                                        

       1A1   -66.463157     2A1    -7.093404     3A1    -5.659654  
       4A1    -4.023862     1B2    -4.005002     1B1    -4.005002  
       5A1    -0.821260  

    Beta Virtual:                                                         

       2B2    -0.464801     2B1    -0.464801     6A1    -0.442863  
       7A1    -0.280897     3B2    -0.194183     3B1    -0.194183  
       8A1    -0.084663     4B2     0.016223     4B1     0.016223  
       9A1     0.036485    10A1     0.073906     1A2     0.078272  
      11A1     0.078273     5B2     0.161375     5B1     0.161375  
      12A1     0.270851     6B2     0.379368     6B1     0.379368  
      13A1     0.457942     2A2     0.579931    14A1     0.579932  
      15A1     0.885139     7B2     0.938440     7B1     0.938440  
      16A1     2.128107  

    Final Occupation by Irrep:
             A1    A2    B1    B2 
    DOCC [     5,    0,    1,    1 ]
    SOCC [     2,    0,    1,    1 ]
    NA   [     7,    0,    2,    2 ]
    NB   [     5,    0,    1,    1 ]

  @DF-UKS Final Energy:  -313.28046230467396

   => Energetics <=

    Nuclear Repulsion Energy =             30.8686706224166727
    One-Electron Energy =                -487.2108063636673023
    Two-Electron Energy =                 163.1803327962934134
    DFT Exchange-Correlation Energy =     -20.1186593597167018
    Empirical Dispersion Energy =           0.0000000000000000
    VV10 Nonlocal Energy =                  0.0000000000000000
    Total Energy =                       -313.2804623046739607

  UHF NO Occupations:
  HONO-2 :    6 A1 1.0000000
  HONO-1 :    2 B2 1.0000000
  HONO-0 :    7 A1 1.0000000
  LUNO+0 :    8 A1 0.0005165
  LUNO+1 :    9 A1 0.0000005
  LUNO+2 :   10 A1 0.0000002
  LUNO+3 :    3 B2 0.0000001


Computation Completed


Properties will be evaluated at   0.000000,   0.000000,   0.000000 [a0]

Properties computed using the SCF density matrix


 Multipole Moments:

 ------------------------------------------------------------------------------------
     Multipole            Electronic (a.u.)      Nuclear  (a.u.)        Total (a.u.)
 ------------------------------------------------------------------------------------

 L = 1.  Multiply by 2.5417464519 to convert [e a0] to [Debye]
 Dipole X            :          0.0000000            0.0000000            0.0000000
 Dipole Y            :          0.0000000            0.0000000            0.0000000
 Dipole Z            :          0.1395462           -0.8286114           -0.6890652
 Magnitude           :                                                    0.6890652

 ------------------------------------------------------------------------------------

*** tstop() called on Joses-MacBook-Pro-2.local at Thu Jul 17 13:36:18 2025
Module time:
	user time   =       3.19 seconds =       0.05 minutes
	system time =       5.65 seconds =       0.09 minutes
	total time  =          1 seconds =       0.02 minutes
Total time:
	user time   =       3.19 seconds =       0.05 minutes
	system time =       5.65 seconds =       0.09 minutes
	total time  =          1 seconds =       0.02 minutes

*** tstart() called on Joses-MacBook-Pro-2.local
*** at Thu Jul 17 13:36:18 2025


         ------------------------------------------------------------
                                   SCF GRAD                          
                          Rob Parrish, Justin Turney,                
                       Andy Simmonett, and Alex Sokolov              
         ------------------------------------------------------------

  ==> Geometry <==

    Molecular point group: c2v
    Full point group: C_inf_v

    Geometry (in Angstrom), charge = 1, multiplicity = 5:

       Center              X                  Y                   Z               Mass       
    ------------   -----------------  -----------------  -----------------  -----------------
         B            0.000000000000     0.000000000000     0.861132512942    11.009305360000
         SI           0.000000000000     0.000000000000    -0.338867487058    27.976926534650

  Nuclear repulsion =   30.868670622416673

  ==> Basis Set <==

  Basis Set: CC-PVDZ
    Blend: CC-PVDZ
    Number of shells: 14
    Number of basis functions: 32
    Number of Cartesian functions: 34
    Spherical Harmonics?: true
    Max angular momentum: 2

  ==> DFJKGrad: Density-Fitted SCF Gradients <==

    Gradient:                    1
    J tasked:                  Yes
    K tasked:                  Yes
    wK tasked:                  No
    OpenMP threads:              1
    Integrals threads:           1
    Memory [MiB]:              375
    Schwarz Cutoff:          1E-12
    Fitting Condition:       1E-10

   => Auxiliary Basis Set <=

  Basis Set: (CC-PVDZ AUX)
    Blend: CC-PVDZ-JKFIT
    Number of shells: 60
    Number of basis functions: 182
    Number of Cartesian functions: 211
    Spherical Harmonics?: true
    Max angular momentum: 3

  ==> DFT Potential <==

   => LibXC <=

    Version 6.2.2
    S. Lehtola, C. Steigemann, M. J.T. Oliveira, and M. A.L. Marques.,  SoftwareX 7, 1–5 (2018) (10.1016/j.softx.2017.11.002)

   => Composite Functional: B3LYP <= 

    B3LYP Hyb-GGA Exchange-Correlation Functional

    P. J. Stephens, F. J. Devlin, C. F. Chabalowski, and M. J. Frisch.,  J. Phys. Chem. 98, 11623 (1994) (10.1021/j100096a001)

    Deriv               =              1
    GGA                 =           TRUE
    Meta                =          FALSE

    Exchange Hybrid     =           TRUE
    MP2 Hybrid          =          FALSE

   => Exchange Functionals <=

    0.0800   Slater exchange
    0.7200         Becke 88

   => Exact (HF) Exchange <=

    0.2000               HF 

   => Correlation Functionals <=

    0.1900   Vosko, Wilk & Nusair (VWN5_RPA)
    0.8100   Lee, Yang & Parr

   => LibXC Density Thresholds  <==

    XC_HYB_GGA_XC_B3LYP:  1.00E-15 

   => Molecular Quadrature <=

    Radial Scheme          =       TREUTLER
    Pruning Scheme         =           NONE
    Nuclear Scheme         =       TREUTLER

    Blocking Scheme        =         OCTREE
    BS radius alpha        =              1
    Pruning alpha          =              1
    Radial Points          =             75
    Spherical Points       =            302
    Total Points           =          42025
    Total Blocks           =            388
    Max Points             =            256
    Max Functions          =             32
    Weights Tolerance      =       1.00E-15


  -Total Gradient:
     Atom            X                  Y                   Z
    ------   -----------------  -----------------  -----------------
       1       -0.000000000000     0.000000000000    -1.265532431998
       2        0.000000000000     0.000000000000     1.265533047259


*** tstop() called on Joses-MacBook-Pro-2.local at Thu Jul 17 13:36:18 2025
Module time:
	user time   =       0.88 seconds =       0.01 minutes
	system time =       1.54 seconds =       0.03 minutes
	total time  =          0 seconds =       0.00 minutes
Total time:
	user time   =       4.07 seconds =       0.07 minutes
	system time =       7.19 seconds =       0.12 minutes
	total time  =          1 seconds =       0.02 minutes

    			-----------------------------------------

    			 OPTKING 3.0: for geometry optimizations 

    			     By R.A. King, Bethel University     

    			        with contributions from          

    			    A.V. Copan, J. Cayton, A. Heide      

    			-----------------------------------------

    
	                            ===> Fragment 1 <== 

	 Z (Atomic Numbers)          Masses                          Geom                  
	       5.000000            11.009305          0.00000000  0.00000000  1.62730461   
	      14.000000            27.976927          0.00000000  0.00000000 -0.64036674   

	 - Coordinate -           - BOHR/RAD -       - ANG/DEG -
	 R(1,2)           =         2.267671           1.200000


	        --- Internal Coordinate Step in ANG or DEG, aJ/ANG or AJ/DEG ---
	-------------------------------------------------------------------------------
	           Coordinate      Previous         Force          Change          New 
	           ----------      --------        ------          ------        ------
	               R(1,2)       1.20000       10.42637        0.14766       1.34766
	-------------------------------------------------------------------------------

	                                 ==> Convergence Check <==                                  
    
	Measures of convergence in internal coordinates in au.
    
	Criteria marked as inactive (o), active & met (*), and active & unmet ( ).

	----------------------------------------------------------------------------------------------
	   Step    Total Energy     Delta E     Max Force     RMS Force      Max Disp      RMS Disp   
	----------------------------------------------------------------------------------------------
	  Convergence Criteria     1.00e-06 *    3.00e-04 *             o    1.20e-03 *             o
	----------------------------------------------------------------------------------------------
	     1    -313.28046230   -3.13e+02      1.27e+00      1.27e+00 o    2.79e-01      2.79e-01 o  ~
	----------------------------------------------------------------------------------------------

Next Geometry in Ang 
	Fragment 1 (Ang)

	    B   0.0000000000   0.0000000000   0.9349626625
	   Si   0.0000000000   0.0000000000  -0.4126976366


    Structure for next step:
    Molecular point group: c2v
    Full point group: C_inf_v

    Geometry (in Angstrom), charge = 1, multiplicity = 5:

    B            0.000000000000     0.000000000000     0.967095083312
    SI           0.000000000000     0.000000000000    -0.380565215809


Scratch directory: /tmp/
gradient() will perform analytic gradient computation.
   => Libint2 <=

    Primary   basis highest AM E, G, H:  6, 6, 3
    Auxiliary basis highest AM E, G, H:  7, 7, 4
    Onebody   basis highest AM E, G, H:  -, -, -
    Solid Harmonics ordering:            Gaussian

*** tstart() called on Joses-MacBook-Pro-2.local
*** at Thu Jul 17 13:36:18 2025

   => Loading Basis Set <=

    Name: CC-PVDZ
    Role: ORBITAL
    Keyword: BASIS
    atoms 1 entry B          line   108 file /Users/joseantoniorodriguesromero/anaconda3/share/psi4/basis/cc-pvdz.gbs 
    atoms 2 entry SI         line   478 file /Users/joseantoniorodriguesromero/anaconda3/share/psi4/basis/cc-pvdz.gbs 


         ---------------------------------------------------------
                                   SCF
               by Justin Turney, Rob Parrish, Andy Simmonett
                          and Daniel G. A. Smith
                              UKS Reference
                        1 Threads,    500 MiB Core
         ---------------------------------------------------------

  ==> Geometry <==

    Molecular point group: c2v
    Full point group: C_inf_v

    Geometry (in Angstrom), charge = 1, multiplicity = 5:

       Center              X                  Y                   Z               Mass       
    ------------   -----------------  -----------------  -----------------  -----------------
         B            0.000000000000     0.000000000000     0.967095083312    11.009305360000
         SI           0.000000000000     0.000000000000    -0.380565215809    27.976926534650

  Running in c2v symmetry.

  Rotational constants: A = ************  B =      1.17486  C =      1.17486 [cm^-1]
  Rotational constants: A = ************  B =  35221.48573  C =  35221.48573 [MHz]
  Nuclear repulsion =   27.486455430253638

  Charge       = 1
  Multiplicity = 5
  Electrons    = 18
  Nalpha       = 11
  Nbeta        = 7

  ==> Algorithm <==

  SCF Algorithm Type is DF.
  DIIS enabled.
  MOM disabled.
  Fractional occupation disabled.
  Guess Type is READ.
  Energy threshold   = 1.00e-08
  Density threshold  = 1.00e-08
  Integral threshold = 1.00e-12

  ==> Primary Basis <==

  Basis Set: CC-PVDZ
    Blend: CC-PVDZ
    Number of shells: 14
    Number of basis functions: 32
    Number of Cartesian functions: 34
    Spherical Harmonics?: true
    Max angular momentum: 2

  ==> DFT Potential <==

   => LibXC <=

    Version 6.2.2
    S. Lehtola, C. Steigemann, M. J.T. Oliveira, and M. A.L. Marques.,  SoftwareX 7, 1–5 (2018) (10.1016/j.softx.2017.11.002)

   => Composite Functional: B3LYP <= 

    B3LYP Hyb-GGA Exchange-Correlation Functional

    P. J. Stephens, F. J. Devlin, C. F. Chabalowski, and M. J. Frisch.,  J. Phys. Chem. 98, 11623 (1994) (10.1021/j100096a001)

    Deriv               =              1
    GGA                 =           TRUE
    Meta                =          FALSE

    Exchange Hybrid     =           TRUE
    MP2 Hybrid          =          FALSE

   => Exchange Functionals <=

    0.0800   Slater exchange
    0.7200         Becke 88

   => Exact (HF) Exchange <=

    0.2000               HF 

   => Correlation Functionals <=

    0.1900   Vosko, Wilk & Nusair (VWN5_RPA)
    0.8100   Lee, Yang & Parr

   => LibXC Density Thresholds  <==

    XC_HYB_GGA_XC_B3LYP:  1.00E-15 

   => Molecular Quadrature <=

    Radial Scheme          =       TREUTLER
    Pruning Scheme         =           NONE
    Nuclear Scheme         =       TREUTLER

    Blocking Scheme        =         OCTREE
    BS radius alpha        =              1
    Pruning alpha          =              1
    Radial Points          =             75
    Spherical Points       =            302
    Total Points           =          42048
    Total Blocks           =            389
    Max Points             =            255
    Max Functions          =             32
    Weights Tolerance      =       1.00E-15

   => Loading Basis Set <=

    Name: (CC-PVDZ AUX)
    Role: JKFIT
    Keyword: DF_BASIS_SCF
    atoms 1 entry B          line    71 file /Users/joseantoniorodriguesromero/anaconda3/share/psi4/basis/cc-pvdz-jkfit.gbs 
    atoms 2 entry SI         line   445 file /Users/joseantoniorodriguesromero/anaconda3/share/psi4/basis/cc-pvdz-jkfit.gbs 

   => Loading Basis Set <=

    Name: CC-PVDZ
    Role: ORBITAL
    Keyword: BASIS
    atoms 1 entry B          line   108 file /Users/joseantoniorodriguesromero/anaconda3/share/psi4/basis/cc-pvdz.gbs 
    atoms 2 entry SI         line   478 file /Users/joseantoniorodriguesromero/anaconda3/share/psi4/basis/cc-pvdz.gbs 

  Reading orbitals from file /tmp/quintet_BSi.default.74277.180.npy, no projection.

  ==> Integral Setup <==

  DFHelper Memory: AOs need 0.002 GiB; user supplied 0.327 GiB. 
  Using in-core AOs.

  ==> MemDFJK: Density-Fitted J/K Matrices <==

    J tasked:                   Yes
    K tasked:                   Yes
    wK tasked:                   No
    OpenMP threads:               1
    Memory [MiB]:               334
    Algorithm:                 Core
    Schwarz Cutoff:           1E-12
    Mask sparsity (%):       0.0000
    Fitting Condition:        1E-10

   => Auxiliary Basis Set <=

  Basis Set: (CC-PVDZ AUX)
    Blend: CC-PVDZ-JKFIT
    Number of shells: 60
    Number of basis functions: 182
    Number of Cartesian functions: 211
    Spherical Harmonics?: true
    Max angular momentum: 3

  Cached 100.0% of DFT collocation blocks in 0.039 [GiB].

  Minimum eigenvalue in the overlap matrix is 2.9087435421E-03.
  Reciprocal condition number of the overlap matrix is 8.9086117303E-04.
    Using symmetric orthogonalization.

  ==> Pre-Iterations <==

  SCF Guess: Orbitals guess was supplied from a previous computation.

   -------------------------------------------------------
    Irrep   Nso     Nmo     Nalpha   Nbeta   Ndocc  Nsocc
   -------------------------------------------------------
     A1        16      16       7       5       5       2
     A2         2       2       0       0       0       0
     B1         7       7       2       1       1       1
     B2         7       7       2       1       1       1
   -------------------------------------------------------
    Total      32      32      11       7       7       4
   -------------------------------------------------------

  ==> Iterations <==

                           Total Energy        Delta E     RMS |[F,P]|

   @DF-UKS iter   0:  -313.61139246173775   -3.13611e+02   5.23276e-02 
   @DF-UKS iter   1:  -313.54029713793932    7.10953e-02   4.87480e-03 ADIIS/DIIS
   @DF-UKS iter   2:  -313.54004999919249    2.47139e-04   4.90995e-03 ADIIS/DIIS/DAMP=1%
   @DF-UKS iter   3:  -313.54844513476564   -8.39514e-03   2.47063e-04 ADIIS/DIIS/DAMP=1%
   @DF-UKS iter   4:  -313.54806451055384    3.80624e-04   4.69986e-05 DIIS/DAMP=1%
   @DF-UKS iter   5:  -313.54790052125128    1.63989e-04   1.20213e-05 DIIS/DAMP=1%
   @DF-UKS iter   6:  -313.54791692840996   -1.64072e-05   1.94515e-06 DIIS/DAMP=1%
   @DF-UKS iter   7:  -313.54791408979634    2.83861e-06   1.72730e-07 DIIS/DAMP=1%
   @DF-UKS iter   8:  -313.54791470221886   -6.12423e-07   3.53323e-08 DIIS/DAMP=1%
   @DF-UKS iter   9:  -313.54791463130164    7.09172e-08   2.50863e-09 DIIS/DAMP=1%
   @DF-UKS iter  10:  -313.54791463604965   -4.74802e-09   2.55235e-10 DIIS/DAMP=1%
  Energy and wave function converged.


  ==> Post-Iterations <==

   Electrons on quadrature grid:
      Nalpha   =   10.9999995024 ; deviation = -4.976e-07
      Nbeta    =    6.9999994876 ; deviation = -5.124e-07
      Ntotal   =   17.9999989899 ; deviation = -1.010e-06 

   @Spin Contamination Metric:   6.598836494E-04
   @S^2 Expected:                6.000000000E+00
   @S^2 Observed:                6.000659884E+00
   @S   Expected:                2.000000000E+00
   @S   Observed:                2.000000000E+00

    Orbital Energies [Eh]
    ---------------------

    Alpha Occupied:                                                       

       1A1   -66.466583     2A1    -7.093520     3A1    -5.644183  
       4A1    -4.009319     1B2    -3.997833     1B1    -3.997833  
       5A1    -0.928407     6A1    -0.622716     2B2    -0.588413  
       2B1    -0.588413     7A1    -0.497927  

    Alpha Virtual:                                                        

       3B2    -0.283438     3B1    -0.283438     8A1    -0.133061  
       9A1    -0.004772     4B2    -0.000487     4B1    -0.000487  
      10A1     0.021727     1A2     0.021727    11A1     0.027617  
       5B1     0.122768     5B2     0.122768    12A1     0.173191  
       6B2     0.228695     6B1     0.228695    13A1     0.376108  
      14A1     0.485877     2A2     0.485877    15A1     0.744104  
       7B2     0.803135     7B1     0.803135    16A1     1.441268  

    Beta Occupied:                                                        

       1A1   -66.456380     2A1    -7.062253     3A1    -5.631902  
       4A1    -3.990633     1B2    -3.983518     1B1    -3.983518  
       5A1    -0.817243  

    Beta Virtual:                                                         

       6A1    -0.453383     2B2    -0.437237     2B1    -0.437237  
       7A1    -0.291941     3B2    -0.198547     3B1    -0.198547  
       8A1    -0.089670     4B2     0.029654     4B1     0.029654  
       9A1     0.032209    10A1     0.080281    11A1     0.091806  
       1A2     0.091807     5B1     0.161193     5B2     0.161193  
      12A1     0.246835     6B2     0.322183     6B1     0.322183  
      13A1     0.435900    14A1     0.566893     2A2     0.566893  
      15A1     0.834284     7B2     0.896358     7B1     0.896358  
      16A1     1.510734  

    Final Occupation by Irrep:
             A1    A2    B1    B2 
    DOCC [     5,    0,    1,    1 ]
    SOCC [     2,    0,    1,    1 ]
    NA   [     7,    0,    2,    2 ]
    NB   [     5,    0,    1,    1 ]

  @DF-UKS Final Energy:  -313.54791463604965

   => Energetics <=

    Nuclear Repulsion Energy =             27.4864554302536384
    One-Electron Energy =                -481.4125900942250382
    Two-Electron Energy =                 160.4102086988351346
    DFT Exchange-Correlation Energy =     -20.0319886709133286
    Empirical Dispersion Energy =           0.0000000000000000
    VV10 Nonlocal Energy =                  0.0000000000000000
    Total Energy =                       -313.5479146360495974

  UHF NO Occupations:
  HONO-2 :    7 A1 1.0000000
  HONO-1 :    2 B1 1.0000000
  HONO-0 :    2 B2 1.0000000
  LUNO+0 :    8 A1 0.0003290
  LUNO+1 :    9 A1 0.0000004
  LUNO+2 :    3 B1 0.0000002
  LUNO+3 :    3 B2 0.0000002


Computation Completed


Properties will be evaluated at   0.000000,   0.000000,   0.000000 [a0]

Properties computed using the SCF density matrix


 Multipole Moments:

 ------------------------------------------------------------------------------------
     Multipole            Electronic (a.u.)      Nuclear  (a.u.)        Total (a.u.)
 ------------------------------------------------------------------------------------

 L = 1.  Multiply by 2.5417464519 to convert [e a0] to [Debye]
 Dipole X            :          0.0000000            0.0000000            0.0000000
 Dipole Y            :          0.0000000            0.0000000            0.0000000
 Dipole Z            :          0.2747307           -0.9305722           -0.6558415
 Magnitude           :                                                    0.6558415

 ------------------------------------------------------------------------------------

*** tstop() called on Joses-MacBook-Pro-2.local at Thu Jul 17 13:36:19 2025
Module time:
	user time   =       2.30 seconds =       0.04 minutes
	system time =       5.52 seconds =       0.09 minutes
	total time  =          1 seconds =       0.02 minutes
Total time:
	user time   =       6.41 seconds =       0.11 minutes
	system time =      12.93 seconds =       0.22 minutes
	total time  =          2 seconds =       0.03 minutes

*** tstart() called on Joses-MacBook-Pro-2.local
*** at Thu Jul 17 13:36:19 2025


         ------------------------------------------------------------
                                   SCF GRAD                          
                          Rob Parrish, Justin Turney,                
                       Andy Simmonett, and Alex Sokolov              
         ------------------------------------------------------------

  ==> Geometry <==

    Molecular point group: c2v
    Full point group: C_inf_v

    Geometry (in Angstrom), charge = 1, multiplicity = 5:

       Center              X                  Y                   Z               Mass       
    ------------   -----------------  -----------------  -----------------  -----------------
         B            0.000000000000     0.000000000000     0.967095083312    11.009305360000
         SI           0.000000000000     0.000000000000    -0.380565215809    27.976926534650

  Nuclear repulsion =   27.486455430253638

  ==> Basis Set <==

  Basis Set: CC-PVDZ
    Blend: CC-PVDZ
    Number of shells: 14
    Number of basis functions: 32
    Number of Cartesian functions: 34
    Spherical Harmonics?: true
    Max angular momentum: 2

  ==> DFJKGrad: Density-Fitted SCF Gradients <==

    Gradient:                    1
    J tasked:                  Yes
    K tasked:                  Yes
    wK tasked:                  No
    OpenMP threads:              1
    Integrals threads:           1
    Memory [MiB]:              375
    Schwarz Cutoff:          1E-12
    Fitting Condition:       1E-10

   => Auxiliary Basis Set <=

  Basis Set: (CC-PVDZ AUX)
    Blend: CC-PVDZ-JKFIT
    Number of shells: 60
    Number of basis functions: 182
    Number of Cartesian functions: 211
    Spherical Harmonics?: true
    Max angular momentum: 3

  ==> DFT Potential <==

   => LibXC <=

    Version 6.2.2
    S. Lehtola, C. Steigemann, M. J.T. Oliveira, and M. A.L. Marques.,  SoftwareX 7, 1–5 (2018) (10.1016/j.softx.2017.11.002)

   => Composite Functional: B3LYP <= 

    B3LYP Hyb-GGA Exchange-Correlation Functional

    P. J. Stephens, F. J. Devlin, C. F. Chabalowski, and M. J. Frisch.,  J. Phys. Chem. 98, 11623 (1994) (10.1021/j100096a001)

    Deriv               =              1
    GGA                 =           TRUE
    Meta                =          FALSE

    Exchange Hybrid     =           TRUE
    MP2 Hybrid          =          FALSE

   => Exchange Functionals <=

    0.0800   Slater exchange
    0.7200         Becke 88

   => Exact (HF) Exchange <=

    0.2000               HF 

   => Correlation Functionals <=

    0.1900   Vosko, Wilk & Nusair (VWN5_RPA)
    0.8100   Lee, Yang & Parr

   => LibXC Density Thresholds  <==

    XC_HYB_GGA_XC_B3LYP:  1.00E-15 

   => Molecular Quadrature <=

    Radial Scheme          =       TREUTLER
    Pruning Scheme         =           NONE
    Nuclear Scheme         =       TREUTLER

    Blocking Scheme        =         OCTREE
    BS radius alpha        =              1
    Pruning alpha          =              1
    Radial Points          =             75
    Spherical Points       =            302
    Total Points           =          42048
    Total Blocks           =            389
    Max Points             =            255
    Max Functions          =             32
    Weights Tolerance      =       1.00E-15


  -Total Gradient:
     Atom            X                  Y                   Z
    ------   -----------------  -----------------  -----------------
       1        0.000000000000    -0.000000000000    -0.696778963087
       2        0.000000000000     0.000000000000     0.696781155557


*** tstop() called on Joses-MacBook-Pro-2.local at Thu Jul 17 13:36:19 2025
Module time:
	user time   =       0.57 seconds =       0.01 minutes
	system time =       2.08 seconds =       0.03 minutes
	total time  =          0 seconds =       0.00 minutes
Total time:
	user time   =       6.98 seconds =       0.12 minutes
	system time =      15.01 seconds =       0.25 minutes
	total time  =          2 seconds =       0.03 minutes

    			-----------------------------------------

    			 OPTKING 3.0: for geometry optimizations 

    			     By R.A. King, Bethel University     

    			        with contributions from          

    			    A.V. Copan, J. Cayton, A. Heide      

    			-----------------------------------------

    
	                            ===> Fragment 1 <== 

	 Z (Atomic Numbers)          Masses                          Geom                  
	       5.000000            11.009305          0.00000000  0.00000000  1.82754484   
	      14.000000            27.976927          0.00000000  0.00000000 -0.71916403   

	 - Coordinate -           - BOHR/RAD -       - ANG/DEG -
	 R(1,2)           =         2.546709           1.347660


	        --- Internal Coordinate Step in ANG or DEG, aJ/ANG or AJ/DEG ---
	-------------------------------------------------------------------------------
	           Coordinate      Previous         Force          Change          New 
	           ----------      --------        ------          ------        ------
	               R(1,2)       1.34766        5.74058        0.16017       1.50783
	-------------------------------------------------------------------------------

	                                 ==> Convergence Check <==                                  
    
	Measures of convergence in internal coordinates in au.
    
	Criteria marked as inactive (o), active & met (*), and active & unmet ( ).

	----------------------------------------------------------------------------------------------
	   Step    Total Energy     Delta E     Max Force     RMS Force      Max Disp      RMS Disp   
	----------------------------------------------------------------------------------------------
	  Convergence Criteria     1.00e-06 *    3.00e-04 *             o    1.20e-03 *             o
	----------------------------------------------------------------------------------------------
	     2    -313.54791464   -2.67e-01      6.97e-01      6.97e-01 o    3.03e-01      3.03e-01 o  ~
	----------------------------------------------------------------------------------------------

Next Geometry in Ang 
	Fragment 1 (Ang)

	    B   0.0000000000   0.0000000000   1.0471815495
	   Si   0.0000000000   0.0000000000  -0.4606516820


    Structure for next step:
    Molecular point group: c2v
    Full point group: C_inf_v

    Geometry (in Angstrom), charge = 1, multiplicity = 5:

    B            0.000000000000     0.000000000000     1.082036849839
    SI           0.000000000000     0.000000000000    -0.425796381740


Scratch directory: /tmp/
gradient() will perform analytic gradient computation.
   => Libint2 <=

    Primary   basis highest AM E, G, H:  6, 6, 3
    Auxiliary basis highest AM E, G, H:  7, 7, 4
    Onebody   basis highest AM E, G, H:  -, -, -
    Solid Harmonics ordering:            Gaussian

*** tstart() called on Joses-MacBook-Pro-2.local
*** at Thu Jul 17 13:36:19 2025

   => Loading Basis Set <=

    Name: CC-PVDZ
    Role: ORBITAL
    Keyword: BASIS
    atoms 1 entry B          line   108 file /Users/joseantoniorodriguesromero/anaconda3/share/psi4/basis/cc-pvdz.gbs 
    atoms 2 entry SI         line   478 file /Users/joseantoniorodriguesromero/anaconda3/share/psi4/basis/cc-pvdz.gbs 


         ---------------------------------------------------------
                                   SCF
               by Justin Turney, Rob Parrish, Andy Simmonett
                          and Daniel G. A. Smith
                              UKS Reference
                        1 Threads,    500 MiB Core
         ---------------------------------------------------------

  ==> Geometry <==

    Molecular point group: c2v
    Full point group: C_inf_v

    Geometry (in Angstrom), charge = 1, multiplicity = 5:

       Center              X                  Y                   Z               Mass       
    ------------   -----------------  -----------------  -----------------  -----------------
         B            0.000000000000     0.000000000000     1.082036849839    11.009305360000
         SI           0.000000000000     0.000000000000    -0.425796381740    27.976926534650

  Running in c2v symmetry.

  Rotational constants: A = ************  B =      0.93851  C =      0.93851 [cm^-1]
  Rotational constants: A = ************  B =  28135.97178  C =  28135.97178 [MHz]
  Nuclear repulsion =   24.566645681438722

  Charge       = 1
  Multiplicity = 5
  Electrons    = 18
  Nalpha       = 11
  Nbeta        = 7

  ==> Algorithm <==

  SCF Algorithm Type is DF.
  DIIS enabled.
  MOM disabled.
  Fractional occupation disabled.
  Guess Type is READ.
  Energy threshold   = 1.00e-08
  Density threshold  = 1.00e-08
  Integral threshold = 1.00e-12

  ==> Primary Basis <==

  Basis Set: CC-PVDZ
    Blend: CC-PVDZ
    Number of shells: 14
    Number of basis functions: 32
    Number of Cartesian functions: 34
    Spherical Harmonics?: true
    Max angular momentum: 2

  ==> DFT Potential <==

   => LibXC <=

    Version 6.2.2
    S. Lehtola, C. Steigemann, M. J.T. Oliveira, and M. A.L. Marques.,  SoftwareX 7, 1–5 (2018) (10.1016/j.softx.2017.11.002)

   => Composite Functional: B3LYP <= 

    B3LYP Hyb-GGA Exchange-Correlation Functional

    P. J. Stephens, F. J. Devlin, C. F. Chabalowski, and M. J. Frisch.,  J. Phys. Chem. 98, 11623 (1994) (10.1021/j100096a001)

    Deriv               =              1
    GGA                 =           TRUE
    Meta                =          FALSE

    Exchange Hybrid     =           TRUE
    MP2 Hybrid          =          FALSE

   => Exchange Functionals <=

    0.0800   Slater exchange
    0.7200         Becke 88

   => Exact (HF) Exchange <=

    0.2000               HF 

   => Correlation Functionals <=

    0.1900   Vosko, Wilk & Nusair (VWN5_RPA)
    0.8100   Lee, Yang & Parr

   => LibXC Density Thresholds  <==

    XC_HYB_GGA_XC_B3LYP:  1.00E-15 

   => Molecular Quadrature <=

    Radial Scheme          =       TREUTLER
    Pruning Scheme         =           NONE
    Nuclear Scheme         =       TREUTLER

    Blocking Scheme        =         OCTREE
    BS radius alpha        =              1
    Pruning alpha          =              1
    Radial Points          =             75
    Spherical Points       =            302
    Total Points           =          42067
    Total Blocks           =            389
    Max Points             =            254
    Max Functions          =             32
    Weights Tolerance      =       1.00E-15

   => Loading Basis Set <=

    Name: (CC-PVDZ AUX)
    Role: JKFIT
    Keyword: DF_BASIS_SCF
    atoms 1 entry B          line    71 file /Users/joseantoniorodriguesromero/anaconda3/share/psi4/basis/cc-pvdz-jkfit.gbs 
    atoms 2 entry SI         line   445 file /Users/joseantoniorodriguesromero/anaconda3/share/psi4/basis/cc-pvdz-jkfit.gbs 

   => Loading Basis Set <=

    Name: CC-PVDZ
    Role: ORBITAL
    Keyword: BASIS
    atoms 1 entry B          line   108 file /Users/joseantoniorodriguesromero/anaconda3/share/psi4/basis/cc-pvdz.gbs 
    atoms 2 entry SI         line   478 file /Users/joseantoniorodriguesromero/anaconda3/share/psi4/basis/cc-pvdz.gbs 

  Reading orbitals from file /tmp/quintet_BSi.default.74277.180.npy, no projection.

  ==> Integral Setup <==

  DFHelper Memory: AOs need 0.002 GiB; user supplied 0.327 GiB. 
  Using in-core AOs.

  ==> MemDFJK: Density-Fitted J/K Matrices <==

    J tasked:                   Yes
    K tasked:                   Yes
    wK tasked:                   No
    OpenMP threads:               1
    Memory [MiB]:               334
    Algorithm:                 Core
    Schwarz Cutoff:           1E-12
    Mask sparsity (%):       0.0000
    Fitting Condition:        1E-10

   => Auxiliary Basis Set <=

  Basis Set: (CC-PVDZ AUX)
    Blend: CC-PVDZ-JKFIT
    Number of shells: 60
    Number of basis functions: 182
    Number of Cartesian functions: 211
    Spherical Harmonics?: true
    Max angular momentum: 3

  Cached 100.0% of DFT collocation blocks in 0.039 [GiB].

  Minimum eigenvalue in the overlap matrix is 4.0882216587E-03.
  Reciprocal condition number of the overlap matrix is 1.2645110020E-03.
    Using symmetric orthogonalization.

  ==> Pre-Iterations <==

  SCF Guess: Orbitals guess was supplied from a previous computation.

   -------------------------------------------------------
    Irrep   Nso     Nmo     Nalpha   Nbeta   Ndocc  Nsocc
   -------------------------------------------------------
     A1        16      16       7       5       5       2
     A2         2       2       0       0       0       0
     B1         7       7       2       1       1       1
     B2         7       7       2       1       1       1
   -------------------------------------------------------
    Total      32      32      11       7       7       4
   -------------------------------------------------------

  ==> Iterations <==

                           Total Energy        Delta E     RMS |[F,P]|

   @DF-UKS iter   0:  -313.71403267834819   -3.13714e+02   4.15325e-02 
   @DF-UKS iter   1:  -313.69353893272176    2.04937e-02   3.69493e-03 ADIIS/DIIS
   @DF-UKS iter   2:  -313.69102588338694    2.51305e-03   4.55627e-03 ADIIS/DIIS/DAMP=1%
   @DF-UKS iter   3:  -313.69791617943355   -6.89030e-03   1.39583e-04 ADIIS/DIIS/DAMP=1%
   @DF-UKS iter   4:  -313.69823023573804   -3.14056e-04   3.06495e-05 DIIS/DAMP=1%
   @DF-UKS iter   5:  -313.69812705637577    1.03179e-04   7.68389e-06 DIIS/DAMP=1%
   @DF-UKS iter   6:  -313.69814485645145   -1.78001e-05   2.64863e-06 DIIS/DAMP=1%
   @DF-UKS iter   7:  -313.69814218062737    2.67582e-06   2.13428e-07 DIIS/DAMP=1%
   @DF-UKS iter   8:  -313.69814224634388   -6.57165e-08   3.28028e-08 DIIS/DAMP=1%
   @DF-UKS iter   9:  -313.69814224871658   -2.37270e-09   2.39887e-09 DIIS/DAMP=1%
  Energy and wave function converged.


  ==> Post-Iterations <==

   Electrons on quadrature grid:
      Nalpha   =   10.9999998515 ; deviation = -1.485e-07
      Nbeta    =    6.9999997767 ; deviation = -2.233e-07
      Ntotal   =   17.9999996282 ; deviation = -3.718e-07 

   @Spin Contamination Metric:   5.159712084E-04
   @S^2 Expected:                6.000000000E+00
   @S^2 Observed:                6.000515971E+00
   @S   Expected:                2.000000000E+00
   @S   Observed:                2.000000000E+00

    Orbital Energies [Eh]
    ---------------------

    Alpha Occupied:                                                       

       1A1   -66.471343     2A1    -7.094073     3A1    -5.632625  
       4A1    -3.993236     1B1    -3.989711     1B2    -3.989711  
       5A1    -0.904751     6A1    -0.630168     2B1    -0.556648  
       2B2    -0.556648     7A1    -0.504837  

    Alpha Virtual:                                                        

       3B2    -0.295177     3B1    -0.295177     8A1    -0.139990  
       9A1    -0.007808     4B2     0.012137     4B1     0.012137  
       1A2     0.032930    10A1     0.032931    11A1     0.035421  
       5B2     0.121064     5B1     0.121064    12A1     0.140765  
       6B2     0.179657     6B1     0.179657    13A1     0.363944  
       2A2     0.472811    14A1     0.472811    15A1     0.686925  
       7B2     0.752559     7B1     0.752559    16A1     1.092585  

    Beta Occupied:                                                        

       1A1   -66.461625     2A1    -7.064961     3A1    -5.620641  
       4A1    -3.976618     1B1    -3.975855     1B2    -3.975855  
       5A1    -0.801118  

    Beta Virtual:                                                         

       6A1    -0.461912     2B1    -0.414695     2B2    -0.414695  
       7A1    -0.301526     3B2    -0.207240     3B1    -0.207240  
       8A1    -0.093622     9A1     0.028337     4B2     0.043370  
       4B1     0.043370    10A1     0.086313    11A1     0.104117  
       1A2     0.104117     5B1     0.158839     5B2     0.158839  
      12A1     0.216323     6B2     0.268945     6B1     0.268945  
      13A1     0.417483    14A1     0.552065     2A2     0.552066  
      15A1     0.774266     7B2     0.847255     7B1     0.847255  
      16A1     1.161036  

    Final Occupation by Irrep:
             A1    A2    B1    B2 
    DOCC [     5,    0,    1,    1 ]
    SOCC [     2,    0,    1,    1 ]
    NA   [     7,    0,    2,    2 ]
    NB   [     5,    0,    1,    1 ]

  @DF-UKS Final Energy:  -313.69814224871658

   => Energetics <=

    Nuclear Repulsion Energy =             24.5666456814387217
    One-Electron Energy =                -476.0905962508275024
    Two-Electron Energy =                 157.7755160180732616
    DFT Exchange-Correlation Energy =     -19.9497076974010845
    Empirical Dispersion Energy =           0.0000000000000000
    VV10 Nonlocal Energy =                  0.0000000000000000
    Total Energy =                       -313.6981422487166355

  UHF NO Occupations:
  HONO-2 :    2 B2 1.0000000
  HONO-1 :    2 B1 1.0000000
  HONO-0 :    7 A1 1.0000000
  LUNO+0 :    8 A1 0.0002570
  LUNO+1 :    9 A1 0.0000003
  LUNO+2 :    3 B2 0.0000003
  LUNO+3 :    3 B1 0.0000003


Computation Completed


Properties will be evaluated at   0.000000,   0.000000,   0.000000 [a0]

Properties computed using the SCF density matrix


 Multipole Moments:

 ------------------------------------------------------------------------------------
     Multipole            Electronic (a.u.)      Nuclear  (a.u.)        Total (a.u.)
 ------------------------------------------------------------------------------------

 L = 1.  Multiply by 2.5417464519 to convert [e a0] to [Debye]
 Dipole X            :          0.0000000            0.0000000            0.0000000
 Dipole Y            :          0.0000000            0.0000000            0.0000000
 Dipole Z            :          0.4749630           -1.0411731           -0.5662102
 Magnitude           :                                                    0.5662102

 ------------------------------------------------------------------------------------

*** tstop() called on Joses-MacBook-Pro-2.local at Thu Jul 17 13:36:20 2025
Module time:
	user time   =       2.55 seconds =       0.04 minutes
	system time =       4.64 seconds =       0.08 minutes
	total time  =          1 seconds =       0.02 minutes
Total time:
	user time   =       9.57 seconds =       0.16 minutes
	system time =      19.89 seconds =       0.33 minutes
	total time  =          3 seconds =       0.05 minutes

*** tstart() called on Joses-MacBook-Pro-2.local
*** at Thu Jul 17 13:36:20 2025


         ------------------------------------------------------------
                                   SCF GRAD                          
                          Rob Parrish, Justin Turney,                
                       Andy Simmonett, and Alex Sokolov              
         ------------------------------------------------------------

  ==> Geometry <==

    Molecular point group: c2v
    Full point group: C_inf_v

    Geometry (in Angstrom), charge = 1, multiplicity = 5:

       Center              X                  Y                   Z               Mass       
    ------------   -----------------  -----------------  -----------------  -----------------
         B            0.000000000000     0.000000000000     1.082036849839    11.009305360000
         SI           0.000000000000     0.000000000000    -0.425796381740    27.976926534650

  Nuclear repulsion =   24.566645681438722

  ==> Basis Set <==

  Basis Set: CC-PVDZ
    Blend: CC-PVDZ
    Number of shells: 14
    Number of basis functions: 32
    Number of Cartesian functions: 34
    Spherical Harmonics?: true
    Max angular momentum: 2

  ==> DFJKGrad: Density-Fitted SCF Gradients <==

    Gradient:                    1
    J tasked:                  Yes
    K tasked:                  Yes
    wK tasked:                  No
    OpenMP threads:              1
    Integrals threads:           1
    Memory [MiB]:              375
    Schwarz Cutoff:          1E-12
    Fitting Condition:       1E-10

   => Auxiliary Basis Set <=

  Basis Set: (CC-PVDZ AUX)
    Blend: CC-PVDZ-JKFIT
    Number of shells: 60
    Number of basis functions: 182
    Number of Cartesian functions: 211
    Spherical Harmonics?: true
    Max angular momentum: 3

  ==> DFT Potential <==

   => LibXC <=

    Version 6.2.2
    S. Lehtola, C. Steigemann, M. J.T. Oliveira, and M. A.L. Marques.,  SoftwareX 7, 1–5 (2018) (10.1016/j.softx.2017.11.002)

   => Composite Functional: B3LYP <= 

    B3LYP Hyb-GGA Exchange-Correlation Functional

    P. J. Stephens, F. J. Devlin, C. F. Chabalowski, and M. J. Frisch.,  J. Phys. Chem. 98, 11623 (1994) (10.1021/j100096a001)

    Deriv               =              1
    GGA                 =           TRUE
    Meta                =          FALSE

    Exchange Hybrid     =           TRUE
    MP2 Hybrid          =          FALSE

   => Exchange Functionals <=

    0.0800   Slater exchange
    0.7200         Becke 88

   => Exact (HF) Exchange <=

    0.2000               HF 

   => Correlation Functionals <=

    0.1900   Vosko, Wilk & Nusair (VWN5_RPA)
    0.8100   Lee, Yang & Parr

   => LibXC Density Thresholds  <==

    XC_HYB_GGA_XC_B3LYP:  1.00E-15 

   => Molecular Quadrature <=

    Radial Scheme          =       TREUTLER
    Pruning Scheme         =           NONE
    Nuclear Scheme         =       TREUTLER

    Blocking Scheme        =         OCTREE
    BS radius alpha        =              1
    Pruning alpha          =              1
    Radial Points          =             75
    Spherical Points       =            302
    Total Points           =          42067
    Total Blocks           =            389
    Max Points             =            254
    Max Functions          =             32
    Weights Tolerance      =       1.00E-15


  -Total Gradient:
     Atom            X                  Y                   Z
    ------   -----------------  -----------------  -----------------
       1       -0.000000000000     0.000000000000    -0.330152602758
       2        0.000000000000    -0.000000000000     0.330148375295


*** tstop() called on Joses-MacBook-Pro-2.local at Thu Jul 17 13:36:20 2025
Module time:
	user time   =       0.91 seconds =       0.02 minutes
	system time =       1.67 seconds =       0.03 minutes
	total time  =          0 seconds =       0.00 minutes
Total time:
	user time   =      10.49 seconds =       0.17 minutes
	system time =      21.56 seconds =       0.36 minutes
	total time  =          3 seconds =       0.05 minutes

    			-----------------------------------------

    			 OPTKING 3.0: for geometry optimizations 

    			     By R.A. King, Bethel University     

    			        with contributions from          

    			    A.V. Copan, J. Cayton, A. Heide      

    			-----------------------------------------

    
	                            ===> Fragment 1 <== 

	 Z (Atomic Numbers)          Masses                          Geom                  
	       5.000000            11.009305          0.00000000  0.00000000  2.04475330   
	      14.000000            27.976927          0.00000000  0.00000000 -0.80463855   

	 - Coordinate -           - BOHR/RAD -       - ANG/DEG -
	 R(1,2)           =         2.849392           1.507833


	        --- Internal Coordinate Step in ANG or DEG, aJ/ANG or AJ/DEG ---
	-------------------------------------------------------------------------------
	           Coordinate      Previous         Force          Change          New 
	           ----------      --------        ------          ------        ------
	               R(1,2)       1.50783        2.72002        0.13487       1.64270
	-------------------------------------------------------------------------------

	                                 ==> Convergence Check <==                                  
    
	Measures of convergence in internal coordinates in au.
    
	Criteria marked as inactive (o), active & met (*), and active & unmet ( ).

	----------------------------------------------------------------------------------------------
	   Step    Total Energy     Delta E     Max Force     RMS Force      Max Disp      RMS Disp   
	----------------------------------------------------------------------------------------------
	  Convergence Criteria     1.00e-06 *    3.00e-04 *             o    1.20e-03 *             o
	----------------------------------------------------------------------------------------------
	     3    -313.69814225   -1.50e-01      3.30e-01      3.30e-01 o    2.55e-01      2.55e-01 o  ~
	----------------------------------------------------------------------------------------------

Next Geometry in Ang 
	Fragment 1 (Ang)

	    B   0.0000000000   0.0000000000   1.1494704367
	   Si   0.0000000000   0.0000000000  -0.4932299686


    Structure for next step:
    Molecular point group: c2v
    Full point group: C_inf_v

    Geometry (in Angstrom), charge = 1, multiplicity = 5:

    B            0.000000000000     0.000000000000     1.178818940040
    SI           0.000000000000     0.000000000000    -0.463881465284


Scratch directory: /tmp/
gradient() will perform analytic gradient computation.
   => Libint2 <=

    Primary   basis highest AM E, G, H:  6, 6, 3
    Auxiliary basis highest AM E, G, H:  7, 7, 4
    Onebody   basis highest AM E, G, H:  -, -, -
    Solid Harmonics ordering:            Gaussian

*** tstart() called on Joses-MacBook-Pro-2.local
*** at Thu Jul 17 13:36:20 2025

   => Loading Basis Set <=

    Name: CC-PVDZ
    Role: ORBITAL
    Keyword: BASIS
    atoms 1 entry B          line   108 file /Users/joseantoniorodriguesromero/anaconda3/share/psi4/basis/cc-pvdz.gbs 
    atoms 2 entry SI         line   478 file /Users/joseantoniorodriguesromero/anaconda3/share/psi4/basis/cc-pvdz.gbs 


         ---------------------------------------------------------
                                   SCF
               by Justin Turney, Rob Parrish, Andy Simmonett
                          and Daniel G. A. Smith
                              UKS Reference
                        1 Threads,    500 MiB Core
         ---------------------------------------------------------

  ==> Geometry <==

    Molecular point group: c2v
    Full point group: C_inf_v

    Geometry (in Angstrom), charge = 1, multiplicity = 5:

       Center              X                  Y                   Z               Mass       
    ------------   -----------------  -----------------  -----------------  -----------------
         B            0.000000000000     0.000000000000     1.178818940040    11.009305360000
         SI           0.000000000000     0.000000000000    -0.463881465284    27.976926534650

  Running in c2v symmetry.

  Rotational constants: A = ************  B =      0.79074  C =      0.79074 [cm^-1]
  Rotational constants: A = ************  B =  23705.64696  C =  23705.64696 [MHz]
  Nuclear repulsion =   22.549702080088281

  Charge       = 1
  Multiplicity = 5
  Electrons    = 18
  Nalpha       = 11
  Nbeta        = 7

  ==> Algorithm <==

  SCF Algorithm Type is DF.
  DIIS enabled.
  MOM disabled.
  Fractional occupation disabled.
  Guess Type is READ.
  Energy threshold   = 1.00e-08
  Density threshold  = 1.00e-08
  Integral threshold = 1.00e-12

  ==> Primary Basis <==

  Basis Set: CC-PVDZ
    Blend: CC-PVDZ
    Number of shells: 14
    Number of basis functions: 32
    Number of Cartesian functions: 34
    Spherical Harmonics?: true
    Max angular momentum: 2

  ==> DFT Potential <==

   => LibXC <=

    Version 6.2.2
    S. Lehtola, C. Steigemann, M. J.T. Oliveira, and M. A.L. Marques.,  SoftwareX 7, 1–5 (2018) (10.1016/j.softx.2017.11.002)

   => Composite Functional: B3LYP <= 

    B3LYP Hyb-GGA Exchange-Correlation Functional

    P. J. Stephens, F. J. Devlin, C. F. Chabalowski, and M. J. Frisch.,  J. Phys. Chem. 98, 11623 (1994) (10.1021/j100096a001)

    Deriv               =              1
    GGA                 =           TRUE
    Meta                =          FALSE

    Exchange Hybrid     =           TRUE
    MP2 Hybrid          =          FALSE

   => Exchange Functionals <=

    0.0800   Slater exchange
    0.7200         Becke 88

   => Exact (HF) Exchange <=

    0.2000               HF 

   => Correlation Functionals <=

    0.1900   Vosko, Wilk & Nusair (VWN5_RPA)
    0.8100   Lee, Yang & Parr

   => LibXC Density Thresholds  <==

    XC_HYB_GGA_XC_B3LYP:  1.00E-15 

   => Molecular Quadrature <=

    Radial Scheme          =       TREUTLER
    Pruning Scheme         =           NONE
    Nuclear Scheme         =       TREUTLER

    Blocking Scheme        =         OCTREE
    BS radius alpha        =              1
    Pruning alpha          =              1
    Radial Points          =             75
    Spherical Points       =            302
    Total Points           =          42089
    Total Blocks           =            390
    Max Points             =            252
    Max Functions          =             32
    Weights Tolerance      =       1.00E-15

   => Loading Basis Set <=

    Name: (CC-PVDZ AUX)
    Role: JKFIT
    Keyword: DF_BASIS_SCF
    atoms 1 entry B          line    71 file /Users/joseantoniorodriguesromero/anaconda3/share/psi4/basis/cc-pvdz-jkfit.gbs 
    atoms 2 entry SI         line   445 file /Users/joseantoniorodriguesromero/anaconda3/share/psi4/basis/cc-pvdz-jkfit.gbs 

   => Loading Basis Set <=

    Name: CC-PVDZ
    Role: ORBITAL
    Keyword: BASIS
    atoms 1 entry B          line   108 file /Users/joseantoniorodriguesromero/anaconda3/share/psi4/basis/cc-pvdz.gbs 
    atoms 2 entry SI         line   478 file /Users/joseantoniorodriguesromero/anaconda3/share/psi4/basis/cc-pvdz.gbs 

  Reading orbitals from file /tmp/quintet_BSi.default.74277.180.npy, no projection.

  ==> Integral Setup <==

  DFHelper Memory: AOs need 0.002 GiB; user supplied 0.327 GiB. 
  Using in-core AOs.

  ==> MemDFJK: Density-Fitted J/K Matrices <==

    J tasked:                   Yes
    K tasked:                   Yes
    wK tasked:                   No
    OpenMP threads:               1
    Memory [MiB]:               334
    Algorithm:                 Core
    Schwarz Cutoff:           1E-12
    Mask sparsity (%):       0.0000
    Fitting Condition:        1E-10

   => Auxiliary Basis Set <=

  Basis Set: (CC-PVDZ AUX)
    Blend: CC-PVDZ-JKFIT
    Number of shells: 60
    Number of basis functions: 182
    Number of Cartesian functions: 211
    Spherical Harmonics?: true
    Max angular momentum: 3

  Cached 100.0% of DFT collocation blocks in 0.039 [GiB].

  Minimum eigenvalue in the overlap matrix is 5.4152631842E-03.
  Reciprocal condition number of the overlap matrix is 1.6946145432E-03.
    Using symmetric orthogonalization.

  ==> Pre-Iterations <==

  SCF Guess: Orbitals guess was supplied from a previous computation.

   -------------------------------------------------------
    Irrep   Nso     Nmo     Nalpha   Nbeta   Ndocc  Nsocc
   -------------------------------------------------------
     A1        16      16       7       5       5       2
     A2         2       2       0       0       0       0
     B1         7       7       2       1       1       1
     B2         7       7       2       1       1       1
   -------------------------------------------------------
    Total      32      32      11       7       7       4
   -------------------------------------------------------

  ==> Iterations <==

                           Total Energy        Delta E     RMS |[F,P]|

   @DF-UKS iter   0:  -313.72906834112501   -3.13729e+02   2.38703e-02 
   @DF-UKS iter   1:  -313.75592000867721   -2.68517e-02   2.01949e-03 ADIIS/DIIS
   @DF-UKS iter   2:  -313.75426237882800    1.65763e-03   2.95699e-03 ADIIS/DIIS/DAMP=1%
   @DF-UKS iter   3:  -313.75685498179558   -2.59260e-03   8.41335e-05 DIIS/DAMP=1%
   @DF-UKS iter   4:  -313.75733227409512   -4.77292e-04   2.68574e-05 DIIS/DAMP=1%
   @DF-UKS iter   5:  -313.75737699409672   -4.47200e-05   3.16588e-06 DIIS/DAMP=1%
   @DF-UKS iter   6:  -313.75736752663573    9.46746e-06   6.68903e-07 DIIS/DAMP=1%
   @DF-UKS iter   7:  -313.75736920921719   -1.68258e-06   1.05720e-07 DIIS/DAMP=1%
   @DF-UKS iter   8:  -313.75736893830100    2.70916e-07   1.11202e-08 DIIS/DAMP=1%
   @DF-UKS iter   9:  -313.75736896793228   -2.96313e-08   2.24874e-09 DIIS/DAMP=1%
   @DF-UKS iter  10:  -313.75736896789692    3.53566e-11   2.77886e-10 DIIS/DAMP=1%
  Energy and wave function converged.


  ==> Post-Iterations <==

   Electrons on quadrature grid:
      Nalpha   =   11.0000002987 ; deviation = 2.987e-07
      Nbeta    =    7.0000002400 ; deviation = 2.400e-07
      Ntotal   =   18.0000005387 ; deviation = 5.387e-07 

   @Spin Contamination Metric:   5.063760340E-04
   @S^2 Expected:                6.000000000E+00
   @S^2 Observed:                6.000506376E+00
   @S   Expected:                2.000000000E+00
   @S   Observed:                2.000000000E+00

    Orbital Energies [Eh]
    ---------------------

    Alpha Occupied:                                                       

       1A1   -66.477145     2A1    -7.106755     3A1    -5.629051  
       4A1    -3.987844     1B2    -3.987652     1B1    -3.987652  
       5A1    -0.881443     6A1    -0.635405     2B1    -0.535366  
       2B2    -0.535366     7A1    -0.509177  

    Alpha Virtual:                                                        

       3B1    -0.305893     3B2    -0.305893     8A1    -0.147014  
       9A1    -0.009140     4B2     0.022690     4B1     0.022690  
      10A1     0.040745     1A2     0.041647    11A1     0.041647  
      12A1     0.114578     5B1     0.117511     5B2     0.117511  
       6B1     0.148013     6B2     0.148013    13A1     0.356029  
       2A2     0.462745    14A1     0.462745    15A1     0.611562  
       7B2     0.710831     7B1     0.710831    16A1     0.955469  

    Beta Occupied:                                                        

       1A1   -66.467705     2A1    -7.078408     3A1    -5.617252  
       1B1    -3.974065     1B2    -3.974065     4A1    -3.972431  
       5A1    -0.782152  

    Beta Virtual:                                                         

       6A1    -0.467776     2B2    -0.399420     2B1    -0.399420  
       7A1    -0.309086     3B1    -0.216204     3B2    -0.216204  
       8A1    -0.097243     9A1     0.026314     4B2     0.054439  
       4B1     0.054439    10A1     0.090273     1A2     0.113215  
      11A1     0.113215     5B1     0.155318     5B2     0.155318  
      12A1     0.189280     6B1     0.233090     6B2     0.233090  
      13A1     0.405140    14A1     0.540523     2A2     0.540524  
      15A1     0.691358     7B2     0.805021     7B1     0.805021  
      16A1     1.029721  

    Final Occupation by Irrep:
             A1    A2    B1    B2 
    DOCC [     5,    0,    1,    1 ]
    SOCC [     2,    0,    1,    1 ]
    NA   [     7,    0,    2,    2 ]
    NB   [     5,    0,    1,    1 ]

  @DF-UKS Final Energy:  -313.75736896789692

   => Energetics <=

    Nuclear Repulsion Energy =             22.5497020800882808
    One-Electron Energy =                -472.2765973175862655
    Two-Electron Energy =                 155.8615153080336881
    DFT Exchange-Correlation Energy =     -19.8919890384326550
    Empirical Dispersion Energy =           0.0000000000000000
    VV10 Nonlocal Energy =                  0.0000000000000000
    Total Energy =                       -313.7573689678969231

  UHF NO Occupations:
  HONO-2 :    2 B2 1.0000000
  HONO-1 :    6 A1 1.0000000
  HONO-0 :    7 A1 1.0000000
  LUNO+0 :    8 A1 0.0002522
  LUNO+1 :    3 B1 0.0000003
  LUNO+2 :    3 B2 0.0000003
  LUNO+3 :    9 A1 0.0000003


Computation Completed


Properties will be evaluated at   0.000000,   0.000000,   0.000000 [a0]

Properties computed using the SCF density matrix


 Multipole Moments:

 ------------------------------------------------------------------------------------
     Multipole            Electronic (a.u.)      Nuclear  (a.u.)        Total (a.u.)
 ------------------------------------------------------------------------------------

 L = 1.  Multiply by 2.5417464519 to convert [e a0] to [Debye]
 Dipole X            :          0.0000000            0.0000000            0.0000000
 Dipole Y            :          0.0000000            0.0000000            0.0000000
 Dipole Z            :          0.6701623           -1.1343002           -0.4641379
 Magnitude           :                                                    0.4641379

 ------------------------------------------------------------------------------------

*** tstop() called on Joses-MacBook-Pro-2.local at Thu Jul 17 13:36:21 2025
Module time:
	user time   =       2.10 seconds =       0.03 minutes
	system time =       5.28 seconds =       0.09 minutes
	total time  =          1 seconds =       0.02 minutes
Total time:
	user time   =      12.63 seconds =       0.21 minutes
	system time =      27.08 seconds =       0.45 minutes
	total time  =          4 seconds =       0.07 minutes

*** tstart() called on Joses-MacBook-Pro-2.local
*** at Thu Jul 17 13:36:21 2025


         ------------------------------------------------------------
                                   SCF GRAD                          
                          Rob Parrish, Justin Turney,                
                       Andy Simmonett, and Alex Sokolov              
         ------------------------------------------------------------

  ==> Geometry <==

    Molecular point group: c2v
    Full point group: C_inf_v

    Geometry (in Angstrom), charge = 1, multiplicity = 5:

       Center              X                  Y                   Z               Mass       
    ------------   -----------------  -----------------  -----------------  -----------------
         B            0.000000000000     0.000000000000     1.178818940040    11.009305360000
         SI           0.000000000000     0.000000000000    -0.463881465284    27.976926534650

  Nuclear repulsion =   22.549702080088281

  ==> Basis Set <==

  Basis Set: CC-PVDZ
    Blend: CC-PVDZ
    Number of shells: 14
    Number of basis functions: 32
    Number of Cartesian functions: 34
    Spherical Harmonics?: true
    Max angular momentum: 2

  ==> DFJKGrad: Density-Fitted SCF Gradients <==

    Gradient:                    1
    J tasked:                  Yes
    K tasked:                  Yes
    wK tasked:                  No
    OpenMP threads:              1
    Integrals threads:           1
    Memory [MiB]:              375
    Schwarz Cutoff:          1E-12
    Fitting Condition:       1E-10

   => Auxiliary Basis Set <=

  Basis Set: (CC-PVDZ AUX)
    Blend: CC-PVDZ-JKFIT
    Number of shells: 60
    Number of basis functions: 182
    Number of Cartesian functions: 211
    Spherical Harmonics?: true
    Max angular momentum: 3

  ==> DFT Potential <==

   => LibXC <=

    Version 6.2.2
    S. Lehtola, C. Steigemann, M. J.T. Oliveira, and M. A.L. Marques.,  SoftwareX 7, 1–5 (2018) (10.1016/j.softx.2017.11.002)

   => Composite Functional: B3LYP <= 

    B3LYP Hyb-GGA Exchange-Correlation Functional

    P. J. Stephens, F. J. Devlin, C. F. Chabalowski, and M. J. Frisch.,  J. Phys. Chem. 98, 11623 (1994) (10.1021/j100096a001)

    Deriv               =              1
    GGA                 =           TRUE
    Meta                =          FALSE

    Exchange Hybrid     =           TRUE
    MP2 Hybrid          =          FALSE

   => Exchange Functionals <=

    0.0800   Slater exchange
    0.7200         Becke 88

   => Exact (HF) Exchange <=

    0.2000               HF 

   => Correlation Functionals <=

    0.1900   Vosko, Wilk & Nusair (VWN5_RPA)
    0.8100   Lee, Yang & Parr

   => LibXC Density Thresholds  <==

    XC_HYB_GGA_XC_B3LYP:  1.00E-15 

   => Molecular Quadrature <=

    Radial Scheme          =       TREUTLER
    Pruning Scheme         =           NONE
    Nuclear Scheme         =       TREUTLER

    Blocking Scheme        =         OCTREE
    BS radius alpha        =              1
    Pruning alpha          =              1
    Radial Points          =             75
    Spherical Points       =            302
    Total Points           =          42089
    Total Blocks           =            390
    Max Points             =            252
    Max Functions          =             32
    Weights Tolerance      =       1.00E-15


  -Total Gradient:
     Atom            X                  Y                   Z
    ------   -----------------  -----------------  -----------------
       1        0.000000000000     0.000000000000    -0.149637515908
       2       -0.000000000000     0.000000000000     0.149626341290


*** tstop() called on Joses-MacBook-Pro-2.local at Thu Jul 17 13:36:21 2025
Module time:
	user time   =       1.04 seconds =       0.02 minutes
	system time =       1.80 seconds =       0.03 minutes
	total time  =          0 seconds =       0.00 minutes
Total time:
	user time   =      13.67 seconds =       0.23 minutes
	system time =      28.88 seconds =       0.48 minutes
	total time  =          4 seconds =       0.07 minutes

    			-----------------------------------------

    			 OPTKING 3.0: for geometry optimizations 

    			     By R.A. King, Bethel University     

    			        with contributions from          

    			    A.V. Copan, J. Cayton, A. Heide      

    			-----------------------------------------

    
	                            ===> Fragment 1 <== 

	 Z (Atomic Numbers)          Masses                          Geom                  
	       5.000000            11.009305          0.00000000  0.00000000  2.22764495   
	      14.000000            27.976927          0.00000000  0.00000000 -0.87660892   

	 - Coordinate -           - BOHR/RAD -       - ANG/DEG -
	 R(1,2)           =         3.104254           1.642700


	        --- Internal Coordinate Step in ANG or DEG, aJ/ANG or AJ/DEG ---
	-------------------------------------------------------------------------------
	           Coordinate      Previous         Force          Change          New 
	           ----------      --------        ------          ------        ------
	               R(1,2)       1.64270        1.23278        0.10720       1.74990
	-------------------------------------------------------------------------------

	                                 ==> Convergence Check <==                                  
    
	Measures of convergence in internal coordinates in au.
    
	Criteria marked as inactive (o), active & met (*), and active & unmet ( ).

	----------------------------------------------------------------------------------------------
	   Step    Total Energy     Delta E     Max Force     RMS Force      Max Disp      RMS Disp   
	----------------------------------------------------------------------------------------------
	  Convergence Criteria     1.00e-06 *    3.00e-04 *             o    1.20e-03 *             o
	----------------------------------------------------------------------------------------------
	     4    -313.75736897   -5.92e-02      1.50e-01      1.50e-01 o    2.03e-01      2.03e-01 o  ~
	----------------------------------------------------------------------------------------------

Next Geometry in Ang 
	Fragment 1 (Ang)

	    B   0.0000000000   0.0000000000   1.2324206719
	   Si   0.0000000000   0.0000000000  -0.5174831972


    Structure for next step:
    Molecular point group: c2v
    Full point group: C_inf_v

    Geometry (in Angstrom), charge = 1, multiplicity = 5:

    B            0.000000000000     0.000000000000     1.255749263515
    SI           0.000000000000     0.000000000000    -0.494154605600


Scratch directory: /tmp/
gradient() will perform analytic gradient computation.
   => Libint2 <=

    Primary   basis highest AM E, G, H:  6, 6, 3
    Auxiliary basis highest AM E, G, H:  7, 7, 4
    Onebody   basis highest AM E, G, H:  -, -, -
    Solid Harmonics ordering:            Gaussian

*** tstart() called on Joses-MacBook-Pro-2.local
*** at Thu Jul 17 13:36:21 2025

   => Loading Basis Set <=

    Name: CC-PVDZ
    Role: ORBITAL
    Keyword: BASIS
    atoms 1 entry B          line   108 file /Users/joseantoniorodriguesromero/anaconda3/share/psi4/basis/cc-pvdz.gbs 
    atoms 2 entry SI         line   478 file /Users/joseantoniorodriguesromero/anaconda3/share/psi4/basis/cc-pvdz.gbs 


         ---------------------------------------------------------
                                   SCF
               by Justin Turney, Rob Parrish, Andy Simmonett
                          and Daniel G. A. Smith
                              UKS Reference
                        1 Threads,    500 MiB Core
         ---------------------------------------------------------

  ==> Geometry <==

    Molecular point group: c2v
    Full point group: C_inf_v

    Geometry (in Angstrom), charge = 1, multiplicity = 5:

       Center              X                  Y                   Z               Mass       
    ------------   -----------------  -----------------  -----------------  -----------------
         B            0.000000000000     0.000000000000     1.255749263515    11.009305360000
         SI           0.000000000000     0.000000000000    -0.494154605600    27.976926534650

  Running in c2v symmetry.

  Rotational constants: A = ************  B =      0.69682  C =      0.69682 [cm^-1]
  Rotational constants: A = ************  B =  20890.08264  C =  20890.08264 [MHz]
  Nuclear repulsion =   21.168251239786404

  Charge       = 1
  Multiplicity = 5
  Electrons    = 18
  Nalpha       = 11
  Nbeta        = 7

  ==> Algorithm <==

  SCF Algorithm Type is DF.
  DIIS enabled.
  MOM disabled.
  Fractional occupation disabled.
  Guess Type is READ.
  Energy threshold   = 1.00e-08
  Density threshold  = 1.00e-08
  Integral threshold = 1.00e-12

  ==> Primary Basis <==

  Basis Set: CC-PVDZ
    Blend: CC-PVDZ
    Number of shells: 14
    Number of basis functions: 32
    Number of Cartesian functions: 34
    Spherical Harmonics?: true
    Max angular momentum: 2

  ==> DFT Potential <==

   => LibXC <=

    Version 6.2.2
    S. Lehtola, C. Steigemann, M. J.T. Oliveira, and M. A.L. Marques.,  SoftwareX 7, 1–5 (2018) (10.1016/j.softx.2017.11.002)

   => Composite Functional: B3LYP <= 

    B3LYP Hyb-GGA Exchange-Correlation Functional

    P. J. Stephens, F. J. Devlin, C. F. Chabalowski, and M. J. Frisch.,  J. Phys. Chem. 98, 11623 (1994) (10.1021/j100096a001)

    Deriv               =              1
    GGA                 =           TRUE
    Meta                =          FALSE

    Exchange Hybrid     =           TRUE
    MP2 Hybrid          =          FALSE

   => Exchange Functionals <=

[...]
    
	Measures of convergence in internal coordinates in au.
    
	Criteria marked as inactive (o), active & met (*), and active & unmet ( ).

	----------------------------------------------------------------------------------------------
	   Step    Total Energy     Delta E     Max Force     RMS Force      Max Disp      RMS Disp   
	----------------------------------------------------------------------------------------------
	  Convergence Criteria     1.00e-06 *    3.00e-04 *             o    1.20e-03 *             o
	----------------------------------------------------------------------------------------------
	     9    -313.78358592   -2.21e-05      1.30e-03      1.30e-03 o    4.50e-03      4.50e-03 o  ~
	----------------------------------------------------------------------------------------------

Next Geometry in Ang 
	Fragment 1 (Ang)

	    B   0.0000000000   0.0000000000   1.3333195487
	   Si   0.0000000000   0.0000000000  -0.5254009616


    Structure for next step:
    Molecular point group: c2v
    Full point group: C_inf_v

    Geometry (in Angstrom), charge = 1, multiplicity = 5:

    B            0.000000000000     0.000000000000     1.333837219943
    SI           0.000000000000     0.000000000000    -0.524883290404


Scratch directory: /tmp/
gradient() will perform analytic gradient computation.
   => Libint2 <=

    Primary   basis highest AM E, G, H:  6, 6, 3
    Auxiliary basis highest AM E, G, H:  7, 7, 4
    Onebody   basis highest AM E, G, H:  -, -, -
    Solid Harmonics ordering:            Gaussian

*** tstart() called on Joses-MacBook-Pro-2.local
*** at Thu Jul 17 13:36:26 2025

   => Loading Basis Set <=

    Name: CC-PVDZ
    Role: ORBITAL
    Keyword: BASIS
    atoms 1 entry B          line   108 file /Users/joseantoniorodriguesromero/anaconda3/share/psi4/basis/cc-pvdz.gbs 
    atoms 2 entry SI         line   478 file /Users/joseantoniorodriguesromero/anaconda3/share/psi4/basis/cc-pvdz.gbs 


         ---------------------------------------------------------
                                   SCF
               by Justin Turney, Rob Parrish, Andy Simmonett
                          and Daniel G. A. Smith
                              UKS Reference
                        1 Threads,    500 MiB Core
         ---------------------------------------------------------

  ==> Geometry <==

    Molecular point group: c2v
    Full point group: C_inf_v

    Geometry (in Angstrom), charge = 1, multiplicity = 5:

       Center              X                  Y                   Z               Mass       
    ------------   -----------------  -----------------  -----------------  -----------------
         B            0.000000000000     0.000000000000     1.333837219943    11.009305360000
         SI           0.000000000000     0.000000000000    -0.524883290404    27.976926534650

  Running in c2v symmetry.

  Rotational constants: A = ************  B =      0.61762  C =      0.61762 [cm^-1]
  Rotational constants: A = ************  B =  18515.70950  C =  18515.70950 [MHz]
  Nuclear repulsion =   19.928980468394506

  Charge       = 1
  Multiplicity = 5
  Electrons    = 18
  Nalpha       = 11
  Nbeta        = 7

  ==> Algorithm <==

  SCF Algorithm Type is DF.
  DIIS enabled.
  MOM disabled.
  Fractional occupation disabled.
  Guess Type is READ.
  Energy threshold   = 1.00e-08
  Density threshold  = 1.00e-08
  Integral threshold = 1.00e-12

  ==> Primary Basis <==

  Basis Set: CC-PVDZ
    Blend: CC-PVDZ
    Number of shells: 14
    Number of basis functions: 32
    Number of Cartesian functions: 34
    Spherical Harmonics?: true
    Max angular momentum: 2

  ==> DFT Potential <==

   => LibXC <=

    Version 6.2.2
    S. Lehtola, C. Steigemann, M. J.T. Oliveira, and M. A.L. Marques.,  SoftwareX 7, 1–5 (2018) (10.1016/j.softx.2017.11.002)

   => Composite Functional: B3LYP <= 

    B3LYP Hyb-GGA Exchange-Correlation Functional

    P. J. Stephens, F. J. Devlin, C. F. Chabalowski, and M. J. Frisch.,  J. Phys. Chem. 98, 11623 (1994) (10.1021/j100096a001)

    Deriv               =              1
    GGA                 =           TRUE
    Meta                =          FALSE

    Exchange Hybrid     =           TRUE
    MP2 Hybrid          =          FALSE

   => Exchange Functionals <=

    0.0800   Slater exchange
    0.7200         Becke 88

   => Exact (HF) Exchange <=

    0.2000               HF 

   => Correlation Functionals <=

    0.1900   Vosko, Wilk & Nusair (VWN5_RPA)
    0.8100   Lee, Yang & Parr

   => LibXC Density Thresholds  <==

    XC_HYB_GGA_XC_B3LYP:  1.00E-15 

   => Molecular Quadrature <=

    Radial Scheme          =       TREUTLER
    Pruning Scheme         =           NONE
    Nuclear Scheme         =       TREUTLER

    Blocking Scheme        =         OCTREE
    BS radius alpha        =              1
    Pruning alpha          =              1
    Radial Points          =             75
    Spherical Points       =            302
    Total Points           =          42109
    Total Blocks           =            384
    Max Points             =            255
    Max Functions          =             32
    Weights Tolerance      =       1.00E-15

   => Loading Basis Set <=

    Name: (CC-PVDZ AUX)
    Role: JKFIT
    Keyword: DF_BASIS_SCF
    atoms 1 entry B          line    71 file /Users/joseantoniorodriguesromero/anaconda3/share/psi4/basis/cc-pvdz-jkfit.gbs 
    atoms 2 entry SI         line   445 file /Users/joseantoniorodriguesromero/anaconda3/share/psi4/basis/cc-pvdz-jkfit.gbs 

   => Loading Basis Set <=

    Name: CC-PVDZ
    Role: ORBITAL
    Keyword: BASIS
    atoms 1 entry B          line   108 file /Users/joseantoniorodriguesromero/anaconda3/share/psi4/basis/cc-pvdz.gbs 
    atoms 2 entry SI         line   478 file /Users/joseantoniorodriguesromero/anaconda3/share/psi4/basis/cc-pvdz.gbs 

  Reading orbitals from file /tmp/quintet_BSi.default.74277.180.npy, no projection.

  ==> Integral Setup <==

  DFHelper Memory: AOs need 0.002 GiB; user supplied 0.327 GiB. 
  Using in-core AOs.

  ==> MemDFJK: Density-Fitted J/K Matrices <==

    J tasked:                   Yes
    K tasked:                   Yes
    wK tasked:                   No
    OpenMP threads:               1
    Memory [MiB]:               334
    Algorithm:                 Core
    Schwarz Cutoff:           1E-12
    Mask sparsity (%):       0.0000
    Fitting Condition:        1E-10

   => Auxiliary Basis Set <=

  Basis Set: (CC-PVDZ AUX)
    Blend: CC-PVDZ-JKFIT
    Number of shells: 60
    Number of basis functions: 182
    Number of Cartesian functions: 211
    Spherical Harmonics?: true
    Max angular momentum: 3

  Cached 100.0% of DFT collocation blocks in 0.039 [GiB].

  Minimum eigenvalue in the overlap matrix is 8.3637094121E-03.
  Reciprocal condition number of the overlap matrix is 2.6857286920E-03.
    Using symmetric orthogonalization.

  ==> Pre-Iterations <==

  SCF Guess: Orbitals guess was supplied from a previous computation.

   -------------------------------------------------------
    Irrep   Nso     Nmo     Nalpha   Nbeta   Ndocc  Nsocc
   -------------------------------------------------------
     A1        16      16       7       5       5       2
     A2         2       2       0       0       0       0
     B1         7       7       2       1       1       1
     B2         7       7       2       1       1       1
   -------------------------------------------------------
    Total      32      32      11       7       7       4
   -------------------------------------------------------

  ==> Iterations <==

                           Total Energy        Delta E     RMS |[F,P]|

   @DF-UKS iter   0:  -313.78242180473268   -3.13782e+02   2.07746e-04 
   @DF-UKS iter   1:  -313.78358924669737   -1.16744e-03   2.21020e-05 DIIS
   @DF-UKS iter   2:  -313.78358914696355    9.97338e-08   2.88485e-05 DIIS/DAMP=1%
   @DF-UKS iter   3:  -313.78357685143061    1.22955e-05   8.19085e-06 DIIS/DAMP=1%
   @DF-UKS iter   4:  -313.78358935768762   -1.25063e-05   7.76364e-07 DIIS/DAMP=1%
   @DF-UKS iter   5:  -313.78358928885490    6.88327e-08   2.00208e-07 DIIS/DAMP=1%
   @DF-UKS iter   6:  -313.78358948395510   -1.95100e-07   8.22481e-08 DIIS/DAMP=1%
   @DF-UKS iter   7:  -313.78358943788010    4.60750e-08   5.22084e-09 DIIS/DAMP=1%
   @DF-UKS iter   8:  -313.78358945231832   -1.44382e-08   1.05072e-09 DIIS/DAMP=1%
   @DF-UKS iter   9:  -313.78358945238671   -6.83826e-11   2.05079e-10 DIIS/DAMP=1%
  Energy and wave function converged.


  ==> Post-Iterations <==

   Electrons on quadrature grid:
      Nalpha   =   11.0000002714 ; deviation = 2.714e-07
      Nbeta    =    7.0000002813 ; deviation = 2.813e-07
      Ntotal   =   18.0000005527 ; deviation = 5.527e-07 

   @Spin Contamination Metric:   6.385183380E-04
   @S^2 Expected:                6.000000000E+00
   @S^2 Observed:                6.000638518E+00
   @S   Expected:                2.000000000E+00
   @S   Observed:                2.000000000E+00

    Orbital Energies [Eh]
    ---------------------

    Alpha Occupied:                                                       

       1A1   -66.484343     2A1    -7.132135     3A1    -5.627043  
       1B1    -3.986708     1B2    -3.986708     4A1    -3.984857  
       5A1    -0.844275     6A1    -0.643096     7A1    -0.512603  
       2B2    -0.508337     2B1    -0.508337  

    Alpha Virtual:                                                        

       3B1    -0.323005     3B2    -0.323005     8A1    -0.166063  
       9A1    -0.008482     4B2     0.039100     4B1     0.039100  
      10A1     0.047774    11A1     0.054509     1A2     0.054510  
      12A1     0.080799     5B1     0.095256     5B2     0.095256  
       6B2     0.127028     6B1     0.127028    13A1     0.338057  
      14A1     0.449089     2A2     0.449089    15A1     0.469098  
       7B1     0.647424     7B2     0.647424    16A1     0.882202  

    Beta Occupied:                                                        

       1A1   -66.475303     2A1    -7.103805     3A1    -5.615620  
       1B1    -3.973521     1B2    -3.973521     4A1    -3.970909  
       5A1    -0.748700  

    Beta Virtual:                                                         

       6A1    -0.476424     2B2    -0.379615     2B1    -0.379615  
       7A1    -0.320284     3B1    -0.231182     3B2    -0.231182  
       8A1    -0.108123     9A1     0.026311     4B2     0.071102  
       4B1     0.071102    10A1     0.095056     1A2     0.125750  
      11A1     0.125750     5B1     0.145151     5B2     0.145151  
      12A1     0.149263     6B2     0.193807     6B1     0.193807  
      13A1     0.381423    14A1     0.525831     2A2     0.525831  
      15A1     0.540428     7B1     0.739425     7B2     0.739425  
      16A1     0.963908  

    Final Occupation by Irrep:
             A1    A2    B1    B2 
    DOCC [     5,    0,    1,    1 ]
    SOCC [     2,    0,    1,    1 ]
    NA   [     7,    0,    2,    2 ]
    NB   [     5,    0,    1,    1 ]

  @DF-UKS Final Energy:  -313.78358945238671

   => Energetics <=

    Nuclear Repulsion Energy =             19.9289804683945064
    One-Electron Energy =                -467.1966032181474020
    Two-Electron Energy =                 153.3036787996892372
    DFT Exchange-Correlation Energy =     -19.8196455023230698
    Empirical Dispersion Energy =           0.0000000000000000
    VV10 Nonlocal Energy =                  0.0000000000000000
    Total Energy =                       -313.7835894523867069

  UHF NO Occupations:
  HONO-2 :    6 A1 1.0000000
  HONO-1 :    2 B2 1.0000000
  HONO-0 :    7 A1 1.0000000
  LUNO+0 :    8 A1 0.0003183
  LUNO+1 :    3 B1 0.0000003
  LUNO+2 :    3 B2 0.0000003
  LUNO+3 :    9 A1 0.0000003


Computation Completed


Properties will be evaluated at   0.000000,   0.000000,   0.000000 [a0]

Properties computed using the SCF density matrix


 Multipole Moments:

 ------------------------------------------------------------------------------------
     Multipole            Electronic (a.u.)      Nuclear  (a.u.)        Total (a.u.)
 ------------------------------------------------------------------------------------

 L = 1.  Multiply by 2.5417464519 to convert [e a0] to [Debye]
 Dipole X            :          0.0000000            0.0000000            0.0000000
 Dipole Y            :          0.0000000            0.0000000            0.0000000
 Dipole Z            :          1.0059347           -1.2834641           -0.2775294
 Magnitude           :                                                    0.2775294

 ------------------------------------------------------------------------------------

*** tstop() called on Joses-MacBook-Pro-2.local at Thu Jul 17 13:36:27 2025
Module time:
	user time   =       2.59 seconds =       0.04 minutes
	system time =       4.87 seconds =       0.08 minutes
	total time  =          1 seconds =       0.02 minutes
Total time:
	user time   =      31.92 seconds =       0.53 minutes
	system time =      66.98 seconds =       1.12 minutes
	total time  =         10 seconds =       0.17 minutes

*** tstart() called on Joses-MacBook-Pro-2.local
*** at Thu Jul 17 13:36:27 2025


         ------------------------------------------------------------
                                   SCF GRAD                          
                          Rob Parrish, Justin Turney,                
                       Andy Simmonett, and Alex Sokolov              
         ------------------------------------------------------------

  ==> Geometry <==

    Molecular point group: c2v
    Full point group: C_inf_v

    Geometry (in Angstrom), charge = 1, multiplicity = 5:

       Center              X                  Y                   Z               Mass       
    ------------   -----------------  -----------------  -----------------  -----------------
         B            0.000000000000     0.000000000000     1.333837219943    11.009305360000
         SI           0.000000000000     0.000000000000    -0.524883290404    27.976926534650

  Nuclear repulsion =   19.928980468394506

  ==> Basis Set <==

  Basis Set: CC-PVDZ
    Blend: CC-PVDZ
    Number of shells: 14
    Number of basis functions: 32
    Number of Cartesian functions: 34
    Spherical Harmonics?: true
    Max angular momentum: 2

  ==> DFJKGrad: Density-Fitted SCF Gradients <==

    Gradient:                    1
    J tasked:                  Yes
    K tasked:                  Yes
    wK tasked:                  No
    OpenMP threads:              1
    Integrals threads:           1
    Memory [MiB]:              375
    Schwarz Cutoff:          1E-12
    Fitting Condition:       1E-10

   => Auxiliary Basis Set <=

  Basis Set: (CC-PVDZ AUX)
    Blend: CC-PVDZ-JKFIT
    Number of shells: 60
    Number of basis functions: 182
    Number of Cartesian functions: 211
    Spherical Harmonics?: true
    Max angular momentum: 3

  ==> DFT Potential <==

   => LibXC <=

    Version 6.2.2
    S. Lehtola, C. Steigemann, M. J.T. Oliveira, and M. A.L. Marques.,  SoftwareX 7, 1–5 (2018) (10.1016/j.softx.2017.11.002)

   => Composite Functional: B3LYP <= 

    B3LYP Hyb-GGA Exchange-Correlation Functional

    P. J. Stephens, F. J. Devlin, C. F. Chabalowski, and M. J. Frisch.,  J. Phys. Chem. 98, 11623 (1994) (10.1021/j100096a001)

    Deriv               =              1
    GGA                 =           TRUE
    Meta                =          FALSE

    Exchange Hybrid     =           TRUE
    MP2 Hybrid          =          FALSE

   => Exchange Functionals <=

    0.0800   Slater exchange
    0.7200         Becke 88

   => Exact (HF) Exchange <=

    0.2000               HF 

   => Correlation Functionals <=

    0.1900   Vosko, Wilk & Nusair (VWN5_RPA)
    0.8100   Lee, Yang & Parr

   => LibXC Density Thresholds  <==

    XC_HYB_GGA_XC_B3LYP:  1.00E-15 

   => Molecular Quadrature <=

    Radial Scheme          =       TREUTLER
    Pruning Scheme         =           NONE
    Nuclear Scheme         =       TREUTLER

    Blocking Scheme        =         OCTREE
    BS radius alpha        =              1
    Pruning alpha          =              1
    Radial Points          =             75
    Spherical Points       =            302
    Total Points           =          42109
    Total Blocks           =            384
    Max Points             =            255
    Max Functions          =             32
    Weights Tolerance      =       1.00E-15


  -Total Gradient:
     Atom            X                  Y                   Z
    ------   -----------------  -----------------  -----------------
       1       -0.000000000000     0.000000000000    -0.000283134555
       2       -0.000000000000     0.000000000000     0.000271693366


*** tstop() called on Joses-MacBook-Pro-2.local at Thu Jul 17 13:36:27 2025
Module time:
	user time   =       0.75 seconds =       0.01 minutes
	system time =       1.51 seconds =       0.03 minutes
	total time  =          0 seconds =       0.00 minutes
Total time:
	user time   =      32.67 seconds =       0.54 minutes
	system time =      68.50 seconds =       1.14 minutes
	total time  =         10 seconds =       0.17 minutes

    			-----------------------------------------

    			 OPTKING 3.0: for geometry optimizations 

    			     By R.A. King, Bethel University     

    			        with contributions from          

    			    A.V. Copan, J. Cayton, A. Heide      

    			-----------------------------------------

    
	                            ===> Fragment 1 <== 

	 Z (Atomic Numbers)          Masses                          Geom                  
	       5.000000            11.009305          0.00000000  0.00000000  2.52058704   
	      14.000000            27.976927          0.00000000  0.00000000 -0.99188567   

	 - Coordinate -           - BOHR/RAD -       - ANG/DEG -
	 R(1,2)           =         3.512473           1.858721


	        --- Internal Coordinate Step in ANG or DEG, aJ/ANG or AJ/DEG ---
	-------------------------------------------------------------------------------
	           Coordinate      Previous         Force          Change          New 
	           ----------      --------        ------          ------        ------
	               R(1,2)       1.85872        0.00229        0.00057       1.85929
	-------------------------------------------------------------------------------

	                                 ==> Convergence Check <==                                  
    
	Measures of convergence in internal coordinates in au.
    
	Criteria marked as inactive (o), active & met (*), and active & unmet ( ).

	----------------------------------------------------------------------------------------------
	   Step    Total Energy     Delta E     Max Force     RMS Force      Max Disp      RMS Disp   
	----------------------------------------------------------------------------------------------
	  Convergence Criteria     1.00e-06 *    3.00e-04 *             o    1.20e-03 *             o
	----------------------------------------------------------------------------------------------
	    10    -313.78358945   -3.54e-06      2.77e-04 *    2.77e-04 o    1.08e-03 *    1.08e-03 o  ~
	----------------------------------------------------------------------------------------------

Next Geometry in Ang 
	Fragment 1 (Ang)

	    B   0.0000000000   0.0000000000   1.3341238984
	   Si   0.0000000000   0.0000000000  -0.5251699689


    Final optimized geometry and variables:
    Molecular point group: c2v
    Full point group: C_inf_v

    Geometry (in Angstrom), charge = 1, multiplicity = 5:

    B            0.000000000000     0.000000000000     1.333837219943
    SI           0.000000000000     0.000000000000    -0.524883290404


    Psi4 stopped on: Thursday, 17 July 2025 01:36PM
    Psi4 wall time for execution: 0:00:10.92

*** Psi4 exiting successfully. Buy a developer a beer!
