
    -----------------------------------------------------------------------
          Psi4: An Open-Source Ab Initio Electronic Structure Package
                               Psi4 1.9.1 release

                         Git: Rev {} zzzzzzz 


    D. G. A. Smith, L. A. Burns, A. C. Simmonett, R. M. Parrish,
    M. C. Schieber, R. Galvelis, P. Kraus, H. Kruse, R. Di Remigio,
    A. Alenaizan, A. M. James, S. Lehtola, J. P. Misiewicz, M. Scheurer,
    R. A. Shaw, J. B. Schriber, Y. Xie, Z. L. Glick, D. A. Sirianni,
    J. S. O'Brien, J. M. Waldrop, A. Kumar, E. G. Hohenstein,
    B. P. Pritchard, B. R. Brooks, H. F. Schaefer III, A. Yu. Sokolov,
    K. Patkowski, A. E. DePrince III, U. Bozkaya, R. A. King,
    F. A. Evangelista, J. M. Turney, T. D. Crawford, C. D. Sherrill,
    J. Chem. Phys. 152(18) 184108 (2020). https://doi.org/10.1063/5.0006002

                            Additional Code Authors
    E. T. Seidl, C. L. Janssen, E. F. Valeev, M. L. Leininger,
    J. F. Gonthier, R. M. Richard, H. R. McAlexander, M. Saitow, X. Wang,
    P. Verma, M. H. Lechner, A. Jiang, S. Behnle, A. G. Heide,
    M. F. Herbst, and D. L. Poole

             Previous Authors, Complete List of Code Contributors,
                       and Citations for Specific Modules
    https://github.com/psi4/psi4/blob/master/codemeta.json
    https://github.com/psi4/psi4/graphs/contributors
    http://psicode.org/psi4manual/master/introduction.html#citing-psifour

    -----------------------------------------------------------------------


    Psi4 started on: Thursday, 17 July 2025 12:56PM

    Process ID: 74037
    Host:       Joses-MacBook-Pro-2.local
    PSIDATADIR: /Users/joseantoniorodriguesromero/anaconda3/share/psi4
    Memory:     500.0 MiB
    Threads:    1
    
  ==> Input File <==

--------------------------------------------------------------------------
molecule { 
1 5
Li   0.00000        0.60000        0.00000
S   0.00000       -0.60000        0.00000
}

set { 
basis              cc-pvdz
reference          uks
maxiter            500
geom_maxiter       500
DAMPING_PERCENTAGE 1
guess              SAP
}

optimize('b3lyp')
--------------------------------------------------------------------------

Scratch directory: /tmp/
gradient() will perform analytic gradient computation.
   => Libint2 <=

    Primary   basis highest AM E, G, H:  6, 6, 3
    Auxiliary basis highest AM E, G, H:  7, 7, 4
    Onebody   basis highest AM E, G, H:  -, -, -
    Solid Harmonics ordering:            Gaussian

*** tstart() called on Joses-MacBook-Pro-2.local
*** at Thu Jul 17 12:56:57 2025

   => Loading Basis Set <=

    Name: CC-PVDZ
    Role: ORBITAL
    Keyword: BASIS
    atoms 1 entry LI         line    42 file /Users/joseantoniorodriguesromero/anaconda3/share/psi4/basis/cc-pvdz.gbs 
    atoms 2 entry S          line   598 file /Users/joseantoniorodriguesromero/anaconda3/share/psi4/basis/cc-pvdz.gbs 


         ---------------------------------------------------------
                                   SCF
               by Justin Turney, Rob Parrish, Andy Simmonett
                          and Daniel G. A. Smith
                              UKS Reference
                        1 Threads,    500 MiB Core
         ---------------------------------------------------------

  ==> Geometry <==

    Molecular point group: c2v
    Full point group: C_inf_v

    Geometry (in Angstrom), charge = 1, multiplicity = 5:

       Center              X                  Y                   Z               Mass       
    ------------   -----------------  -----------------  -----------------  -----------------
         LI           0.000000000000     0.000000000000     0.984056940284     7.016003436600
         S            0.000000000000     0.000000000000    -0.215943059716    31.972071174400

  Running in c2v symmetry.

  Rotational constants: A = ************  B =      2.03472  C =      2.03472 [cm^-1]
  Rotational constants: A = ************  B =  60999.45173  C =  60999.45173 [MHz]
  Nuclear repulsion =   21.167088426800003

  Charge       = 1
  Multiplicity = 5
  Electrons    = 18
  Nalpha       = 11
  Nbeta        = 7

  ==> Algorithm <==

  SCF Algorithm Type is DF.
  DIIS enabled.
  MOM disabled.
  Fractional occupation disabled.
  Guess Type is SAP.
  Energy threshold   = 1.00e-08
  Density threshold  = 1.00e-08
  Integral threshold = 1.00e-12

  ==> Primary Basis <==

  Basis Set: CC-PVDZ
    Blend: CC-PVDZ
    Number of shells: 14
    Number of basis functions: 32
    Number of Cartesian functions: 34
    Spherical Harmonics?: true
    Max angular momentum: 2

  ==> DFT Potential <==

   => LibXC <=

    Version 6.2.2
    S. Lehtola, C. Steigemann, M. J.T. Oliveira, and M. A.L. Marques.,  SoftwareX 7, 1–5 (2018) (10.1016/j.softx.2017.11.002)

   => Composite Functional: B3LYP <= 

    B3LYP Hyb-GGA Exchange-Correlation Functional

    P. J. Stephens, F. J. Devlin, C. F. Chabalowski, and M. J. Frisch.,  J. Phys. Chem. 98, 11623 (1994) (10.1021/j100096a001)

    Deriv               =              1
    GGA                 =           TRUE
    Meta                =          FALSE

    Exchange Hybrid     =           TRUE
    MP2 Hybrid          =          FALSE

   => Exchange Functionals <=

    0.0800   Slater exchange
    0.7200         Becke 88

   => Exact (HF) Exchange <=

    0.2000               HF 

   => Correlation Functionals <=

    0.1900   Vosko, Wilk & Nusair (VWN5_RPA)
    0.8100   Lee, Yang & Parr

   => LibXC Density Thresholds  <==

    XC_HYB_GGA_XC_B3LYP:  1.00E-15 

   => Molecular Quadrature <=

    Radial Scheme          =       TREUTLER
    Pruning Scheme         =           NONE
    Nuclear Scheme         =       TREUTLER

    Blocking Scheme        =         OCTREE
    BS radius alpha        =              1
    Pruning alpha          =              1
    Radial Points          =             75
    Spherical Points       =            302
    Total Points           =          44315
    Total Blocks           =            435
    Max Points             =            256
    Max Functions          =             32
    Weights Tolerance      =       1.00E-15

   => Loading Basis Set <=

    Name: (CC-PVDZ AUX)
    Role: JKFIT
    Keyword: DF_BASIS_SCF
    atoms 1 entry LI         line    54 file /Users/joseantoniorodriguesromero/anaconda3/share/psi4/basis/def2-universal-jkfit.gbs 
    atoms 2 entry S          line   593 file /Users/joseantoniorodriguesromero/anaconda3/share/psi4/basis/cc-pvdz-jkfit.gbs 

  ==> Integral Setup <==

  DFHelper Memory: AOs need 0.002 GiB; user supplied 0.327 GiB. 
  Using in-core AOs.

  ==> MemDFJK: Density-Fitted J/K Matrices <==

    J tasked:                   Yes
    K tasked:                   Yes
    wK tasked:                   No
    OpenMP threads:               1
    Memory [MiB]:               335
    Algorithm:                 Core
    Schwarz Cutoff:           1E-12
    Mask sparsity (%):       0.0000
    Fitting Condition:        1E-10

   => Auxiliary Basis Set <=

  Basis Set: (CC-PVDZ AUX)
    Blend: CC-PVDZ-JKFIT + DEF2-UNIVERSAL-JKFIT
    Number of shells: 53
    Number of basis functions: 163
    Number of Cartesian functions: 190
    Spherical Harmonics?: true
    Max angular momentum: 3

  Cached 100.0% of DFT collocation blocks in 0.039 [GiB].

  Minimum eigenvalue in the overlap matrix is 4.0875272339E-03.
  Reciprocal condition number of the overlap matrix is 1.3631898554E-03.
    Using symmetric orthogonalization.

  ==> Pre-Iterations <==

  SCF Guess: Superposition of Atomic Potentials (doi:10.1021/acs.jctc.8b01089).

  ==> SAP guess <==

   => Molecular Quadrature <=

    Radial Scheme          =       TREUTLER
    Pruning Scheme         =           NONE
    Nuclear Scheme         =       TREUTLER

    Blocking Scheme        =         OCTREE
    BS radius alpha        =              1
    Pruning alpha          =              1
    Radial Points          =             75
    Spherical Points       =            302
    Total Points           =          44315
    Total Blocks           =            435
    Max Points             =            256
    Max Functions          =             32
    Weights Tolerance      =       1.00E-15

   -------------------------------------------------------
    Irrep   Nso     Nmo     Nalpha   Nbeta   Ndocc  Nsocc
   -------------------------------------------------------
     A1        16      16       7       5       5       2
     A2         2       2       0       0       0       0
     B1         7       7       2       1       1       1
     B2         7       7       2       1       1       1
   -------------------------------------------------------
    Total      32      32      11       7       7       4
   -------------------------------------------------------

  ==> Iterations <==

                           Total Energy        Delta E     RMS |[F,P]|

   @DF-UKS iter   1:  -404.56457976022966   -4.04565e+02   1.32046e-02 DIIS/ADIIS
   @DF-UKS iter   2:  -404.60058211747457   -3.60024e-02   7.36652e-03 DIIS/ADIIS/DAMP=1%
   @DF-UKS iter   3:  -404.61597982120713   -1.53977e-02   9.12011e-04 DIIS/ADIIS/DAMP=1%
   @DF-UKS iter   4:  -404.61613305309498   -1.53232e-04   2.00479e-04 DIIS/ADIIS/DAMP=1%
   @DF-UKS iter   5:  -404.61543924347342    6.93810e-04   2.27738e-05 DIIS/DAMP=1%
   @DF-UKS iter   6:  -404.61559470546331   -1.55462e-04   4.84851e-06 DIIS/DAMP=1%
   @DF-UKS iter   7:  -404.61558876524032    5.94022e-06   6.23743e-07 DIIS/DAMP=1%
   @DF-UKS iter   8:  -404.61559070795875   -1.94272e-06   4.63944e-08 DIIS/DAMP=1%
   @DF-UKS iter   9:  -404.61559053992596    1.68033e-07   4.51694e-09 DIIS/DAMP=1%
   @DF-UKS iter  10:  -404.61559052984268    1.00833e-08   3.34743e-10 DIIS/DAMP=1%
   @DF-UKS iter  11:  -404.61559052948331    3.59364e-10   4.51683e-11 DIIS/DAMP=1%
  Energy and wave function converged.


  ==> Post-Iterations <==

   Electrons on quadrature grid:
      Nalpha   =   10.9999968110 ; deviation = -3.189e-06
      Nbeta    =    6.9999966980 ; deviation = -3.302e-06
      Ntotal   =   17.9999935090 ; deviation = -6.491e-06 

   @Spin Contamination Metric:   4.993524729E-04
   @S^2 Expected:                6.000000000E+00
   @S^2 Observed:                6.000499352E+00
   @S   Expected:                2.000000000E+00
   @S   Observed:                2.000000000E+00

    Orbital Energies [Eh]
    ---------------------

    Alpha Occupied:                                                       

       1A1   -89.441196     2A1    -8.519357     3A1    -6.489847  
       1B2    -6.477377     1B1    -6.477377     4A1    -2.603810  
       5A1    -1.195533     2B2    -0.813065     2B1    -0.813065  
       6A1    -0.722333     7A1    -0.339364  

    Alpha Virtual:                                                        

       3B2    -0.236264     3B1    -0.236264     8A1    -0.181859  
       4B2    -0.133041     4B1    -0.133041     1A2    -0.120788  
       9A1    -0.120787    10A1    -0.070216    11A1     0.003851  
       5B1     0.052758     5B2     0.052758    12A1     0.103989  
       6B2     0.110270     6B1     0.110270    13A1     0.170552  
       2A2     0.215605    14A1     0.215606     7B1     0.425952  
       7B2     0.425952    15A1     0.453135    16A1     0.821264  

    Beta Occupied:                                                        

       1A1   -89.420076     2A1    -8.497848     3A1    -6.456891  
       1B2    -6.447029     1B1    -6.447029     4A1    -2.570895  
       5A1    -1.045697  

    Beta Virtual:                                                         

       2B2    -0.622903     2B1    -0.622903     6A1    -0.523742  
       7A1    -0.237163     3B2    -0.171142     3B1    -0.171142  
       8A1    -0.157524     4B2    -0.113232     4B1    -0.113232  
       9A1    -0.054130    10A1    -0.053203     1A2    -0.053070  
      11A1     0.056601     5B1     0.127777     5B2     0.127777  
       6B2     0.162109     6B1     0.162109    12A1     0.181396  
      13A1     0.222047    14A1     0.308915     2A2     0.308993  
       7B1     0.485862     7B2     0.485862    15A1     0.516776  
      16A1     0.856755  

    Final Occupation by Irrep:
             A1    A2    B1    B2 
    DOCC [     5,    0,    1,    1 ]
    SOCC [     2,    0,    1,    1 ]
    NA   [     7,    0,    2,    2 ]
    NB   [     5,    0,    1,    1 ]

  @DF-UKS Final Energy:  -404.61559052948331

   => Energetics <=

    Nuclear Repulsion Energy =             21.1670884268000030
    One-Electron Energy =                -591.0873818558350195
    Two-Electron Energy =                 187.3607395984075197
    DFT Exchange-Correlation Energy =     -22.0560366988557881
    Empirical Dispersion Energy =           0.0000000000000000
    VV10 Nonlocal Energy =                  0.0000000000000000
    Total Energy =                       -404.6155905294833133

  UHF NO Occupations:
  HONO-2 :    6 A1 1.0000000
  HONO-1 :    7 A1 1.0000000
  HONO-0 :    2 B2 1.0000000
  LUNO+0 :    8 A1 0.0002407
  LUNO+1 :    9 A1 0.0000089
  LUNO+2 :    3 B2 0.0000001
  LUNO+3 :    3 B1 0.0000001


Computation Completed


Properties will be evaluated at   0.000000,   0.000000,   0.000000 [a0]

Properties computed using the SCF density matrix


 Multipole Moments:

 ------------------------------------------------------------------------------------
     Multipole            Electronic (a.u.)      Nuclear  (a.u.)        Total (a.u.)
 ------------------------------------------------------------------------------------

 L = 1.  Multiply by 2.5417464519 to convert [e a0] to [Debye]
 Dipole X            :          0.0000000            0.0000000            0.0000000
 Dipole Y            :          0.0000000            0.0000000            0.0000000
 Dipole Z            :         -0.2618156           -0.9503775           -1.2121932
 Magnitude           :                                                    1.2121932

 ------------------------------------------------------------------------------------

*** tstop() called on Joses-MacBook-Pro-2.local at Thu Jul 17 12:56:58 2025
Module time:
	user time   =       4.80 seconds =       0.08 minutes
	system time =       4.09 seconds =       0.07 minutes
	total time  =          1 seconds =       0.02 minutes
Total time:
	user time   =       4.80 seconds =       0.08 minutes
	system time =       4.09 seconds =       0.07 minutes
	total time  =          1 seconds =       0.02 minutes

*** tstart() called on Joses-MacBook-Pro-2.local
*** at Thu Jul 17 12:56:58 2025


         ------------------------------------------------------------
                                   SCF GRAD                          
                          Rob Parrish, Justin Turney,                
                       Andy Simmonett, and Alex Sokolov              
         ------------------------------------------------------------

  ==> Geometry <==

    Molecular point group: c2v
    Full point group: C_inf_v

    Geometry (in Angstrom), charge = 1, multiplicity = 5:

       Center              X                  Y                   Z               Mass       
    ------------   -----------------  -----------------  -----------------  -----------------
         LI           0.000000000000     0.000000000000     0.984056940284     7.016003436600
         S            0.000000000000     0.000000000000    -0.215943059716    31.972071174400

  Nuclear repulsion =   21.167088426800003

  ==> Basis Set <==

  Basis Set: CC-PVDZ
    Blend: CC-PVDZ
    Number of shells: 14
    Number of basis functions: 32
    Number of Cartesian functions: 34
    Spherical Harmonics?: true
    Max angular momentum: 2

  ==> DFJKGrad: Density-Fitted SCF Gradients <==

    Gradient:                    1
    J tasked:                  Yes
    K tasked:                  Yes
    wK tasked:                  No
    OpenMP threads:              1
    Integrals threads:           1
    Memory [MiB]:              375
    Schwarz Cutoff:          1E-12
    Fitting Condition:       1E-10

   => Auxiliary Basis Set <=

  Basis Set: (CC-PVDZ AUX)
    Blend: CC-PVDZ-JKFIT + DEF2-UNIVERSAL-JKFIT
    Number of shells: 53
    Number of basis functions: 163
    Number of Cartesian functions: 190
    Spherical Harmonics?: true
    Max angular momentum: 3

  ==> DFT Potential <==

   => LibXC <=

    Version 6.2.2
    S. Lehtola, C. Steigemann, M. J.T. Oliveira, and M. A.L. Marques.,  SoftwareX 7, 1–5 (2018) (10.1016/j.softx.2017.11.002)

   => Composite Functional: B3LYP <= 

    B3LYP Hyb-GGA Exchange-Correlation Functional

    P. J. Stephens, F. J. Devlin, C. F. Chabalowski, and M. J. Frisch.,  J. Phys. Chem. 98, 11623 (1994) (10.1021/j100096a001)

    Deriv               =              1
    GGA                 =           TRUE
    Meta                =          FALSE

    Exchange Hybrid     =           TRUE
    MP2 Hybrid          =          FALSE

   => Exchange Functionals <=

    0.0800   Slater exchange
    0.7200         Becke 88

   => Exact (HF) Exchange <=

    0.2000               HF 

   => Correlation Functionals <=

    0.1900   Vosko, Wilk & Nusair (VWN5_RPA)
    0.8100   Lee, Yang & Parr

   => LibXC Density Thresholds  <==

    XC_HYB_GGA_XC_B3LYP:  1.00E-15 

   => Molecular Quadrature <=

    Radial Scheme          =       TREUTLER
    Pruning Scheme         =           NONE
    Nuclear Scheme         =       TREUTLER

    Blocking Scheme        =         OCTREE
    BS radius alpha        =              1
    Pruning alpha          =              1
    Radial Points          =             75
    Spherical Points       =            302
    Total Points           =          44315
    Total Blocks           =            435
    Max Points             =            256
    Max Functions          =             32
    Weights Tolerance      =       1.00E-15


  -Total Gradient:
     Atom            X                  Y                   Z
    ------   -----------------  -----------------  -----------------
       1       -0.000000000000     0.000000000000    -0.924546199804
       2        0.000000000000     0.000000000000     0.924580260886


*** tstop() called on Joses-MacBook-Pro-2.local at Thu Jul 17 12:56:58 2025
Module time:
	user time   =       1.04 seconds =       0.02 minutes
	system time =       1.87 seconds =       0.03 minutes
	total time  =          0 seconds =       0.00 minutes
Total time:
	user time   =       5.84 seconds =       0.10 minutes
	system time =       5.97 seconds =       0.10 minutes
	total time  =          1 seconds =       0.02 minutes

    			-----------------------------------------

    			 OPTKING 3.0: for geometry optimizations 

    			     By R.A. King, Bethel University     

    			        with contributions from          

    			    A.V. Copan, J. Cayton, A. Heide      

    			-----------------------------------------

    
	                            ===> Fragment 1 <== 

	 Z (Atomic Numbers)          Masses                          Geom                  
	       3.000000             7.016003          0.00000000  0.00000000  1.85959811   
	      16.000000            31.972071          0.00000000  0.00000000 -0.40807324   

	 - Coordinate -           - BOHR/RAD -       - ANG/DEG -
	 R(1,2)           =         2.267671           1.200000


	        --- Internal Coordinate Step in ANG or DEG, aJ/ANG or AJ/DEG ---
	-------------------------------------------------------------------------------
	           Coordinate      Previous         Force          Change          New 
	           ----------      --------        ------          ------        ------
	               R(1,2)       1.20000        7.61722        0.11177       1.31177
	-------------------------------------------------------------------------------

	                                 ==> Convergence Check <==                                  
    
	Measures of convergence in internal coordinates in au.
    
	Criteria marked as inactive (o), active & met (*), and active & unmet ( ).

	----------------------------------------------------------------------------------------------
	   Step    Total Energy     Delta E     Max Force     RMS Force      Max Disp      RMS Disp   
	----------------------------------------------------------------------------------------------
	  Convergence Criteria     1.00e-06 *    3.00e-04 *             o    1.20e-03 *             o
	----------------------------------------------------------------------------------------------
	     1    -404.61559053   -4.05e+02      9.25e-01      9.25e-01 o    2.11e-01      2.11e-01 o  ~
	----------------------------------------------------------------------------------------------

Next Geometry in Ang 
	Fragment 1 (Ang)

	   Li   0.0000000000   0.0000000000   1.0399402599
	    S   0.0000000000   0.0000000000  -0.2718263794


    Structure for next step:
    Molecular point group: c2v
    Full point group: C_inf_v

    Geometry (in Angstrom), charge = 1, multiplicity = 5:

    LI           0.000000000000     0.000000000000     1.075710887877
    S            0.000000000000     0.000000000000    -0.236055751439


Scratch directory: /tmp/
gradient() will perform analytic gradient computation.
   => Libint2 <=

    Primary   basis highest AM E, G, H:  6, 6, 3
    Auxiliary basis highest AM E, G, H:  7, 7, 4
    Onebody   basis highest AM E, G, H:  -, -, -
    Solid Harmonics ordering:            Gaussian

*** tstart() called on Joses-MacBook-Pro-2.local
*** at Thu Jul 17 12:56:58 2025

   => Loading Basis Set <=

    Name: CC-PVDZ
    Role: ORBITAL
    Keyword: BASIS
    atoms 1 entry LI         line    42 file /Users/joseantoniorodriguesromero/anaconda3/share/psi4/basis/cc-pvdz.gbs 
    atoms 2 entry S          line   598 file /Users/joseantoniorodriguesromero/anaconda3/share/psi4/basis/cc-pvdz.gbs 


         ---------------------------------------------------------
                                   SCF
               by Justin Turney, Rob Parrish, Andy Simmonett
                          and Daniel G. A. Smith
                              UKS Reference
                        1 Threads,    500 MiB Core
         ---------------------------------------------------------

  ==> Geometry <==

    Molecular point group: c2v
    Full point group: C_inf_v

    Geometry (in Angstrom), charge = 1, multiplicity = 5:

       Center              X                  Y                   Z               Mass       
    ------------   -----------------  -----------------  -----------------  -----------------
         LI           0.000000000000     0.000000000000     1.075710887877     7.016003436600
         S            0.000000000000     0.000000000000    -0.236055751439    31.972071174400

  Running in c2v symmetry.

  Rotational constants: A = ************  B =      1.70276  C =      1.70276 [cm^-1]
  Rotational constants: A = ************  B =  51047.59195  C =  51047.59195 [MHz]
  Nuclear repulsion =   19.363585984618478

  Charge       = 1
  Multiplicity = 5
  Electrons    = 18
  Nalpha       = 11
  Nbeta        = 7

  ==> Algorithm <==

  SCF Algorithm Type is DF.
  DIIS enabled.
  MOM disabled.
  Fractional occupation disabled.
  Guess Type is READ.
  Energy threshold   = 1.00e-08
  Density threshold  = 1.00e-08
  Integral threshold = 1.00e-12

  ==> Primary Basis <==

  Basis Set: CC-PVDZ
    Blend: CC-PVDZ
    Number of shells: 14
    Number of basis functions: 32
    Number of Cartesian functions: 34
    Spherical Harmonics?: true
    Max angular momentum: 2

  ==> DFT Potential <==

   => LibXC <=

    Version 6.2.2
    S. Lehtola, C. Steigemann, M. J.T. Oliveira, and M. A.L. Marques.,  SoftwareX 7, 1–5 (2018) (10.1016/j.softx.2017.11.002)

   => Composite Functional: B3LYP <= 

    B3LYP Hyb-GGA Exchange-Correlation Functional

    P. J. Stephens, F. J. Devlin, C. F. Chabalowski, and M. J. Frisch.,  J. Phys. Chem. 98, 11623 (1994) (10.1021/j100096a001)

    Deriv               =              1
    GGA                 =           TRUE
    Meta                =          FALSE

    Exchange Hybrid     =           TRUE
    MP2 Hybrid          =          FALSE

   => Exchange Functionals <=

    0.0800   Slater exchange
    0.7200         Becke 88

   => Exact (HF) Exchange <=

    0.2000               HF 

   => Correlation Functionals <=

    0.1900   Vosko, Wilk & Nusair (VWN5_RPA)
    0.8100   Lee, Yang & Parr

   => LibXC Density Thresholds  <==

    XC_HYB_GGA_XC_B3LYP:  1.00E-15 

   => Molecular Quadrature <=

    Radial Scheme          =       TREUTLER
    Pruning Scheme         =           NONE
    Nuclear Scheme         =       TREUTLER

    Blocking Scheme        =         OCTREE
    BS radius alpha        =              1
    Pruning alpha          =              1
    Radial Points          =             75
    Spherical Points       =            302
    Total Points           =          44317
    Total Blocks           =            435
    Max Points             =            256
    Max Functions          =             32
    Weights Tolerance      =       1.00E-15

   => Loading Basis Set <=

    Name: (CC-PVDZ AUX)
    Role: JKFIT
    Keyword: DF_BASIS_SCF
    atoms 1 entry LI         line    54 file /Users/joseantoniorodriguesromero/anaconda3/share/psi4/basis/def2-universal-jkfit.gbs 
    atoms 2 entry S          line   593 file /Users/joseantoniorodriguesromero/anaconda3/share/psi4/basis/cc-pvdz-jkfit.gbs 

   => Loading Basis Set <=

    Name: CC-PVDZ
    Role: ORBITAL
    Keyword: BASIS
    atoms 1 entry LI         line    42 file /Users/joseantoniorodriguesromero/anaconda3/share/psi4/basis/cc-pvdz.gbs 
    atoms 2 entry S          line   598 file /Users/joseantoniorodriguesromero/anaconda3/share/psi4/basis/cc-pvdz.gbs 

  Reading orbitals from file /tmp/quintet_LiS.default.74037.180.npy, no projection.

  ==> Integral Setup <==

  DFHelper Memory: AOs need 0.002 GiB; user supplied 0.327 GiB. 
  Using in-core AOs.

  ==> MemDFJK: Density-Fitted J/K Matrices <==

    J tasked:                   Yes
    K tasked:                   Yes
    wK tasked:                   No
    OpenMP threads:               1
    Memory [MiB]:               335
    Algorithm:                 Core
    Schwarz Cutoff:           1E-12
    Mask sparsity (%):       0.0000
    Fitting Condition:        1E-10

   => Auxiliary Basis Set <=

  Basis Set: (CC-PVDZ AUX)
    Blend: CC-PVDZ-JKFIT + DEF2-UNIVERSAL-JKFIT
    Number of shells: 53
    Number of basis functions: 163
    Number of Cartesian functions: 190
    Spherical Harmonics?: true
    Max angular momentum: 3

  Cached 100.0% of DFT collocation blocks in 0.039 [GiB].

  Minimum eigenvalue in the overlap matrix is 3.9250520958E-03.
  Reciprocal condition number of the overlap matrix is 1.3078408269E-03.
    Using symmetric orthogonalization.

  ==> Pre-Iterations <==

  SCF Guess: Orbitals guess was supplied from a previous computation.

   -------------------------------------------------------
    Irrep   Nso     Nmo     Nalpha   Nbeta   Ndocc  Nsocc
   -------------------------------------------------------
     A1        16      16       7       5       5       2
     A2         2       2       0       0       0       0
     B1         7       7       2       1       1       1
     B2         7       7       2       1       1       1
   -------------------------------------------------------
    Total      32      32      11       7       7       4
   -------------------------------------------------------

  ==> Iterations <==

                           Total Energy        Delta E     RMS |[F,P]|

   @DF-UKS iter   0:  -404.82306556105107   -4.04823e+02   1.07299e-02 
   @DF-UKS iter   1:  -404.77866878224518    4.43968e-02   1.70923e-03 DIIS/ADIIS
   @DF-UKS iter   2:  -404.77947249413796   -8.03712e-04   7.73628e-04 DIIS/ADIIS/DAMP=1%
   @DF-UKS iter   3:  -404.78025084557254   -7.78351e-04   8.55908e-05 DIIS/DAMP=1%
   @DF-UKS iter   4:  -404.77962346492512    6.27381e-04   4.90032e-05 DIIS/DAMP=1%
   @DF-UKS iter   5:  -404.77960882127911    1.46436e-05   5.31302e-06 DIIS/DAMP=1%
   @DF-UKS iter   6:  -404.77960764736468    1.17391e-06   1.08135e-06 DIIS/DAMP=1%
   @DF-UKS iter   7:  -404.77960803307036   -3.85706e-07   5.98436e-08 DIIS/DAMP=1%
   @DF-UKS iter   8:  -404.77960810991055   -7.68402e-08   7.04654e-09 DIIS/DAMP=1%
   @DF-UKS iter   9:  -404.77960808214522    2.77653e-08   8.45683e-10 DIIS/DAMP=1%
   @DF-UKS iter  10:  -404.77960808329362   -1.14841e-09   8.01184e-11 DIIS/DAMP=1%
  Energy and wave function converged.


  ==> Post-Iterations <==

   Electrons on quadrature grid:
      Nalpha   =   11.0000004623 ; deviation = 4.623e-07
      Nbeta    =    6.9999991753 ; deviation = -8.247e-07
      Ntotal   =   17.9999996376 ; deviation = -3.624e-07 

   @Spin Contamination Metric:   4.734805943E-04
   @S^2 Expected:                6.000000000E+00
   @S^2 Observed:                6.000473481E+00
   @S   Expected:                2.000000000E+00
   @S   Observed:                2.000000000E+00

    Orbital Energies [Eh]
    ---------------------

    Alpha Occupied:                                                       

       1A1   -89.430776     2A1    -8.504055     3A1    -6.472399  
       1B2    -6.464227     1B1    -6.464227     4A1    -2.502054  
       5A1    -1.205338     2B2    -0.798193     2B1    -0.798193  
       6A1    -0.752812     7A1    -0.327828  

    Alpha Virtual:                                                        

       3B1    -0.238018     3B2    -0.238018     8A1    -0.181925  
       4B1    -0.128940     4B2    -0.128940     9A1    -0.106991  
       1A2    -0.106990    10A1    -0.065934    11A1    -0.002430  
       5B1     0.043380     5B2     0.043380    12A1     0.071971  
       6B1     0.119377     6B2     0.119377    13A1     0.167951  
      14A1     0.206062     2A2     0.206064     7B1     0.417257  
       7B2     0.417257    15A1     0.424266    16A1     0.860953  

    Beta Occupied:                                                        

       1A1   -89.409948     2A1    -8.482921     3A1    -6.439640  
       1B2    -6.434235     1B1    -6.434235     4A1    -2.476136  
       5A1    -1.054198  

    Beta Virtual:                                                         

       2B1    -0.610523     2B2    -0.610523     6A1    -0.555110  
       7A1    -0.231542     3B1    -0.174764     3B2    -0.174764  
       8A1    -0.155855     4B1    -0.108632     4B2    -0.108632  
       9A1    -0.049088    10A1    -0.040111     1A2    -0.039974  
      11A1     0.049493     5B1     0.114682     5B2     0.114682  
      12A1     0.164945     6B1     0.172575     6B2     0.172575  
      13A1     0.209999    14A1     0.301562     2A2     0.301627  
       7B1     0.483007     7B2     0.483007    15A1     0.487010  
      16A1     0.891722  

    Final Occupation by Irrep:
             A1    A2    B1    B2 
    DOCC [     5,    0,    1,    1 ]
    SOCC [     2,    0,    1,    1 ]
    NA   [     7,    0,    2,    2 ]
    NB   [     5,    0,    1,    1 ]

  @DF-UKS Final Energy:  -404.77960808329362

   => Energetics <=

    Nuclear Repulsion Energy =             19.3635859846184779
    One-Electron Energy =                -588.1550029351019475
    Two-Electron Energy =                 186.0384771117151672
    DFT Exchange-Correlation Energy =     -22.0266682445252684
    Empirical Dispersion Energy =           0.0000000000000000
    VV10 Nonlocal Energy =                  0.0000000000000000
    Total Energy =                       -404.7796080832936241

  UHF NO Occupations:
  HONO-2 :    7 A1 1.0000000
  HONO-1 :    2 B1 1.0000000
  HONO-0 :    2 B2 1.0000000
  LUNO+0 :    8 A1 0.0002280
  LUNO+1 :    9 A1 0.0000087
  LUNO+2 :    3 B1 0.0000000
  LUNO+3 :    3 B2 0.0000000


Computation Completed


Properties will be evaluated at   0.000000,   0.000000,   0.000000 [a0]

Properties computed using the SCF density matrix


 Multipole Moments:

 ------------------------------------------------------------------------------------
     Multipole            Electronic (a.u.)      Nuclear  (a.u.)        Total (a.u.)
 ------------------------------------------------------------------------------------

 L = 1.  Multiply by 2.5417464519 to convert [e a0] to [Debye]
 Dipole X            :          0.0000000            0.0000000            0.0000000
 Dipole Y            :          0.0000000            0.0000000            0.0000000
 Dipole Z            :         -0.2027456           -1.0388946           -1.2416402
 Magnitude           :                                                    1.2416402

 ------------------------------------------------------------------------------------

*** tstop() called on Joses-MacBook-Pro-2.local at Thu Jul 17 12:56:59 2025
Module time:
	user time   =       4.57 seconds =       0.08 minutes
	system time =       3.20 seconds =       0.05 minutes
	total time  =          1 seconds =       0.02 minutes
Total time:
	user time   =      10.45 seconds =       0.17 minutes
	system time =       9.38 seconds =       0.16 minutes
	total time  =          2 seconds =       0.03 minutes

*** tstart() called on Joses-MacBook-Pro-2.local
*** at Thu Jul 17 12:56:59 2025


         ------------------------------------------------------------
                                   SCF GRAD                          
                          Rob Parrish, Justin Turney,                
                       Andy Simmonett, and Alex Sokolov              
         ------------------------------------------------------------

  ==> Geometry <==

    Molecular point group: c2v
    Full point group: C_inf_v

    Geometry (in Angstrom), charge = 1, multiplicity = 5:

       Center              X                  Y                   Z               Mass       
    ------------   -----------------  -----------------  -----------------  -----------------
         LI           0.000000000000     0.000000000000     1.075710887877     7.016003436600
         S            0.000000000000     0.000000000000    -0.236055751439    31.972071174400

  Nuclear repulsion =   19.363585984618478

  ==> Basis Set <==

  Basis Set: CC-PVDZ
    Blend: CC-PVDZ
    Number of shells: 14
    Number of basis functions: 32
    Number of Cartesian functions: 34
    Spherical Harmonics?: true
    Max angular momentum: 2

  ==> DFJKGrad: Density-Fitted SCF Gradients <==

    Gradient:                    1
    J tasked:                  Yes
    K tasked:                  Yes
    wK tasked:                  No
    OpenMP threads:              1
    Integrals threads:           1
    Memory [MiB]:              375
    Schwarz Cutoff:          1E-12
    Fitting Condition:       1E-10

   => Auxiliary Basis Set <=

  Basis Set: (CC-PVDZ AUX)
    Blend: CC-PVDZ-JKFIT + DEF2-UNIVERSAL-JKFIT
    Number of shells: 53
    Number of basis functions: 163
    Number of Cartesian functions: 190
    Spherical Harmonics?: true
    Max angular momentum: 3

  ==> DFT Potential <==

   => LibXC <=

    Version 6.2.2
    S. Lehtola, C. Steigemann, M. J.T. Oliveira, and M. A.L. Marques.,  SoftwareX 7, 1–5 (2018) (10.1016/j.softx.2017.11.002)

   => Composite Functional: B3LYP <= 

    B3LYP Hyb-GGA Exchange-Correlation Functional

    P. J. Stephens, F. J. Devlin, C. F. Chabalowski, and M. J. Frisch.,  J. Phys. Chem. 98, 11623 (1994) (10.1021/j100096a001)

    Deriv               =              1
    GGA                 =           TRUE
    Meta                =          FALSE

    Exchange Hybrid     =           TRUE
    MP2 Hybrid          =          FALSE

   => Exchange Functionals <=

    0.0800   Slater exchange
    0.7200         Becke 88

   => Exact (HF) Exchange <=

    0.2000               HF 

   => Correlation Functionals <=

    0.1900   Vosko, Wilk & Nusair (VWN5_RPA)
    0.8100   Lee, Yang & Parr

   => LibXC Density Thresholds  <==

    XC_HYB_GGA_XC_B3LYP:  1.00E-15 

   => Molecular Quadrature <=

    Radial Scheme          =       TREUTLER
    Pruning Scheme         =           NONE
    Nuclear Scheme         =       TREUTLER

    Blocking Scheme        =         OCTREE
    BS radius alpha        =              1
    Pruning alpha          =              1
    Radial Points          =             75
    Spherical Points       =            302
    Total Points           =          44317
    Total Blocks           =            435
    Max Points             =            256
    Max Functions          =             32
    Weights Tolerance      =       1.00E-15


  -Total Gradient:
     Atom            X                  Y                   Z
    ------   -----------------  -----------------  -----------------
       1        0.000000000000    -0.000000000000    -0.644464266070
       2        0.000000000000     0.000000000000     0.644402295570


*** tstop() called on Joses-MacBook-Pro-2.local at Thu Jul 17 12:56:59 2025
Module time:
	user time   =       1.07 seconds =       0.02 minutes
	system time =       1.41 seconds =       0.02 minutes
	total time  =          0 seconds =       0.00 minutes
Total time:
	user time   =      11.52 seconds =       0.19 minutes
	system time =      10.79 seconds =       0.18 minutes
	total time  =          2 seconds =       0.03 minutes

    			-----------------------------------------

    			 OPTKING 3.0: for geometry optimizations 

    			     By R.A. King, Bethel University     

    			        with contributions from          

    			    A.V. Copan, J. Cayton, A. Heide      

    			-----------------------------------------

    
	                            ===> Fragment 1 <== 

	 Z (Atomic Numbers)          Masses                          Geom                  
	       3.000000             7.016003          0.00000000  0.00000000  2.03279897   
	      16.000000            31.972071          0.00000000  0.00000000 -0.44608072   

	 - Coordinate -           - BOHR/RAD -       - ANG/DEG -
	 R(1,2)           =         2.478880           1.311767


	        --- Internal Coordinate Step in ANG or DEG, aJ/ANG or AJ/DEG ---
	-------------------------------------------------------------------------------
	           Coordinate      Previous         Force          Change          New 
	           ----------      --------        ------          ------        ------
	               R(1,2)       1.31177        5.30931        0.14998       1.46175
	-------------------------------------------------------------------------------

	                                 ==> Convergence Check <==                                  
    
	Measures of convergence in internal coordinates in au.
    
	Criteria marked as inactive (o), active & met (*), and active & unmet ( ).

	----------------------------------------------------------------------------------------------
	   Step    Total Energy     Delta E     Max Force     RMS Force      Max Disp      RMS Disp   
	----------------------------------------------------------------------------------------------
	  Convergence Criteria     1.00e-06 *    3.00e-04 *             o    1.20e-03 *             o
	----------------------------------------------------------------------------------------------
	     2    -404.77960808   -1.64e-01      6.44e-01      6.44e-01 o    2.83e-01      2.83e-01 o  ~
	----------------------------------------------------------------------------------------------

Next Geometry in Ang 
	Fragment 1 (Ang)

	   Li   0.0000000000   0.0000000000   1.1507012118
	    S   0.0000000000   0.0000000000  -0.3110460753


    Structure for next step:
    Molecular point group: c2v
    Full point group: C_inf_v

    Geometry (in Angstrom), charge = 1, multiplicity = 5:

    LI           0.000000000000     0.000000000000     1.198702135692
    S            0.000000000000     0.000000000000    -0.263045151426


Scratch directory: /tmp/
gradient() will perform analytic gradient computation.
   => Libint2 <=

    Primary   basis highest AM E, G, H:  6, 6, 3
    Auxiliary basis highest AM E, G, H:  7, 7, 4
    Onebody   basis highest AM E, G, H:  -, -, -
    Solid Harmonics ordering:            Gaussian

*** tstart() called on Joses-MacBook-Pro-2.local
*** at Thu Jul 17 12:56:59 2025

   => Loading Basis Set <=

    Name: CC-PVDZ
    Role: ORBITAL
    Keyword: BASIS
    atoms 1 entry LI         line    42 file /Users/joseantoniorodriguesromero/anaconda3/share/psi4/basis/cc-pvdz.gbs 
    atoms 2 entry S          line   598 file /Users/joseantoniorodriguesromero/anaconda3/share/psi4/basis/cc-pvdz.gbs 


         ---------------------------------------------------------
                                   SCF
               by Justin Turney, Rob Parrish, Andy Simmonett
                          and Daniel G. A. Smith
                              UKS Reference
                        1 Threads,    500 MiB Core
         ---------------------------------------------------------

  ==> Geometry <==

    Molecular point group: c2v
    Full point group: C_inf_v

    Geometry (in Angstrom), charge = 1, multiplicity = 5:

       Center              X                  Y                   Z               Mass       
    ------------   -----------------  -----------------  -----------------  -----------------
         LI           0.000000000000     0.000000000000     1.198702135692     7.016003436600
         S            0.000000000000     0.000000000000    -0.263045151426    31.972071174400

  Running in c2v symmetry.

  Rotational constants: A = ************  B =      1.37127  C =      1.37127 [cm^-1]
  Rotational constants: A = ************  B =  41109.65486  C =  41109.65486 [MHz]
  Nuclear repulsion =   17.376810845497566

  Charge       = 1
  Multiplicity = 5
  Electrons    = 18
  Nalpha       = 11
  Nbeta        = 7

  ==> Algorithm <==

  SCF Algorithm Type is DF.
  DIIS enabled.
  MOM disabled.
  Fractional occupation disabled.
  Guess Type is READ.
  Energy threshold   = 1.00e-08
  Density threshold  = 1.00e-08
  Integral threshold = 1.00e-12

  ==> Primary Basis <==

  Basis Set: CC-PVDZ
    Blend: CC-PVDZ
    Number of shells: 14
    Number of basis functions: 32
    Number of Cartesian functions: 34
    Spherical Harmonics?: true
    Max angular momentum: 2

  ==> DFT Potential <==

   => LibXC <=

    Version 6.2.2
    S. Lehtola, C. Steigemann, M. J.T. Oliveira, and M. A.L. Marques.,  SoftwareX 7, 1–5 (2018) (10.1016/j.softx.2017.11.002)

   => Composite Functional: B3LYP <= 

    B3LYP Hyb-GGA Exchange-Correlation Functional

    P. J. Stephens, F. J. Devlin, C. F. Chabalowski, and M. J. Frisch.,  J. Phys. Chem. 98, 11623 (1994) (10.1021/j100096a001)

    Deriv               =              1
    GGA                 =           TRUE
    Meta                =          FALSE

    Exchange Hybrid     =           TRUE
    MP2 Hybrid          =          FALSE

   => Exchange Functionals <=

    0.0800   Slater exchange
    0.7200         Becke 88

   => Exact (HF) Exchange <=

    0.2000               HF 

   => Correlation Functionals <=

    0.1900   Vosko, Wilk & Nusair (VWN5_RPA)
    0.8100   Lee, Yang & Parr

   => LibXC Density Thresholds  <==

    XC_HYB_GGA_XC_B3LYP:  1.00E-15 

   => Molecular Quadrature <=

    Radial Scheme          =       TREUTLER
    Pruning Scheme         =           NONE
    Nuclear Scheme         =       TREUTLER

    Blocking Scheme        =         OCTREE
    BS radius alpha        =              1
    Pruning alpha          =              1
    Radial Points          =             75
    Spherical Points       =            302
    Total Points           =          44325
    Total Blocks           =            437
    Max Points             =            255
    Max Functions          =             32
    Weights Tolerance      =       1.00E-15

   => Loading Basis Set <=

    Name: (CC-PVDZ AUX)
    Role: JKFIT
    Keyword: DF_BASIS_SCF
    atoms 1 entry LI         line    54 file /Users/joseantoniorodriguesromero/anaconda3/share/psi4/basis/def2-universal-jkfit.gbs 
    atoms 2 entry S          line   593 file /Users/joseantoniorodriguesromero/anaconda3/share/psi4/basis/cc-pvdz-jkfit.gbs 

   => Loading Basis Set <=

    Name: CC-PVDZ
    Role: ORBITAL
    Keyword: BASIS
    atoms 1 entry LI         line    42 file /Users/joseantoniorodriguesromero/anaconda3/share/psi4/basis/cc-pvdz.gbs 
    atoms 2 entry S          line   598 file /Users/joseantoniorodriguesromero/anaconda3/share/psi4/basis/cc-pvdz.gbs 

  Reading orbitals from file /tmp/quintet_LiS.default.74037.180.npy, no projection.

  ==> Integral Setup <==

  DFHelper Memory: AOs need 0.002 GiB; user supplied 0.327 GiB. 
  Using in-core AOs.

  ==> MemDFJK: Density-Fitted J/K Matrices <==

    J tasked:                   Yes
    K tasked:                   Yes
    wK tasked:                   No
    OpenMP threads:               1
    Memory [MiB]:               335
    Algorithm:                 Core
    Schwarz Cutoff:           1E-12
    Mask sparsity (%):       0.0000
    Fitting Condition:        1E-10

   => Auxiliary Basis Set <=

  Basis Set: (CC-PVDZ AUX)
    Blend: CC-PVDZ-JKFIT + DEF2-UNIVERSAL-JKFIT
    Number of shells: 53
    Number of basis functions: 163
    Number of Cartesian functions: 190
    Spherical Harmonics?: true
    Max angular momentum: 3

  Cached 100.0% of DFT collocation blocks in 0.039 [GiB].

  Minimum eigenvalue in the overlap matrix is 3.6233986318E-03.
  Reciprocal condition number of the overlap matrix is 1.2072178374E-03.
    Using symmetric orthogonalization.

  ==> Pre-Iterations <==

  SCF Guess: Orbitals guess was supplied from a previous computation.

   -------------------------------------------------------
    Irrep   Nso     Nmo     Nalpha   Nbeta   Ndocc  Nsocc
   -------------------------------------------------------
     A1        16      16       7       5       5       2
     A2         2       2       0       0       0       0
     B1         7       7       2       1       1       1
     B2         7       7       2       1       1       1
   -------------------------------------------------------
    Total      32      32      11       7       7       4
   -------------------------------------------------------

  ==> Iterations <==

                           Total Energy        Delta E     RMS |[F,P]|

   @DF-UKS iter   0:  -404.97044692221272   -4.04970e+02   1.09762e-02 
   @DF-UKS iter   1:  -404.92294332836275    4.75036e-02   1.90332e-03 DIIS/ADIIS
   @DF-UKS iter   2:  -404.92383119835966   -8.87870e-04   9.50611e-04 DIIS/ADIIS/DAMP=1%
   @DF-UKS iter   3:  -404.92468919882680   -8.58000e-04   1.16233e-04 DIIS/ADIIS/DAMP=1%
   @DF-UKS iter   4:  -404.92409095260950    5.98246e-04   5.07560e-05 DIIS/DAMP=1%
   @DF-UKS iter   5:  -404.92404683774845    4.41149e-05   6.25657e-06 DIIS/DAMP=1%
   @DF-UKS iter   6:  -404.92405008225381   -3.24451e-06   1.10929e-06 DIIS/DAMP=1%
   @DF-UKS iter   7:  -404.92405036454340   -2.82290e-07   6.26566e-08 DIIS/DAMP=1%
   @DF-UKS iter   8:  -404.92405045711848   -9.25751e-08   7.63939e-09 DIIS/DAMP=1%
   @DF-UKS iter   9:  -404.92405042066611    3.64524e-08   9.43669e-10 DIIS/DAMP=1%
   @DF-UKS iter  10:  -404.92405042243939   -1.77329e-09   7.24403e-11 DIIS/DAMP=1%
  Energy and wave function converged.


  ==> Post-Iterations <==

   Electrons on quadrature grid:
      Nalpha   =   11.0000024907 ; deviation = 2.491e-06
      Nbeta    =    7.0000019790 ; deviation = 1.979e-06
      Ntotal   =   18.0000044697 ; deviation = 4.470e-06 

   @Spin Contamination Metric:   4.552393307E-04
   @S^2 Expected:                6.000000000E+00
   @S^2 Observed:                6.000455239E+00
   @S   Expected:                2.000000000E+00
   @S   Observed:                2.000000000E+00

    Orbital Energies [Eh]
    ---------------------

    Alpha Occupied:                                                       

       1A1   -89.428194     2A1    -8.495350     3A1    -6.461879  
       1B1    -6.457300     1B2    -6.457300     4A1    -2.413268  
       5A1    -1.211743     2B2    -0.785138     2B1    -0.785138  
       6A1    -0.777173     7A1    -0.315196  

    Alpha Virtual:                                                        

       3B1    -0.238977     3B2    -0.238977     8A1    -0.182160  
       4B1    -0.124004     4B2    -0.124004     9A1    -0.089266  
       1A2    -0.089265    10A1    -0.060511    11A1    -0.004634  
       5B1     0.031815     5B2     0.031815    12A1     0.044861  
       6B2     0.125791     6B1     0.125791    13A1     0.163840  
      14A1     0.192068     2A2     0.192070    15A1     0.382855  
       7B1     0.402377     7B2     0.402377    16A1     0.902889  

    Beta Occupied:                                                        

       1A1   -89.407770     2A1    -8.474618     3A1    -6.430026  
       1B1    -6.427637     1B2    -6.427637     4A1    -2.395051  
       5A1    -1.060608  

    Beta Virtual:                                                         

       2B2    -0.598989     2B1    -0.598989     6A1    -0.581678  
       7A1    -0.225410     3B1    -0.178722     3B2    -0.178722  
       8A1    -0.153733     4B1    -0.102956     4B2    -0.102956  
       9A1    -0.043077     1A2    -0.023607    10A1    -0.023535  
      11A1     0.042745     5B1     0.099505     5B2     0.099505  
      12A1     0.147324     6B2     0.179374     6B1     0.179374  
      13A1     0.204582     2A2     0.290080    14A1     0.290114  
      15A1     0.443257     7B1     0.473227     7B2     0.473227  
      16A1     0.931180  

    Final Occupation by Irrep:
             A1    A2    B1    B2 
    DOCC [     5,    0,    1,    1 ]
    SOCC [     2,    0,    1,    1 ]
    NA   [     7,    0,    2,    2 ]
    NB   [     5,    0,    1,    1 ]

  @DF-UKS Final Energy:  -404.92405042243939

   => Energetics <=

    Nuclear Repulsion Energy =             17.3768108454975660
    One-Electron Energy =                -584.7357614514301076
    Two-Electron Energy =                 184.4251333048059109
    DFT Exchange-Correlation Energy =     -21.9902331213127162
    Empirical Dispersion Energy =           0.0000000000000000
    VV10 Nonlocal Energy =                  0.0000000000000000
    Total Energy =                       -404.9240504224393931

  UHF NO Occupations:
  HONO-2 :    7 A1 1.0000000
  HONO-1 :    2 B2 1.0000000
  HONO-0 :    2 B1 1.0000000
  LUNO+0 :    8 A1 0.0002208
  LUNO+1 :    9 A1 0.0000068
  LUNO+2 :    3 B2 0.0000000
  LUNO+3 :    3 B1 0.0000000


Computation Completed


Properties will be evaluated at   0.000000,   0.000000,   0.000000 [a0]

Properties computed using the SCF density matrix


 Multipole Moments:

 ------------------------------------------------------------------------------------
     Multipole            Electronic (a.u.)      Nuclear  (a.u.)        Total (a.u.)
 ------------------------------------------------------------------------------------

 L = 1.  Multiply by 2.5417464519 to convert [e a0] to [Debye]
 Dipole X            :          0.0000000            0.0000000            0.0000000
 Dipole Y            :          0.0000000            0.0000000            0.0000000
 Dipole Z            :         -0.0879922           -1.1576765           -1.2456687
 Magnitude           :                                                    1.2456687

 ------------------------------------------------------------------------------------

*** tstop() called on Joses-MacBook-Pro-2.local at Thu Jul 17 12:57:00 2025
Module time:
	user time   =       3.74 seconds =       0.06 minutes
	system time =       3.91 seconds =       0.07 minutes
	total time  =          1 seconds =       0.02 minutes
Total time:
	user time   =      15.34 seconds =       0.26 minutes
	system time =      14.91 seconds =       0.25 minutes
	total time  =          3 seconds =       0.05 minutes

*** tstart() called on Joses-MacBook-Pro-2.local
*** at Thu Jul 17 12:57:00 2025


         ------------------------------------------------------------
                                   SCF GRAD                          
                          Rob Parrish, Justin Turney,                
                       Andy Simmonett, and Alex Sokolov              
         ------------------------------------------------------------

  ==> Geometry <==

    Molecular point group: c2v
    Full point group: C_inf_v

    Geometry (in Angstrom), charge = 1, multiplicity = 5:

       Center              X                  Y                   Z               Mass       
    ------------   -----------------  -----------------  -----------------  -----------------
         LI           0.000000000000     0.000000000000     1.198702135692     7.016003436600
         S            0.000000000000     0.000000000000    -0.263045151426    31.972071174400

  Nuclear repulsion =   17.376810845497566

  ==> Basis Set <==

  Basis Set: CC-PVDZ
    Blend: CC-PVDZ
    Number of shells: 14
    Number of basis functions: 32
    Number of Cartesian functions: 34
    Spherical Harmonics?: true
    Max angular momentum: 2

  ==> DFJKGrad: Density-Fitted SCF Gradients <==

    Gradient:                    1
    J tasked:                  Yes
    K tasked:                  Yes
    wK tasked:                  No
    OpenMP threads:              1
    Integrals threads:           1
    Memory [MiB]:              375
    Schwarz Cutoff:          1E-12
    Fitting Condition:       1E-10

   => Auxiliary Basis Set <=

  Basis Set: (CC-PVDZ AUX)
    Blend: CC-PVDZ-JKFIT + DEF2-UNIVERSAL-JKFIT
    Number of shells: 53
    Number of basis functions: 163
    Number of Cartesian functions: 190
    Spherical Harmonics?: true
    Max angular momentum: 3

  ==> DFT Potential <==

   => LibXC <=

    Version 6.2.2
    S. Lehtola, C. Steigemann, M. J.T. Oliveira, and M. A.L. Marques.,  SoftwareX 7, 1–5 (2018) (10.1016/j.softx.2017.11.002)

   => Composite Functional: B3LYP <= 

    B3LYP Hyb-GGA Exchange-Correlation Functional

    P. J. Stephens, F. J. Devlin, C. F. Chabalowski, and M. J. Frisch.,  J. Phys. Chem. 98, 11623 (1994) (10.1021/j100096a001)

    Deriv               =              1
    GGA                 =           TRUE
    Meta                =          FALSE

    Exchange Hybrid     =           TRUE
    MP2 Hybrid          =          FALSE

   => Exchange Functionals <=

    0.0800   Slater exchange
    0.7200         Becke 88

   => Exact (HF) Exchange <=

    0.2000               HF 

   => Correlation Functionals <=

    0.1900   Vosko, Wilk & Nusair (VWN5_RPA)
    0.8100   Lee, Yang & Parr

   => LibXC Density Thresholds  <==

    XC_HYB_GGA_XC_B3LYP:  1.00E-15 

   => Molecular Quadrature <=

    Radial Scheme          =       TREUTLER
    Pruning Scheme         =           NONE
    Nuclear Scheme         =       TREUTLER

    Blocking Scheme        =         OCTREE
    BS radius alpha        =              1
    Pruning alpha          =              1
    Radial Points          =             75
    Spherical Points       =            302
    Total Points           =          44325
    Total Blocks           =            437
    Max Points             =            255
    Max Functions          =             32
    Weights Tolerance      =       1.00E-15


  -Total Gradient:
     Atom            X                  Y                   Z
    ------   -----------------  -----------------  -----------------
       1        0.000000000000     0.000000000000    -0.395199154369
       2        0.000000000000     0.000000000000     0.395118904415


*** tstop() called on Joses-MacBook-Pro-2.local at Thu Jul 17 12:57:00 2025
Module time:
	user time   =       0.92 seconds =       0.02 minutes
	system time =       1.59 seconds =       0.03 minutes
	total time  =          0 seconds =       0.00 minutes
Total time:
	user time   =      16.26 seconds =       0.27 minutes
	system time =      16.50 seconds =       0.28 minutes
	total time  =          3 seconds =       0.05 minutes

    			-----------------------------------------

    			 OPTKING 3.0: for geometry optimizations 

    			     By R.A. King, Bethel University     

    			        with contributions from          

    			    A.V. Copan, J. Cayton, A. Heide      

    			-----------------------------------------

    
	                            ===> Fragment 1 <== 

	 Z (Atomic Numbers)          Masses                          Geom                  
	       3.000000             7.016003          0.00000000  0.00000000  2.26521874   
	      16.000000            31.972071          0.00000000  0.00000000 -0.49708329   

	 - Coordinate -           - BOHR/RAD -       - ANG/DEG -
	 R(1,2)           =         2.762302           1.461747


	        --- Internal Coordinate Step in ANG or DEG, aJ/ANG or AJ/DEG ---
	-------------------------------------------------------------------------------
	           Coordinate      Previous         Force          Change          New 
	           ----------      --------        ------          ------        ------
	               R(1,2)       1.46175        3.25561        0.17420       1.63595
	-------------------------------------------------------------------------------

	                                 ==> Convergence Check <==                                  
    
	Measures of convergence in internal coordinates in au.
    
	Criteria marked as inactive (o), active & met (*), and active & unmet ( ).

	----------------------------------------------------------------------------------------------
	   Step    Total Energy     Delta E     Max Force     RMS Force      Max Disp      RMS Disp   
	----------------------------------------------------------------------------------------------
	  Convergence Criteria     1.00e-06 *    3.00e-04 *             o    1.20e-03 *             o
	----------------------------------------------------------------------------------------------
	     3    -404.92405042   -1.44e-01      3.95e-01      3.95e-01 o    3.29e-01      3.29e-01 o  ~
	----------------------------------------------------------------------------------------------

Next Geometry in Ang 
	Fragment 1 (Ang)

	   Li   0.0000000000   0.0000000000   1.2858029529
	    S   0.0000000000   0.0000000000  -0.3501459687


    Structure for next step:
    Molecular point group: c2v
    Full point group: C_inf_v

    Geometry (in Angstrom), charge = 1, multiplicity = 5:

    LI           0.000000000000     0.000000000000     1.341555741868
    S            0.000000000000     0.000000000000    -0.294393179722


Scratch directory: /tmp/
gradient() will perform analytic gradient computation.
   => Libint2 <=

    Primary   basis highest AM E, G, H:  6, 6, 3
    Auxiliary basis highest AM E, G, H:  7, 7, 4
    Onebody   basis highest AM E, G, H:  -, -, -
    Solid Harmonics ordering:            Gaussian

*** tstart() called on Joses-MacBook-Pro-2.local
*** at Thu Jul 17 12:57:00 2025

   => Loading Basis Set <=

    Name: CC-PVDZ
    Role: ORBITAL
    Keyword: BASIS
    atoms 1 entry LI         line    42 file /Users/joseantoniorodriguesromero/anaconda3/share/psi4/basis/cc-pvdz.gbs 
    atoms 2 entry S          line   598 file /Users/joseantoniorodriguesromero/anaconda3/share/psi4/basis/cc-pvdz.gbs 


         ---------------------------------------------------------
                                   SCF
               by Justin Turney, Rob Parrish, Andy Simmonett
                          and Daniel G. A. Smith
                              UKS Reference
                        1 Threads,    500 MiB Core
         ---------------------------------------------------------

  ==> Geometry <==

    Molecular point group: c2v
    Full point group: C_inf_v

    Geometry (in Angstrom), charge = 1, multiplicity = 5:

       Center              X                  Y                   Z               Mass       
    ------------   -----------------  -----------------  -----------------  -----------------
         LI           0.000000000000     0.000000000000     1.341555741868     7.016003436600
         S            0.000000000000     0.000000000000    -0.294393179722    31.972071174400

  Running in c2v symmetry.

  Rotational constants: A = ************  B =      1.09478  C =      1.09478 [cm^-1]
  Rotational constants: A = ************  B =  32820.78348  C =  32820.78348 [MHz]
  Nuclear repulsion =   15.526466491063589

  Charge       = 1
  Multiplicity = 5
  Electrons    = 18
  Nalpha       = 11
  Nbeta        = 7

  ==> Algorithm <==

  SCF Algorithm Type is DF.
  DIIS enabled.
  MOM disabled.
  Fractional occupation disabled.
  Guess Type is READ.
  Energy threshold   = 1.00e-08
  Density threshold  = 1.00e-08
  Integral threshold = 1.00e-12

  ==> Primary Basis <==

  Basis Set: CC-PVDZ
    Blend: CC-PVDZ
    Number of shells: 14
    Number of basis functions: 32
    Number of Cartesian functions: 34
    Spherical Harmonics?: true
    Max angular momentum: 2

  ==> DFT Potential <==

   => LibXC <=

    Version 6.2.2
    S. Lehtola, C. Steigemann, M. J.T. Oliveira, and M. A.L. Marques.,  SoftwareX 7, 1–5 (2018) (10.1016/j.softx.2017.11.002)

   => Composite Functional: B3LYP <= 

    B3LYP Hyb-GGA Exchange-Correlation Functional

    P. J. Stephens, F. J. Devlin, C. F. Chabalowski, and M. J. Frisch.,  J. Phys. Chem. 98, 11623 (1994) (10.1021/j100096a001)

    Deriv               =              1
    GGA                 =           TRUE
    Meta                =          FALSE

    Exchange Hybrid     =           TRUE
    MP2 Hybrid          =          FALSE

   => Exchange Functionals <=

    0.0800   Slater exchange
    0.7200         Becke 88

   => Exact (HF) Exchange <=

    0.2000               HF 

   => Correlation Functionals <=

    0.1900   Vosko, Wilk & Nusair (VWN5_RPA)
    0.8100   Lee, Yang & Parr

   => LibXC Density Thresholds  <==

    XC_HYB_GGA_XC_B3LYP:  1.00E-15 

   => Molecular Quadrature <=

    Radial Scheme          =       TREUTLER
    Pruning Scheme         =           NONE
    Nuclear Scheme         =       TREUTLER

    Blocking Scheme        =         OCTREE
    BS radius alpha        =              1
    Pruning alpha          =              1
    Radial Points          =             75
    Spherical Points       =            302
    Total Points           =          44323
    Total Blocks           =            434
    Max Points             =            255
    Max Functions          =             32
    Weights Tolerance      =       1.00E-15

   => Loading Basis Set <=

    Name: (CC-PVDZ AUX)
    Role: JKFIT
    Keyword: DF_BASIS_SCF
    atoms 1 entry LI         line    54 file /Users/joseantoniorodriguesromero/anaconda3/share/psi4/basis/def2-universal-jkfit.gbs 
    atoms 2 entry S          line   593 file /Users/joseantoniorodriguesromero/anaconda3/share/psi4/basis/cc-pvdz-jkfit.gbs 

   => Loading Basis Set <=

    Name: CC-PVDZ
    Role: ORBITAL
    Keyword: BASIS
    atoms 1 entry LI         line    42 file /Users/joseantoniorodriguesromero/anaconda3/share/psi4/basis/cc-pvdz.gbs 
    atoms 2 entry S          line   598 file /Users/joseantoniorodriguesromero/anaconda3/share/psi4/basis/cc-pvdz.gbs 

  Reading orbitals from file /tmp/quintet_LiS.default.74037.180.npy, no projection.

  ==> Integral Setup <==

  DFHelper Memory: AOs need 0.002 GiB; user supplied 0.328 GiB. 
  Using in-core AOs.

  ==> MemDFJK: Density-Fitted J/K Matrices <==

    J tasked:                   Yes
    K tasked:                   Yes
    wK tasked:                   No
    OpenMP threads:               1
    Memory [MiB]:               335
    Algorithm:                 Core
    Schwarz Cutoff:           1E-12
    Mask sparsity (%):       0.0000
    Fitting Condition:        1E-10

   => Auxiliary Basis Set <=

  Basis Set: (CC-PVDZ AUX)
    Blend: CC-PVDZ-JKFIT + DEF2-UNIVERSAL-JKFIT
    Number of shells: 53
    Number of basis functions: 163
    Number of Cartesian functions: 190
    Spherical Harmonics?: true
    Max angular momentum: 3

  Cached 100.0% of DFT collocation blocks in 0.039 [GiB].

  Minimum eigenvalue in the overlap matrix is 3.3177934102E-03.
  Reciprocal condition number of the overlap matrix is 1.1072308167E-03.
    Using symmetric orthogonalization.

  ==> Pre-Iterations <==

  SCF Guess: Orbitals guess was supplied from a previous computation.

   -------------------------------------------------------
    Irrep   Nso     Nmo     Nalpha   Nbeta   Ndocc  Nsocc
   -------------------------------------------------------
     A1        16      16       7       5       5       2
     A2         2       2       0       0       0       0
     B1         7       7       2       1       1       1
     B2         7       7       2       1       1       1
   -------------------------------------------------------
    Total      32      32      11       7       7       4
   -------------------------------------------------------

  ==> Iterations <==

                           Total Energy        Delta E     RMS |[F,P]|

   @DF-UKS iter   0:  -405.05868947202828   -4.05059e+02   9.82152e-03 
   @DF-UKS iter   1:  -405.02307809567520    3.56114e-02   1.64828e-03 DIIS/ADIIS
   @DF-UKS iter   2:  -405.02366097506240   -5.82879e-04   9.18179e-04 DIIS/ADIIS/DAMP=1%
   @DF-UKS iter   3:  -405.02432923604482   -6.68261e-04   1.01962e-04 DIIS/ADIIS/DAMP=1%
   @DF-UKS iter   4:  -405.02393200955515    3.97226e-04   3.26289e-05 DIIS/DAMP=1%
   @DF-UKS iter   5:  -405.02387539450160    5.66151e-05   4.55184e-06 DIIS/DAMP=1%
   @DF-UKS iter   6:  -405.02387971371866   -4.31922e-06   7.86281e-07 DIIS/DAMP=1%
   @DF-UKS iter   7:  -405.02387994077770   -2.27059e-07   4.76755e-08 DIIS/DAMP=1%
   @DF-UKS iter   8:  -405.02388000112256   -6.03449e-08   5.96017e-09 DIIS/DAMP=1%
   @DF-UKS iter   9:  -405.02387997363496    2.74876e-08   6.43977e-10 DIIS/DAMP=1%
   @DF-UKS iter  10:  -405.02387997527836   -1.64340e-09   4.35966e-11 DIIS/DAMP=1%
  Energy and wave function converged.


  ==> Post-Iterations <==

   Electrons on quadrature grid:
      Nalpha   =   10.9999995975 ; deviation = -4.025e-07
      Nbeta    =    7.0000011921 ; deviation = 1.192e-06
      Ntotal   =   18.0000007896 ; deviation = 7.896e-07 

   @Spin Contamination Metric:   4.516010371E-04
   @S^2 Expected:                6.000000000E+00
   @S^2 Observed:                6.000451601E+00
   @S   Expected:                2.000000000E+00
   @S   Observed:                2.000000000E+00

    Orbital Energies [Eh]
    ---------------------

    Alpha Occupied:                                                       

       1A1   -89.428746     2A1    -8.490318     3A1    -6.455856  
       1B1    -6.453397     1B2    -6.453397     4A1    -2.352185  
       5A1    -1.210062     6A1    -0.787194     2B2    -0.773808  
       2B1    -0.773808     7A1    -0.304720  

    Alpha Virtual:                                                        

       3B2    -0.237706     3B1    -0.237706     8A1    -0.181630  
       4B2    -0.118020     4B1    -0.118020     9A1    -0.068756  
       1A2    -0.068756    10A1    -0.054681    11A1    -0.010970  
       5B1     0.020806     5B2     0.020806    12A1     0.040952  
       6B2     0.128867     6B1     0.128867    13A1     0.155830  
       2A2     0.177241    14A1     0.177242    15A1     0.337532  
       7B2     0.383393     7B1     0.383393    16A1     0.932831  

    Beta Occupied:                                                        

       1A1   -89.408695     2A1    -8.469921     3A1    -6.425113  
       1B1    -6.423979     1B2    -6.423979     4A1    -2.339586  
       5A1    -1.059838  

    Beta Virtual:                                                         

       6A1    -0.595161     2B2    -0.588291     2B1    -0.588291  
       7A1    -0.220296     3B2    -0.181015     3B1    -0.181015  
       8A1    -0.151548     4B1    -0.096395     4B2    -0.096395  
       9A1    -0.037133    10A1    -0.004548     1A2    -0.004485  
      11A1     0.032643     5B1     0.085132     5B2     0.085132  
      12A1     0.148628     6B2     0.183023     6B1     0.183023  
      13A1     0.197318    14A1     0.277892     2A2     0.277919  
      15A1     0.394690     7B2     0.457397     7B1     0.457397  
      16A1     0.961844  

    Final Occupation by Irrep:
             A1    A2    B1    B2 
    DOCC [     5,    0,    1,    1 ]
    SOCC [     2,    0,    1,    1 ]
    NA   [     7,    0,    2,    2 ]
    NB   [     5,    0,    1,    1 ]

  @DF-UKS Final Energy:  -405.02387997527836

   => Energetics <=

    Nuclear Repulsion Energy =             15.5264664910635890
    One-Electron Energy =                -581.4343707089046802
    Two-Electron Energy =                 182.8404622873931942
    DFT Exchange-Correlation Energy =     -21.9564380448305272
    Empirical Dispersion Energy =           0.0000000000000000
    VV10 Nonlocal Energy =                  0.0000000000000000
    Total Energy =                       -405.0238799752784189

  UHF NO Occupations:
  HONO-2 :    6 A1 1.0000000
  HONO-1 :    7 A1 1.0000000
  HONO-0 :    2 B1 1.0000000
  LUNO+0 :    8 A1 0.0002217
  LUNO+1 :    9 A1 0.0000041
  LUNO+2 :    3 B1 0.0000000
  LUNO+3 :    3 B2 0.0000000


Computation Completed


Properties will be evaluated at   0.000000,   0.000000,   0.000000 [a0]

Properties computed using the SCF density matrix


 Multipole Moments:

 ------------------------------------------------------------------------------------
     Multipole            Electronic (a.u.)      Nuclear  (a.u.)        Total (a.u.)
 ------------------------------------------------------------------------------------

 L = 1.  Multiply by 2.5417464519 to convert [e a0] to [Debye]
 Dipole X            :          0.0000000            0.0000000            0.0000000
 Dipole Y            :          0.0000000            0.0000000            0.0000000
 Dipole Z            :          0.0975385           -1.2956409           -1.1981024
 Magnitude           :                                                    1.1981024

 ------------------------------------------------------------------------------------

*** tstop() called on Joses-MacBook-Pro-2.local at Thu Jul 17 12:57:01 2025
Module time:
	user time   =       3.71 seconds =       0.06 minutes
	system time =       3.82 seconds =       0.06 minutes
	total time  =          1 seconds =       0.02 minutes
Total time:
	user time   =      20.01 seconds =       0.33 minutes
	system time =      20.54 seconds =       0.34 minutes
	total time  =          4 seconds =       0.07 minutes

*** tstart() called on Joses-MacBook-Pro-2.local
*** at Thu Jul 17 12:57:01 2025


         ------------------------------------------------------------
                                   SCF GRAD                          
                          Rob Parrish, Justin Turney,                
                       Andy Simmonett, and Alex Sokolov              
         ------------------------------------------------------------

  ==> Geometry <==

    Molecular point group: c2v
    Full point group: C_inf_v

    Geometry (in Angstrom), charge = 1, multiplicity = 5:

       Center              X                  Y                   Z               Mass       
    ------------   -----------------  -----------------  -----------------  -----------------
         LI           0.000000000000     0.000000000000     1.341555741868     7.016003436600
         S            0.000000000000     0.000000000000    -0.294393179722    31.972071174400

  Nuclear repulsion =   15.526466491063589

  ==> Basis Set <==

  Basis Set: CC-PVDZ
    Blend: CC-PVDZ
    Number of shells: 14
    Number of basis functions: 32
    Number of Cartesian functions: 34
    Spherical Harmonics?: true
    Max angular momentum: 2

  ==> DFJKGrad: Density-Fitted SCF Gradients <==

    Gradient:                    1
    J tasked:                  Yes
    K tasked:                  Yes
    wK tasked:                  No
    OpenMP threads:              1
    Integrals threads:           1
    Memory [MiB]:              375
    Schwarz Cutoff:          1E-12
    Fitting Condition:       1E-10

   => Auxiliary Basis Set <=

  Basis Set: (CC-PVDZ AUX)
    Blend: CC-PVDZ-JKFIT + DEF2-UNIVERSAL-JKFIT
    Number of shells: 53
    Number of basis functions: 163
    Number of Cartesian functions: 190
    Spherical Harmonics?: true
    Max angular momentum: 3

  ==> DFT Potential <==

   => LibXC <=

    Version 6.2.2
    S. Lehtola, C. Steigemann, M. J.T. Oliveira, and M. A.L. Marques.,  SoftwareX 7, 1–5 (2018) (10.1016/j.softx.2017.11.002)

   => Composite Functional: B3LYP <= 

    B3LYP Hyb-GGA Exchange-Correlation Functional

    P. J. Stephens, F. J. Devlin, C. F. Chabalowski, and M. J. Frisch.,  J. Phys. Chem. 98, 11623 (1994) (10.1021/j100096a001)

    Deriv               =              1
    GGA                 =           TRUE
    Meta                =          FALSE

    Exchange Hybrid     =           TRUE
    MP2 Hybrid          =          FALSE

   => Exchange Functionals <=

    0.0800   Slater exchange
    0.7200         Becke 88

   => Exact (HF) Exchange <=

    0.2000               HF 

   => Correlation Functionals <=

    0.1900   Vosko, Wilk & Nusair (VWN5_RPA)
    0.8100   Lee, Yang & Parr

   => LibXC Density Thresholds  <==

    XC_HYB_GGA_XC_B3LYP:  1.00E-15 

   => Molecular Quadrature <=

    Radial Scheme          =       TREUTLER
    Pruning Scheme         =           NONE
    Nuclear Scheme         =       TREUTLER

    Blocking Scheme        =         OCTREE
    BS radius alpha        =              1
    Pruning alpha          =              1
    Radial Points          =             75
    Spherical Points       =            302
    Total Points           =          44323
    Total Blocks           =            434
    Max Points             =            255
    Max Functions          =             32
    Weights Tolerance      =       1.00E-15


  -Total Gradient:
     Atom            X                  Y                   Z
    ------   -----------------  -----------------  -----------------
       1        0.000000000000     0.000000000000    -0.228450342979
       2       -0.000000000000     0.000000000000     0.228386805123


*** tstop() called on Joses-MacBook-Pro-2.local at Thu Jul 17 12:57:01 2025
Module time:
	user time   =       0.83 seconds =       0.01 minutes
	system time =       2.01 seconds =       0.03 minutes
	total time  =          0 seconds =       0.00 minutes
Total time:
	user time   =      20.84 seconds =       0.35 minutes
	system time =      22.55 seconds =       0.38 minutes
	total time  =          4 seconds =       0.07 minutes

    			-----------------------------------------

    			 OPTKING 3.0: for geometry optimizations 

    			     By R.A. King, Bethel University     

    			        with contributions from          

    			    A.V. Copan, J. Cayton, A. Heide      

    			-----------------------------------------

    
	                            ===> Fragment 1 <== 

	 Z (Atomic Numbers)          Masses                          Geom                  
	       3.000000             7.016003          0.00000000  0.00000000  2.53517293   
	      16.000000            31.972071          0.00000000  0.00000000 -0.55632248   

	 - Coordinate -           - BOHR/RAD -       - ANG/DEG -
	 R(1,2)           =         3.091495           1.635949


	        --- Internal Coordinate Step in ANG or DEG, aJ/ANG or AJ/DEG ---
	-------------------------------------------------------------------------------
	           Coordinate      Previous         Force          Change          New 
	           ----------      --------        ------          ------        ------
	               R(1,2)       1.63595        1.88188        0.20339       1.83934
	-------------------------------------------------------------------------------

	                                 ==> Convergence Check <==                                  
    
	Measures of convergence in internal coordinates in au.
    
	Criteria marked as inactive (o), active & met (*), and active & unmet ( ).

	----------------------------------------------------------------------------------------------
	   Step    Total Energy     Delta E     Max Force     RMS Force      Max Disp      RMS Disp   
	----------------------------------------------------------------------------------------------
	  Convergence Criteria     1.00e-06 *    3.00e-04 *             o    1.20e-03 *             o
	----------------------------------------------------------------------------------------------
	     4    -405.02387998   -9.98e-02      2.28e-01      2.28e-01 o    3.84e-01      3.84e-01 o  ~
	----------------------------------------------------------------------------------------------

Next Geometry in Ang 
	Fragment 1 (Ang)

	   Li   0.0000000000   0.0000000000   1.4432494036
	    S   0.0000000000   0.0000000000  -0.3960868415


    Structure for next step:
    Molecular point group: c2v
    Full point group: C_inf_v

    Geometry (in Angstrom), charge = 1, multiplicity = 5:

    LI           0.000000000000     0.000000000000     1.508342997961
    S            0.000000000000     0.000000000000    -0.330993247186


Scratch directory: /tmp/
gradient() will perform analytic gradient computation.
   => Libint2 <=

    Primary   basis highest AM E, G, H:  6, 6, 3
    Auxiliary basis highest AM E, G, H:  7, 7, 4
    Onebody   basis highest AM E, G, H:  -, -, -
    Solid Harmonics ordering:            Gaussian

*** tstart() called on Joses-MacBook-Pro-2.local
*** at Thu Jul 17 12:57:01 2025

   => Loading Basis Set <=

    Name: CC-PVDZ
    Role: ORBITAL
    Keyword: BASIS
    atoms 1 entry LI         line    42 file /Users/joseantoniorodriguesromero/anaconda3/share/psi4/basis/cc-pvdz.gbs 
    atoms 2 entry S          line   598 file /Users/joseantoniorodriguesromero/anaconda3/share/psi4/basis/cc-pvdz.gbs 


         ---------------------------------------------------------
                                   SCF
               by Justin Turney, Rob Parrish, Andy Simmonett
                          and Daniel G. A. Smith
                              UKS Reference
                        1 Threads,    500 MiB Core
         ---------------------------------------------------------

  ==> Geometry <==

    Molecular point group: c2v
    Full point group: C_inf_v

    Geometry (in Angstrom), charge = 1, multiplicity = 5:

       Center              X                  Y                   Z               Mass       
    ------------   -----------------  -----------------  -----------------  -----------------
         LI           0.000000000000     0.000000000000     1.508342997961     7.016003436600
         S            0.000000000000     0.000000000000    -0.330993247186    31.972071174400

  Running in c2v symmetry.

  Rotational constants: A = ************  B =      0.86605  C =      0.86605 [cm^-1]
  Rotational constants: A = ************  B =  25963.67509  C =  25963.67509 [MHz]
  Nuclear repulsion =   13.809604513144054

  Charge       = 1
  Multiplicity = 5
  Electrons    = 18
  Nalpha       = 11
  Nbeta        = 7

  ==> Algorithm <==

  SCF Algorithm Type is DF.
  DIIS enabled.
  MOM disabled.
  Fractional occupation disabled.
  Guess Type is READ.
  Energy threshold   = 1.00e-08
  Density threshold  = 1.00e-08
  Integral threshold = 1.00e-12

  ==> Primary Basis <==

  Basis Set: CC-PVDZ
    Blend: CC-PVDZ
    Number of shells: 14
    Number of basis functions: 32
    Number of Cartesian functions: 34
    Spherical Harmonics?: true
    Max angular momentum: 2

  ==> DFT Potential <==

   => LibXC <=

    Version 6.2.2
    S. Lehtola, C. Steigemann, M. J.T. Oliveira, and M. A.L. Marques.,  SoftwareX 7, 1–5 (2018) (10.1016/j.softx.2017.11.002)

   => Composite Functional: B3LYP <= 

    B3LYP Hyb-GGA Exchange-Correlation Functional

[...]

	                                 ==> Convergence Check <==                                  
    
	Measures of convergence in internal coordinates in au.
    
	Criteria marked as inactive (o), active & met (*), and active & unmet ( ).

	----------------------------------------------------------------------------------------------
	   Step    Total Energy     Delta E     Max Force     RMS Force      Max Disp      RMS Disp   
	----------------------------------------------------------------------------------------------
	  Convergence Criteria     1.00e-06 *    3.00e-04 *             o    1.20e-03 *             o
	----------------------------------------------------------------------------------------------
	    19    -405.24141708   -6.92e-06      2.73e-05 *    2.73e-05 o    6.93e-03      6.93e-03 o  ~
	----------------------------------------------------------------------------------------------

Next Geometry in Ang 
	Fragment 1 (Ang)

	   Li   0.0000000000   0.0000000000   3.4583651011
	    S   0.0000000000   0.0000000000  -0.7603408472


    Structure for next step:
    Molecular point group: c2v
    Full point group: C_inf_v

    Geometry (in Angstrom), charge = 1, multiplicity = 5:

    LI           0.000000000000     0.000000000000     3.459539056176
    S            0.000000000000     0.000000000000    -0.759166892091


Scratch directory: /tmp/
gradient() will perform analytic gradient computation.
   => Libint2 <=

    Primary   basis highest AM E, G, H:  6, 6, 3
    Auxiliary basis highest AM E, G, H:  7, 7, 4
    Onebody   basis highest AM E, G, H:  -, -, -
    Solid Harmonics ordering:            Gaussian

*** tstart() called on Joses-MacBook-Pro-2.local
*** at Thu Jul 17 12:57:15 2025

   => Loading Basis Set <=

    Name: CC-PVDZ
    Role: ORBITAL
    Keyword: BASIS
    atoms 1 entry LI         line    42 file /Users/joseantoniorodriguesromero/anaconda3/share/psi4/basis/cc-pvdz.gbs 
    atoms 2 entry S          line   598 file /Users/joseantoniorodriguesromero/anaconda3/share/psi4/basis/cc-pvdz.gbs 


         ---------------------------------------------------------
                                   SCF
               by Justin Turney, Rob Parrish, Andy Simmonett
                          and Daniel G. A. Smith
                              UKS Reference
                        1 Threads,    500 MiB Core
         ---------------------------------------------------------

  ==> Geometry <==

    Molecular point group: c2v
    Full point group: C_inf_v

    Geometry (in Angstrom), charge = 1, multiplicity = 5:

       Center              X                  Y                   Z               Mass       
    ------------   -----------------  -----------------  -----------------  -----------------
         LI           0.000000000000     0.000000000000     3.459539056176     7.016003436600
         S            0.000000000000     0.000000000000    -0.759166892091    31.972071174400

  Running in c2v symmetry.

  Rotational constants: A = ************  B =      0.16463  C =      0.16463 [cm^-1]
  Rotational constants: A = ************  B =   4935.48587  C =   4935.48587 [MHz]
  Nuclear repulsion =    6.020923577902709

  Charge       = 1
  Multiplicity = 5
  Electrons    = 18
  Nalpha       = 11
  Nbeta        = 7

  ==> Algorithm <==

  SCF Algorithm Type is DF.
  DIIS enabled.
  MOM disabled.
  Fractional occupation disabled.
  Guess Type is READ.
  Energy threshold   = 1.00e-08
  Density threshold  = 1.00e-08
  Integral threshold = 1.00e-12

  ==> Primary Basis <==

  Basis Set: CC-PVDZ
    Blend: CC-PVDZ
    Number of shells: 14
    Number of basis functions: 32
    Number of Cartesian functions: 34
    Spherical Harmonics?: true
    Max angular momentum: 2

  ==> DFT Potential <==

   => LibXC <=

    Version 6.2.2
    S. Lehtola, C. Steigemann, M. J.T. Oliveira, and M. A.L. Marques.,  SoftwareX 7, 1–5 (2018) (10.1016/j.softx.2017.11.002)

   => Composite Functional: B3LYP <= 

    B3LYP Hyb-GGA Exchange-Correlation Functional

    P. J. Stephens, F. J. Devlin, C. F. Chabalowski, and M. J. Frisch.,  J. Phys. Chem. 98, 11623 (1994) (10.1021/j100096a001)

    Deriv               =              1
    GGA                 =           TRUE
    Meta                =          FALSE

    Exchange Hybrid     =           TRUE
    MP2 Hybrid          =          FALSE

   => Exchange Functionals <=

    0.0800   Slater exchange
    0.7200         Becke 88

   => Exact (HF) Exchange <=

    0.2000               HF 

   => Correlation Functionals <=

    0.1900   Vosko, Wilk & Nusair (VWN5_RPA)
    0.8100   Lee, Yang & Parr

   => LibXC Density Thresholds  <==

    XC_HYB_GGA_XC_B3LYP:  1.00E-15 

   => Molecular Quadrature <=

    Radial Scheme          =       TREUTLER
    Pruning Scheme         =           NONE
    Nuclear Scheme         =       TREUTLER

    Blocking Scheme        =         OCTREE
    BS radius alpha        =              1
    Pruning alpha          =              1
    Radial Points          =             75
    Spherical Points       =            302
    Total Points           =          44402
    Total Blocks           =            456
    Max Points             =            253
    Max Functions          =             32
    Weights Tolerance      =       1.00E-15

   => Loading Basis Set <=

    Name: (CC-PVDZ AUX)
    Role: JKFIT
    Keyword: DF_BASIS_SCF
    atoms 1 entry LI         line    54 file /Users/joseantoniorodriguesromero/anaconda3/share/psi4/basis/def2-universal-jkfit.gbs 
    atoms 2 entry S          line   593 file /Users/joseantoniorodriguesromero/anaconda3/share/psi4/basis/cc-pvdz-jkfit.gbs 

   => Loading Basis Set <=

    Name: CC-PVDZ
    Role: ORBITAL
    Keyword: BASIS
    atoms 1 entry LI         line    42 file /Users/joseantoniorodriguesromero/anaconda3/share/psi4/basis/cc-pvdz.gbs 
    atoms 2 entry S          line   598 file /Users/joseantoniorodriguesromero/anaconda3/share/psi4/basis/cc-pvdz.gbs 

  Reading orbitals from file /tmp/quintet_LiS.default.74037.180.npy, no projection.

  ==> Integral Setup <==

  DFHelper Memory: AOs need 0.002 GiB; user supplied 0.331 GiB. 
  Using in-core AOs.

  ==> MemDFJK: Density-Fitted J/K Matrices <==

    J tasked:                   Yes
    K tasked:                   Yes
    wK tasked:                   No
    OpenMP threads:               1
    Memory [MiB]:               339
    Algorithm:                 Core
    Schwarz Cutoff:           1E-12
    Mask sparsity (%):       0.0000
    Fitting Condition:        1E-10

   => Auxiliary Basis Set <=

  Basis Set: (CC-PVDZ AUX)
    Blend: CC-PVDZ-JKFIT + DEF2-UNIVERSAL-JKFIT
    Number of shells: 53
    Number of basis functions: 163
    Number of Cartesian functions: 190
    Spherical Harmonics?: true
    Max angular momentum: 3

  Cached 100.0% of DFT collocation blocks in 0.035 [GiB].

  Minimum eigenvalue in the overlap matrix is 3.3608320249E-02.
  Reciprocal condition number of the overlap matrix is 1.4424049486E-02.
    Using symmetric orthogonalization.

  ==> Pre-Iterations <==

  SCF Guess: Orbitals guess was supplied from a previous computation.

   -------------------------------------------------------
    Irrep   Nso     Nmo     Nalpha   Nbeta   Ndocc  Nsocc
   -------------------------------------------------------
     A1        16      16       7       5       5       2
     A2         2       2       0       0       0       0
     B1         7       7       2       1       1       1
     B2         7       7       2       1       1       1
   -------------------------------------------------------
    Total      32      32      11       7       7       4
   -------------------------------------------------------

  ==> Iterations <==

                           Total Energy        Delta E     RMS |[F,P]|

   @DF-UKS iter   0:  -405.24143593443625   -4.05241e+02   4.54200e-05 
   @DF-UKS iter   1:  -405.24141711126640    1.88232e-05   1.12507e-06 DIIS
   @DF-UKS iter   2:  -405.24141711197370   -7.07303e-10   4.50412e-07 DIIS/DAMP=1%
   @DF-UKS iter   3:  -405.24141739864405   -2.86670e-07   1.19354e-07 DIIS/DAMP=1%
   @DF-UKS iter   4:  -405.24141714085636    2.57788e-07   3.08504e-08 DIIS/DAMP=1%
   @DF-UKS iter   5:  -405.24141710314149    3.77149e-08   6.22935e-09 DIIS/DAMP=1%
   @DF-UKS iter   6:  -405.24141711580666   -1.26652e-08   9.33951e-10 DIIS/DAMP=1%
   @DF-UKS iter   7:  -405.24141711248103    3.32562e-09   1.62224e-10 DIIS/DAMP=1%
  Energy and wave function converged.


  ==> Post-Iterations <==

   Electrons on quadrature grid:
      Nalpha   =   11.0000021202 ; deviation = 2.120e-06
      Nbeta    =    6.9999985229 ; deviation = -1.477e-06
      Ntotal   =   18.0000006431 ; deviation = 6.431e-07 

   @Spin Contamination Metric:   4.233495682E-04
   @S^2 Expected:                6.000000000E+00
   @S^2 Observed:                6.000423350E+00
   @S   Expected:                2.000000000E+00
   @S   Observed:                2.000000000E+00

    Orbital Energies [Eh]
    ---------------------

    Alpha Occupied:                                                       

       1A1   -89.344335     2A1    -8.396112     1B1    -6.360930  
       1B2    -6.360930     3A1    -6.360874     4A1    -2.164222  
       5A1    -1.100849     2B2    -0.672769     2B1    -0.672769  
       6A1    -0.671778     7A1    -0.264881  

    Alpha Virtual:                                                        

       8A1    -0.148680     3B2    -0.143929     3B1    -0.143929  
       9A1    -0.070234     4B1    -0.033031     4B2    -0.033031  
      10A1    -0.007804    11A1     0.067190     5B2     0.088510  
       5B1     0.088510     1A2     0.105906    12A1     0.105906  
      13A1     0.167549     6B1     0.175814     6B2     0.175814  
      14A1     0.178482     2A2     0.178527    15A1     0.188884  
       7B2     0.191463     7B1     0.191463    16A1     0.310359  

    Beta Occupied:                                                        

       1A1   -89.325437     2A1    -8.376999     1B1    -6.332609  
       1B2    -6.332609     3A1    -6.332324     4A1    -2.157847  
       5A1    -0.953538  

    Beta Virtual:                                                         

       2B1    -0.489195     2B2    -0.489195     6A1    -0.488038  
       7A1    -0.179547     8A1    -0.125586     3B1    -0.110730  
       3B2    -0.110730     9A1    -0.037842     4B1    -0.020811  
       4B2    -0.020811    10A1    -0.000196    11A1     0.107779  
       5B1     0.131177     5B2     0.131177     1A2     0.143273  
      12A1     0.143275    13A1     0.218314     6B1     0.232116  
       6B2     0.232116    14A1     0.295153    15A1     0.297018  
       2A2     0.297071     7B1     0.300817     7B2     0.300817  
      16A1     0.365520  

    Final Occupation by Irrep:
             A1    A2    B1    B2 
    DOCC [     5,    0,    1,    1 ]
    SOCC [     2,    0,    1,    1 ]
    NA   [     7,    0,    2,    2 ]
    NB   [     5,    0,    1,    1 ]

  @DF-UKS Final Energy:  -405.24141711248103

   => Energetics <=

    Nuclear Repulsion Energy =              6.0209235779027086
    One-Electron Energy =                -564.7540300976992285
    Two-Electron Energy =                 175.3854614676115489
    DFT Exchange-Correlation Energy =     -21.8937720602961008
    Empirical Dispersion Energy =           0.0000000000000000
    VV10 Nonlocal Energy =                  0.0000000000000000
    Total Energy =                       -405.2414171124810309

  UHF NO Occupations:
  HONO-2 :    6 A1 1.0000000
  HONO-1 :    7 A1 1.0000000
  HONO-0 :    2 B1 1.0000000
  LUNO+0 :    8 A1 0.0002111
  LUNO+1 :    9 A1 0.0000006
  LUNO+2 :    3 B1 0.0000000
  LUNO+3 :    3 B2 0.0000000


Computation Completed


Properties will be evaluated at   0.000000,   0.000000,   0.000000 [a0]

Properties computed using the SCF density matrix


 Multipole Moments:

 ------------------------------------------------------------------------------------
     Multipole            Electronic (a.u.)      Nuclear  (a.u.)        Total (a.u.)
 ------------------------------------------------------------------------------------

 L = 1.  Multiply by 2.5417464519 to convert [e a0] to [Debye]
 Dipole X            :          0.0000000            0.0000000            0.0000000
 Dipole Y            :          0.0000000            0.0000000            0.0000000
 Dipole Z            :          3.6531680           -3.3411361            0.3120319
 Magnitude           :                                                    0.3120319

 ------------------------------------------------------------------------------------

*** tstop() called on Joses-MacBook-Pro-2.local at Thu Jul 17 12:57:16 2025
Module time:
	user time   =       2.04 seconds =       0.03 minutes
	system time =       3.59 seconds =       0.06 minutes
	total time  =          1 seconds =       0.02 minutes
Total time:
	user time   =      91.94 seconds =       1.53 minutes
	system time =     101.22 seconds =       1.69 minutes
	total time  =         19 seconds =       0.32 minutes

*** tstart() called on Joses-MacBook-Pro-2.local
*** at Thu Jul 17 12:57:16 2025


         ------------------------------------------------------------
                                   SCF GRAD                          
                          Rob Parrish, Justin Turney,                
                       Andy Simmonett, and Alex Sokolov              
         ------------------------------------------------------------

  ==> Geometry <==

    Molecular point group: c2v
    Full point group: C_inf_v

    Geometry (in Angstrom), charge = 1, multiplicity = 5:

       Center              X                  Y                   Z               Mass       
    ------------   -----------------  -----------------  -----------------  -----------------
         LI           0.000000000000     0.000000000000     3.459539056176     7.016003436600
         S            0.000000000000     0.000000000000    -0.759166892091    31.972071174400

  Nuclear repulsion =    6.020923577902709

  ==> Basis Set <==

  Basis Set: CC-PVDZ
    Blend: CC-PVDZ
    Number of shells: 14
    Number of basis functions: 32
    Number of Cartesian functions: 34
    Spherical Harmonics?: true
    Max angular momentum: 2

  ==> DFJKGrad: Density-Fitted SCF Gradients <==

    Gradient:                    1
    J tasked:                  Yes
    K tasked:                  Yes
    wK tasked:                  No
    OpenMP threads:              1
    Integrals threads:           1
    Memory [MiB]:              375
    Schwarz Cutoff:          1E-12
    Fitting Condition:       1E-10

   => Auxiliary Basis Set <=

  Basis Set: (CC-PVDZ AUX)
    Blend: CC-PVDZ-JKFIT + DEF2-UNIVERSAL-JKFIT
    Number of shells: 53
    Number of basis functions: 163
    Number of Cartesian functions: 190
    Spherical Harmonics?: true
    Max angular momentum: 3

  ==> DFT Potential <==

   => LibXC <=

    Version 6.2.2
    S. Lehtola, C. Steigemann, M. J.T. Oliveira, and M. A.L. Marques.,  SoftwareX 7, 1–5 (2018) (10.1016/j.softx.2017.11.002)

   => Composite Functional: B3LYP <= 

    B3LYP Hyb-GGA Exchange-Correlation Functional

    P. J. Stephens, F. J. Devlin, C. F. Chabalowski, and M. J. Frisch.,  J. Phys. Chem. 98, 11623 (1994) (10.1021/j100096a001)

    Deriv               =              1
    GGA                 =           TRUE
    Meta                =          FALSE

    Exchange Hybrid     =           TRUE
    MP2 Hybrid          =          FALSE

   => Exchange Functionals <=

    0.0800   Slater exchange
    0.7200         Becke 88

   => Exact (HF) Exchange <=

    0.2000               HF 

   => Correlation Functionals <=

    0.1900   Vosko, Wilk & Nusair (VWN5_RPA)
    0.8100   Lee, Yang & Parr

   => LibXC Density Thresholds  <==

    XC_HYB_GGA_XC_B3LYP:  1.00E-15 

   => Molecular Quadrature <=

    Radial Scheme          =       TREUTLER
    Pruning Scheme         =           NONE
    Nuclear Scheme         =       TREUTLER

    Blocking Scheme        =         OCTREE
    BS radius alpha        =              1
    Pruning alpha          =              1
    Radial Points          =             75
    Spherical Points       =            302
    Total Points           =          44402
    Total Blocks           =            456
    Max Points             =            253
    Max Functions          =             32
    Weights Tolerance      =       1.00E-15


  -Total Gradient:
     Atom            X                  Y                   Z
    ------   -----------------  -----------------  -----------------
       1        0.000000000000    -0.000000000000     0.000003421759
       2        0.000000000000     0.000000000000     0.000009792373


*** tstop() called on Joses-MacBook-Pro-2.local at Thu Jul 17 12:57:16 2025
Module time:
	user time   =       0.87 seconds =       0.01 minutes
	system time =       1.30 seconds =       0.02 minutes
	total time  =          0 seconds =       0.00 minutes
Total time:
	user time   =      92.81 seconds =       1.55 minutes
	system time =     102.52 seconds =       1.71 minutes
	total time  =         19 seconds =       0.32 minutes

    			-----------------------------------------

    			 OPTKING 3.0: for geometry optimizations 

    			     By R.A. King, Bethel University     

    			        with contributions from          

    			    A.V. Copan, J. Cayton, A. Heide      

    			-----------------------------------------

    
	                            ===> Fragment 1 <== 

	 Z (Atomic Numbers)          Masses                          Geom                  
	       3.000000             7.016003          0.00000000  0.00000000  6.53758134   
	      16.000000            31.972071          0.00000000  0.00000000 -1.43461751   

	 - Coordinate -           - BOHR/RAD -       - ANG/DEG -
	 R(1,2)           =         7.972199           4.218706


	        --- Internal Coordinate Step in ANG or DEG, aJ/ANG or AJ/DEG ---
	-------------------------------------------------------------------------------
	           Coordinate      Previous         Force          Change          New 
	           ----------      --------        ------          ------        ------
	               R(1,2)       4.21871        0.00003        0.00043       4.21913
	-------------------------------------------------------------------------------

	                                 ==> Convergence Check <==                                  
    
	Measures of convergence in internal coordinates in au.
    
	Criteria marked as inactive (o), active & met (*), and active & unmet ( ).

	----------------------------------------------------------------------------------------------
	   Step    Total Energy     Delta E     Max Force     RMS Force      Max Disp      RMS Disp   
	----------------------------------------------------------------------------------------------
	  Convergence Criteria     1.00e-06 *    3.00e-04 *             o    1.20e-03 *             o
	----------------------------------------------------------------------------------------------
	    20    -405.24141711   -3.53e-08 *    3.19e-06 *    3.19e-06 o    8.11e-04 *    8.11e-04 o  ~
	----------------------------------------------------------------------------------------------

Next Geometry in Ang 
	Fragment 1 (Ang)

	   Li   0.0000000000   0.0000000000   3.4597535118
	    S   0.0000000000   0.0000000000  -0.7593813477


    Final optimized geometry and variables:
    Molecular point group: c2v
    Full point group: C_inf_v

    Geometry (in Angstrom), charge = 1, multiplicity = 5:

    LI           0.000000000000     0.000000000000     3.459539056176
    S            0.000000000000     0.000000000000    -0.759166892091


    Psi4 stopped on: Thursday, 17 July 2025 12:57PM
    Psi4 wall time for execution: 0:00:19.70

*** Psi4 exiting successfully. Buy a developer a beer!
