
    -----------------------------------------------------------------------
          Psi4: An Open-Source Ab Initio Electronic Structure Package
                               Psi4 1.9.1 release

                         Git: Rev {} zzzzzzz 


    D. G. A. Smith, L. A. Burns, A. C. Simmonett, R. M. Parrish,
    M. C. Schieber, R. Galvelis, P. Kraus, H. Kruse, R. Di Remigio,
    A. Alenaizan, A. M. James, S. Lehtola, J. P. Misiewicz, M. Scheurer,
    R. A. Shaw, J. B. Schriber, Y. Xie, Z. L. Glick, D. A. Sirianni,
    J. S. O'Brien, J. M. Waldrop, A. Kumar, E. G. Hohenstein,
    B. P. Pritchard, B. R. Brooks, H. F. Schaefer III, A. Yu. Sokolov,
    K. Patkowski, A. E. DePrince III, U. Bozkaya, R. A. King,
    F. A. Evangelista, J. M. Turney, T. D. Crawford, C. D. Sherrill,
    J. Chem. Phys. 152(18) 184108 (2020). https://doi.org/10.1063/5.0006002

                            Additional Code Authors
    E. T. Seidl, C. L. Janssen, E. F. Valeev, M. L. Leininger,
    J. F. Gonthier, R. M. Richard, H. R. McAlexander, M. Saitow, X. Wang,
    P. Verma, M. H. Lechner, A. Jiang, S. Behnle, A. G. Heide,
    M. F. Herbst, and D. L. Poole

             Previous Authors, Complete List of Code Contributors,
                       and Citations for Specific Modules
    https://github.com/psi4/psi4/blob/master/codemeta.json
    https://github.com/psi4/psi4/graphs/contributors
    http://psicode.org/psi4manual/master/introduction.html#citing-psifour

    -----------------------------------------------------------------------


    Psi4 started on: Thursday, 17 July 2025 02:45PM

    Process ID: 74847
    Host:       Joses-MacBook-Pro-2.local
    PSIDATADIR: /Users/joseantoniorodriguesromero/anaconda3/share/psi4
    Memory:     500.0 MiB
    Threads:    1
    
  ==> Input File <==

--------------------------------------------------------------------------
molecule { 
1 6
Na   0.00000        0.60000        0.00000
Na   0.00000       -0.60000        0.00000
}

set { 
basis              cc-pvdz
reference          uks
maxiter            500
geom_maxiter       500
DAMPING_PERCENTAGE 1
guess              SAP
}

optimize('b3lyp')
--------------------------------------------------------------------------

Scratch directory: /tmp/
gradient() will perform analytic gradient computation.
   => Libint2 <=

    Primary   basis highest AM E, G, H:  6, 6, 3
    Auxiliary basis highest AM E, G, H:  7, 7, 4
    Onebody   basis highest AM E, G, H:  -, -, -
    Solid Harmonics ordering:            Gaussian

*** tstart() called on Joses-MacBook-Pro-2.local
*** at Thu Jul 17 14:45:02 2025

   => Loading Basis Set <=

    Name: CC-PVDZ
    Role: ORBITAL
    Keyword: BASIS
    atoms 1-2 entry NA         line   288 file /Users/joseantoniorodriguesromero/anaconda3/share/psi4/basis/cc-pvdz.gbs 


         ---------------------------------------------------------
                                   SCF
               by Justin Turney, Rob Parrish, Andy Simmonett
                          and Daniel G. A. Smith
                              UKS Reference
                        1 Threads,    500 MiB Core
         ---------------------------------------------------------

  ==> Geometry <==

    Molecular point group: d2h
    Full point group: D_inf_h

    Geometry (in Angstrom), charge = 1, multiplicity = 6:

       Center              X                  Y                   Z               Mass       
    ------------   -----------------  -----------------  -----------------  -----------------
         NA          -0.000000000000     0.600000000000     0.000000000000    22.989769282000
         NA           0.000000000000    -0.600000000000     0.000000000000    22.989769282000

  Running in d2h symmetry.

  Rotational constants: A = ************  B =      1.01843  C =      1.01843 [cm^-1]
  Rotational constants: A = ************  B =  30531.63698  C =  30531.63698 [MHz]
  Nuclear repulsion =   53.358702075891671

  Charge       = 1
  Multiplicity = 6
  Electrons    = 21
  Nalpha       = 13
  Nbeta        = 8

  ==> Algorithm <==

  SCF Algorithm Type is DF.
  DIIS enabled.
  MOM disabled.
  Fractional occupation disabled.
  Guess Type is SAP.
  Energy threshold   = 1.00e-08
  Density threshold  = 1.00e-08
  Integral threshold = 1.00e-12

  ==> Primary Basis <==

  Basis Set: CC-PVDZ
    Blend: CC-PVDZ
    Number of shells: 16
    Number of basis functions: 36
    Number of Cartesian functions: 38
    Spherical Harmonics?: true
    Max angular momentum: 2

  ==> DFT Potential <==

   => LibXC <=

    Version 6.2.2
    S. Lehtola, C. Steigemann, M. J.T. Oliveira, and M. A.L. Marques.,  SoftwareX 7, 1–5 (2018) (10.1016/j.softx.2017.11.002)

   => Composite Functional: B3LYP <= 

    B3LYP Hyb-GGA Exchange-Correlation Functional

    P. J. Stephens, F. J. Devlin, C. F. Chabalowski, and M. J. Frisch.,  J. Phys. Chem. 98, 11623 (1994) (10.1021/j100096a001)

    Deriv               =              1
    GGA                 =           TRUE
    Meta                =          FALSE

    Exchange Hybrid     =           TRUE
    MP2 Hybrid          =          FALSE

   => Exchange Functionals <=

    0.0800   Slater exchange
    0.7200         Becke 88

   => Exact (HF) Exchange <=

    0.2000               HF 

   => Correlation Functionals <=

    0.1900   Vosko, Wilk & Nusair (VWN5_RPA)
    0.8100   Lee, Yang & Parr

   => LibXC Density Thresholds  <==

    XC_HYB_GGA_XC_B3LYP:  1.00E-15 

   => Molecular Quadrature <=

    Radial Scheme          =       TREUTLER
    Pruning Scheme         =           NONE
    Nuclear Scheme         =       TREUTLER

    Blocking Scheme        =         OCTREE
    BS radius alpha        =              1
    Pruning alpha          =              1
    Radial Points          =             75
    Spherical Points       =            302
    Total Points           =          42964
    Total Blocks           =            458
    Max Points             =            256
    Max Functions          =             36
    Weights Tolerance      =       1.00E-15

   => Loading Basis Set <=

    Name: (CC-PVDZ AUX)
    Role: JKFIT
    Keyword: DF_BASIS_SCF
    atoms 1-2 entry NA         line   498 file /Users/joseantoniorodriguesromero/anaconda3/share/psi4/basis/def2-universal-jkfit.gbs 

  ==> Integral Setup <==

  DFHelper Memory: AOs need 0.003 GiB; user supplied 0.321 GiB. 
  Using in-core AOs.

  ==> MemDFJK: Density-Fitted J/K Matrices <==

    J tasked:                   Yes
    K tasked:                   Yes
    wK tasked:                   No
    OpenMP threads:               1
    Memory [MiB]:               328
    Algorithm:                 Core
    Schwarz Cutoff:           1E-12
    Mask sparsity (%):       0.0000
    Fitting Condition:        1E-10

   => Auxiliary Basis Set <=

  Basis Set: (CC-PVDZ AUX)
    Blend: DEF2-UNIVERSAL-JKFIT
    Number of shells: 68
    Number of basis functions: 224
    Number of Cartesian functions: 274
    Spherical Harmonics?: true
    Max angular momentum: 4

  Cached 100.0% of DFT collocation blocks in 0.046 [GiB].

  Minimum eigenvalue in the overlap matrix is 1.2585704243E-03.
  Reciprocal condition number of the overlap matrix is 3.4939357863E-04.
    Using symmetric orthogonalization.

  ==> Pre-Iterations <==

  SCF Guess: Superposition of Atomic Potentials (doi:10.1021/acs.jctc.8b01089).

  ==> SAP guess <==

   => Molecular Quadrature <=

    Radial Scheme          =       TREUTLER
    Pruning Scheme         =           NONE
    Nuclear Scheme         =       TREUTLER

    Blocking Scheme        =         OCTREE
    BS radius alpha        =              1
    Pruning alpha          =              1
    Radial Points          =             75
    Spherical Points       =            302
    Total Points           =          42964
    Total Blocks           =            458
    Max Points             =            256
    Max Functions          =             36
    Weights Tolerance      =       1.00E-15

   -------------------------------------------------------
    Irrep   Nso     Nmo     Nalpha   Nbeta   Ndocc  Nsocc
   -------------------------------------------------------
     Ag         9       9       4       3       3       1
     B1g        4       4       1       0       0       1
     B2g        1       1       0       0       0       0
     B3g        4       4       1       1       1       0
     Au         1       1       0       0       0       0
     B1u        4       4       2       1       1       1
     B2u        9       9       3       2       2       1
     B3u        4       4       2       1       1       1
   -------------------------------------------------------
    Total      36      36      13       8       8       5
   -------------------------------------------------------

  ==> Iterations <==

                           Total Energy        Delta E     RMS |[F,P]|

   @DF-UKS iter   1:  -320.83087506992445   -3.20831e+02   3.99356e-02 ADIIS/DIIS
   @DF-UKS iter   2:  -321.01526249916458   -1.84387e-01   3.54326e-03 ADIIS/DIIS/DAMP=1%
   @DF-UKS iter   3:  -321.01725788476233   -1.99539e-03   1.37570e-04 ADIIS/DIIS/DAMP=1%
   @DF-UKS iter   4:  -321.01631501925954    9.42866e-04   6.77884e-06 DIIS/DAMP=1%
   @DF-UKS iter   5:  -321.01630249484333    1.25244e-05   4.27338e-07 DIIS/DAMP=1%
   @DF-UKS iter   6:  -321.01630440955478   -1.91471e-06   1.85875e-08 DIIS/DAMP=1%
   @DF-UKS iter   7:  -321.01630453132327   -1.21768e-07   1.25912e-09 DIIS/DAMP=1%
   @DF-UKS iter   8:  -321.01630453612427   -4.80100e-09   5.48316e-11 DIIS/DAMP=1%
  Energy and wave function converged.


  ==> Post-Iterations <==

   Electrons on quadrature grid:
      Nalpha   =   12.9999988813 ; deviation = -1.119e-06
      Nbeta    =    7.9999993316 ; deviation = -6.684e-07
      Ntotal   =   20.9999982129 ; deviation = -1.787e-06 

   @Spin Contamination Metric:   1.507140743E-04
   @S^2 Expected:                8.750000000E+00
   @S^2 Observed:                8.750150714E+00
   @S   Expected:                2.500000000E+00
   @S   Observed:                2.500000000E+00

    Orbital Energies [Eh]
    ---------------------

    Alpha Occupied:                                                       

       1B2u  -40.178681     1Ag   -40.178598     2Ag    -3.731447  
       2B2u   -3.435035     3Ag    -2.642369     1B3u   -2.522564  
       1B1u   -2.460597     1B1g   -2.421280     1B3g   -2.355719  
       3B2u   -2.309295     4Ag    -0.600528     2B3u   -0.388984  
       2B1u   -0.383228  

    Alpha Virtual:                                                        

       4B2u   -0.345156     5Ag    -0.185602     2B1g   -0.172644  
       2B3g   -0.170058     1B2g   -0.162780     6Ag    -0.162728  
       7Ag    -0.134571     5B2u   -0.092486     3B3u   -0.091518  
       3B1u   -0.090628     8Ag    -0.059426     3B1g   -0.044791  
       3B3g   -0.044193     6B2u   -0.022038     4B3u   -0.000227  
       7B2u    0.000127     4B1u    0.001304     1Au     0.020141  
       8B2u    0.020185     9Ag     0.077924     4B1g    0.127346  
       4B3g    0.129172     9B2u    1.222370  

    Beta Occupied:                                                        

       1Ag   -40.127820     1B2u  -40.127736     2Ag    -3.614886  
       2B2u   -3.301701     3Ag    -2.469134     1B1u   -2.410017  
       1B3u   -2.341144     1B3g   -2.302427  

    Beta Virtual:                                                         

       1B1g   -2.145566     3B2u   -2.010884     4Ag    -0.469301  
       4B2u   -0.304050     2B3u   -0.256353     2B1u   -0.255307  
       5Ag    -0.165865     2B3g   -0.138197     2B1g   -0.135405  
       6Ag    -0.105414     5B2u   -0.087503     1B2g   -0.084275  
       7Ag    -0.083791     3B1u   -0.079844     3B3u   -0.078217  
       8Ag    -0.052834     3B3g   -0.037027     3B1g   -0.035420  
       6B2u   -0.015651     4B1u    0.019408     4B3u    0.022940  
       7B2u    0.025442     1Au     0.061668     8B2u    0.063091  
       9Ag     0.112438     4B3g    0.146423     4B1g    0.150419  
       9B2u    1.278351  

    Final Occupation by Irrep:
             Ag   B1g   B2g   B3g    Au   B1u   B2u   B3u 
    DOCC [     3,    0,    0,    1,    0,    1,    2,    1 ]
    SOCC [     1,    1,    0,    0,    0,    1,    1,    1 ]
    NA   [     4,    1,    0,    1,    0,    2,    3,    2 ]
    NB   [     3,    0,    0,    1,    0,    1,    2,    1 ]

  @DF-UKS Final Energy:  -321.01630453612427

   => Energetics <=

    Nuclear Repulsion Energy =             53.3587020758916708
    One-Electron Energy =                -532.6534729786936850
    Two-Electron Energy =                 180.3470725886958803
    DFT Exchange-Correlation Energy =     -22.0686062220181078
    Empirical Dispersion Energy =           0.0000000000000000
    VV10 Nonlocal Energy =                  0.0000000000000000
    Total Energy =                       -321.0163045361242666

  UHF NO Occupations:
  HONO-2 :    2B1u 1.0000000
  HONO-1 :    3B2u 1.0000000
  HONO-0 :    4 Ag 1.0000000
  LUNO+0 :    4B2u 0.0000403
  LUNO+1 :    5 Ag 0.0000179
  LUNO+2 :    6 Ag 0.0000095
  LUNO+3 :    3B3u 0.0000058


Computation Completed


Properties will be evaluated at   0.000000,   0.000000,   0.000000 [a0]

Properties computed using the SCF density matrix


 Multipole Moments:

 ------------------------------------------------------------------------------------
     Multipole            Electronic (a.u.)      Nuclear  (a.u.)        Total (a.u.)
 ------------------------------------------------------------------------------------

 L = 1.  Multiply by 2.5417464519 to convert [e a0] to [Debye]
 Dipole X            :          0.0000000            0.0000000            0.0000000
 Dipole Y            :          0.0000000            0.0000000            0.0000000
 Dipole Z            :          0.0000000            0.0000000            0.0000000
 Magnitude           :                                                    0.0000000

 ------------------------------------------------------------------------------------

*** tstop() called on Joses-MacBook-Pro-2.local at Thu Jul 17 14:45:03 2025
Module time:
	user time   =       6.81 seconds =       0.11 minutes
	system time =       3.10 seconds =       0.05 minutes
	total time  =          1 seconds =       0.02 minutes
Total time:
	user time   =       6.81 seconds =       0.11 minutes
	system time =       3.10 seconds =       0.05 minutes
	total time  =          1 seconds =       0.02 minutes

*** tstart() called on Joses-MacBook-Pro-2.local
*** at Thu Jul 17 14:45:03 2025


         ------------------------------------------------------------
                                   SCF GRAD                          
                          Rob Parrish, Justin Turney,                
                       Andy Simmonett, and Alex Sokolov              
         ------------------------------------------------------------

  ==> Geometry <==

    Molecular point group: d2h
    Full point group: D_inf_h

    Geometry (in Angstrom), charge = 1, multiplicity = 6:

       Center              X                  Y                   Z               Mass       
    ------------   -----------------  -----------------  -----------------  -----------------
         NA          -0.000000000000     0.600000000000     0.000000000000    22.989769282000
         NA           0.000000000000    -0.600000000000     0.000000000000    22.989769282000

  Nuclear repulsion =   53.358702075891671

  ==> Basis Set <==

  Basis Set: CC-PVDZ
    Blend: CC-PVDZ
    Number of shells: 16
    Number of basis functions: 36
    Number of Cartesian functions: 38
    Spherical Harmonics?: true
    Max angular momentum: 2

  ==> DFJKGrad: Density-Fitted SCF Gradients <==

    Gradient:                    1
    J tasked:                  Yes
    K tasked:                  Yes
    wK tasked:                  No
    OpenMP threads:              1
    Integrals threads:           1
    Memory [MiB]:              375
    Schwarz Cutoff:          1E-12
    Fitting Condition:       1E-10

   => Auxiliary Basis Set <=

  Basis Set: (CC-PVDZ AUX)
    Blend: DEF2-UNIVERSAL-JKFIT
    Number of shells: 68
    Number of basis functions: 224
    Number of Cartesian functions: 274
    Spherical Harmonics?: true
    Max angular momentum: 4

  ==> DFT Potential <==

   => LibXC <=

    Version 6.2.2
    S. Lehtola, C. Steigemann, M. J.T. Oliveira, and M. A.L. Marques.,  SoftwareX 7, 1–5 (2018) (10.1016/j.softx.2017.11.002)

   => Composite Functional: B3LYP <= 

    B3LYP Hyb-GGA Exchange-Correlation Functional

    P. J. Stephens, F. J. Devlin, C. F. Chabalowski, and M. J. Frisch.,  J. Phys. Chem. 98, 11623 (1994) (10.1021/j100096a001)

    Deriv               =              1
    GGA                 =           TRUE
    Meta                =          FALSE

    Exchange Hybrid     =           TRUE
    MP2 Hybrid          =          FALSE

   => Exchange Functionals <=

    0.0800   Slater exchange
    0.7200         Becke 88

   => Exact (HF) Exchange <=

    0.2000               HF 

   => Correlation Functionals <=

    0.1900   Vosko, Wilk & Nusair (VWN5_RPA)
    0.8100   Lee, Yang & Parr

   => LibXC Density Thresholds  <==

    XC_HYB_GGA_XC_B3LYP:  1.00E-15 

   => Molecular Quadrature <=

    Radial Scheme          =       TREUTLER
    Pruning Scheme         =           NONE
    Nuclear Scheme         =       TREUTLER

    Blocking Scheme        =         OCTREE
    BS radius alpha        =              1
    Pruning alpha          =              1
    Radial Points          =             75
    Spherical Points       =            302
    Total Points           =          42964
    Total Blocks           =            458
    Max Points             =            256
    Max Functions          =             36
    Weights Tolerance      =       1.00E-15


  -Total Gradient:
     Atom            X                  Y                   Z
    ------   -----------------  -----------------  -----------------
       1        0.000000000000    -1.028011041974     0.000000000000
       2       -0.000000000000     1.028011041974    -0.000000000000


*** tstop() called on Joses-MacBook-Pro-2.local at Thu Jul 17 14:45:03 2025
Module time:
	user time   =       2.28 seconds =       0.04 minutes
	system time =       2.52 seconds =       0.04 minutes
	total time  =          0 seconds =       0.00 minutes
Total time:
	user time   =       9.09 seconds =       0.15 minutes
	system time =       5.63 seconds =       0.09 minutes
	total time  =          1 seconds =       0.02 minutes

    			-----------------------------------------

    			 OPTKING 3.0: for geometry optimizations 

    			     By R.A. King, Bethel University     

    			        with contributions from          

    			    A.V. Copan, J. Cayton, A. Heide      

    			-----------------------------------------

    
	                            ===> Fragment 1 <== 

	 Z (Atomic Numbers)          Masses                          Geom                  
	      11.000000            22.989769         -0.00000000  1.13383568  0.00000000   
	      11.000000            22.989769          0.00000000 -1.13383568  0.00000000   

	 - Coordinate -           - BOHR/RAD -       - ANG/DEG -
	 R(1,2)           =         2.267671           1.200000


	        --- Internal Coordinate Step in ANG or DEG, aJ/ANG or AJ/DEG ---
	-------------------------------------------------------------------------------
	           Coordinate      Previous         Force          Change          New 
	           ----------      --------        ------          ------        ------
	               R(1,2)       1.20000        8.46950        0.00250       1.20250
	-------------------------------------------------------------------------------

	                                 ==> Convergence Check <==                                  
    
	Measures of convergence in internal coordinates in au.
    
	Criteria marked as inactive (o), active & met (*), and active & unmet ( ).

	----------------------------------------------------------------------------------------------
	   Step    Total Energy     Delta E     Max Force     RMS Force      Max Disp      RMS Disp   
	----------------------------------------------------------------------------------------------
	  Convergence Criteria     1.00e-06 *    3.00e-04 *             o    1.20e-03 *             o
	----------------------------------------------------------------------------------------------
	     1    -321.01630454   -3.21e+02      1.03e+00      1.03e+00 o    4.72e-03      4.72e-03 o  ~
	----------------------------------------------------------------------------------------------

Next Geometry in Ang 
	Fragment 1 (Ang)

	   Na  -0.0000000000   0.6012486980   0.0000000000
	   Na   0.0000000000  -0.6012486980   0.0000000000


    Structure for next step:
    Molecular point group: d2h
    Full point group: D_inf_h

    Geometry (in Angstrom), charge = 1, multiplicity = 6:

    NA          -0.000000000000     0.601248698002     0.000000000000
    NA           0.000000000000    -0.601248698002     0.000000000000


Scratch directory: /tmp/
gradient() will perform analytic gradient computation.
   => Libint2 <=

    Primary   basis highest AM E, G, H:  6, 6, 3
    Auxiliary basis highest AM E, G, H:  7, 7, 4
    Onebody   basis highest AM E, G, H:  -, -, -
    Solid Harmonics ordering:            Gaussian

*** tstart() called on Joses-MacBook-Pro-2.local
*** at Thu Jul 17 14:45:03 2025

   => Loading Basis Set <=

    Name: CC-PVDZ
    Role: ORBITAL
    Keyword: BASIS
    atoms 1-2 entry NA         line   288 file /Users/joseantoniorodriguesromero/anaconda3/share/psi4/basis/cc-pvdz.gbs 


         ---------------------------------------------------------
                                   SCF
               by Justin Turney, Rob Parrish, Andy Simmonett
                          and Daniel G. A. Smith
                              UKS Reference
                        1 Threads,    500 MiB Core
         ---------------------------------------------------------

  ==> Geometry <==

    Molecular point group: d2h
    Full point group: D_inf_h

    Geometry (in Angstrom), charge = 1, multiplicity = 6:

       Center              X                  Y                   Z               Mass       
    ------------   -----------------  -----------------  -----------------  -----------------
         NA          -0.000000000000     0.601248698002     0.000000000000    22.989769282000
         NA           0.000000000000    -0.601248698002     0.000000000000    22.989769282000

  Running in d2h symmetry.

  Rotational constants: A = ************  B =      1.01420  C =      1.01420 [cm^-1]
  Rotational constants: A = ************  B =  30404.94996  C =  30404.94996 [MHz]
  Nuclear repulsion =   53.247884530856460

  Charge       = 1
  Multiplicity = 6
  Electrons    = 21
  Nalpha       = 13
  Nbeta        = 8

  ==> Algorithm <==

  SCF Algorithm Type is DF.
  DIIS enabled.
  MOM disabled.
  Fractional occupation disabled.
  Guess Type is READ.
  Energy threshold   = 1.00e-08
  Density threshold  = 1.00e-08
  Integral threshold = 1.00e-12

  ==> Primary Basis <==

  Basis Set: CC-PVDZ
    Blend: CC-PVDZ
    Number of shells: 16
    Number of basis functions: 36
    Number of Cartesian functions: 38
    Spherical Harmonics?: true
    Max angular momentum: 2

  ==> DFT Potential <==

   => LibXC <=

    Version 6.2.2
    S. Lehtola, C. Steigemann, M. J.T. Oliveira, and M. A.L. Marques.,  SoftwareX 7, 1–5 (2018) (10.1016/j.softx.2017.11.002)

   => Composite Functional: B3LYP <= 

    B3LYP Hyb-GGA Exchange-Correlation Functional

    P. J. Stephens, F. J. Devlin, C. F. Chabalowski, and M. J. Frisch.,  J. Phys. Chem. 98, 11623 (1994) (10.1021/j100096a001)

    Deriv               =              1
    GGA                 =           TRUE
    Meta                =          FALSE

    Exchange Hybrid     =           TRUE
    MP2 Hybrid          =          FALSE

   => Exchange Functionals <=

    0.0800   Slater exchange
    0.7200         Becke 88

   => Exact (HF) Exchange <=

    0.2000               HF 

   => Correlation Functionals <=

    0.1900   Vosko, Wilk & Nusair (VWN5_RPA)
    0.8100   Lee, Yang & Parr

   => LibXC Density Thresholds  <==

    XC_HYB_GGA_XC_B3LYP:  1.00E-15 

   => Molecular Quadrature <=

    Radial Scheme          =       TREUTLER
    Pruning Scheme         =           NONE
    Nuclear Scheme         =       TREUTLER

    Blocking Scheme        =         OCTREE
    BS radius alpha        =              1
    Pruning alpha          =              1
    Radial Points          =             75
    Spherical Points       =            302
    Total Points           =          42956
    Total Blocks           =            462
    Max Points             =            250
    Max Functions          =             36
    Weights Tolerance      =       1.00E-15

   => Loading Basis Set <=

    Name: (CC-PVDZ AUX)
    Role: JKFIT
    Keyword: DF_BASIS_SCF
    atoms 1-2 entry NA         line   498 file /Users/joseantoniorodriguesromero/anaconda3/share/psi4/basis/def2-universal-jkfit.gbs 

   => Loading Basis Set <=

    Name: CC-PVDZ
    Role: ORBITAL
    Keyword: BASIS
    atoms 1-2 entry NA         line   288 file /Users/joseantoniorodriguesromero/anaconda3/share/psi4/basis/cc-pvdz.gbs 

  Reading orbitals from file /tmp/sextet_NaNa.default.74847.180.npy, no projection.

  ==> Integral Setup <==

  DFHelper Memory: AOs need 0.003 GiB; user supplied 0.321 GiB. 
  Using in-core AOs.

  ==> MemDFJK: Density-Fitted J/K Matrices <==

    J tasked:                   Yes
    K tasked:                   Yes
    wK tasked:                   No
    OpenMP threads:               1
    Memory [MiB]:               328
    Algorithm:                 Core
    Schwarz Cutoff:           1E-12
    Mask sparsity (%):       0.0000
    Fitting Condition:        1E-10

   => Auxiliary Basis Set <=

  Basis Set: (CC-PVDZ AUX)
    Blend: DEF2-UNIVERSAL-JKFIT
    Number of shells: 68
    Number of basis functions: 224
    Number of Cartesian functions: 274
    Spherical Harmonics?: true
    Max angular momentum: 4

  Cached 100.0% of DFT collocation blocks in 0.046 [GiB].

  Minimum eigenvalue in the overlap matrix is 1.2580987833E-03.
  Reciprocal condition number of the overlap matrix is 3.4920111620E-04.
    Using symmetric orthogonalization.

  ==> Pre-Iterations <==

  SCF Guess: Orbitals guess was supplied from a previous computation.

   -------------------------------------------------------
    Irrep   Nso     Nmo     Nalpha   Nbeta   Ndocc  Nsocc
   -------------------------------------------------------
     Ag         9       9       4       3       3       1
     B1g        4       4       1       0       0       1
     B2g        1       1       0       0       0       0
     B3g        4       4       1       1       1       0
     Au         1       1       0       0       0       0
     B1u        4       4       2       1       1       1
     B2u        9       9       3       2       2       1
     B3u        4       4       2       1       1       1
   -------------------------------------------------------
    Total      36      36      13       8       8       5
   -------------------------------------------------------

  ==> Iterations <==

                           Total Energy        Delta E     RMS |[F,P]|

   @DF-UKS iter   0:  -321.02311829466379   -3.21023e+02   7.19021e-04 
   @DF-UKS iter   1:  -321.02112840429868    1.98989e-03   2.67686e-05 DIIS
   @DF-UKS iter   2:  -321.02112849916654   -9.48679e-08   2.16194e-06 DIIS/DAMP=1%
   @DF-UKS iter   3:  -321.02112884342245   -3.44256e-07   1.58864e-07 DIIS/DAMP=1%
   @DF-UKS iter   4:  -321.02112847154928    3.71873e-07   8.20822e-09 DIIS/DAMP=1%
   @DF-UKS iter   5:  -321.02112849995467   -2.84054e-08   3.85134e-10 DIIS/DAMP=1%
   @DF-UKS iter   6:  -321.02112849988947    6.51994e-11   2.20644e-11 DIIS/DAMP=1%
  Energy and wave function converged.


  ==> Post-Iterations <==

   Electrons on quadrature grid:
      Nalpha   =   12.9999988192 ; deviation = -1.181e-06
      Nbeta    =    7.9999992831 ; deviation = -7.169e-07
      Ntotal   =   20.9999981024 ; deviation = -1.898e-06 

   @Spin Contamination Metric:   1.509497779E-04
   @S^2 Expected:                8.750000000E+00
   @S^2 Observed:                8.750150950E+00
   @S   Expected:                2.500000000E+00
   @S   Observed:                2.500000000E+00

    Orbital Energies [Eh]
    ---------------------

    Alpha Occupied:                                                       

       1B2u  -40.177463     1Ag   -40.177380     2Ag    -3.727816  
       2B2u   -3.434720     3Ag    -2.640451     1B3u   -2.520607  
       1B1u   -2.458651     1B1g   -2.420390     1B3g   -2.354861  
       3B2u   -2.309666     4Ag    -0.600274     2B3u   -0.388826  
       2B1u   -0.383071  

    Alpha Virtual:                                                        

       4B2u   -0.345053     5Ag    -0.185630     2B1g   -0.172605  
       2B3g   -0.170021     1B2g   -0.162642     6Ag    -0.162590  
       7Ag    -0.134534     5B2u   -0.092472     3B3u   -0.091516  
       3B1u   -0.090624     8Ag    -0.059407     3B1g   -0.044772  
       3B3g   -0.044175     6B2u   -0.022024     4B3u   -0.000335  
       7B2u   -0.000069     4B1u    0.001196     1Au     0.020114  
       8B2u    0.020158     9Ag     0.077950     4B1g    0.127443  
       4B3g    0.129268     9B2u    1.222842  

    Beta Occupied:                                                        

       1Ag   -40.126649     1B2u  -40.126565     2Ag    -3.611262  
       2B2u   -3.301432     3Ag    -2.467119     1B1u   -2.408079  
       1B3u   -2.339125     1B3g   -2.301598  

    Beta Virtual:                                                         

       1B1g   -2.144841     3B2u   -2.011556     4Ag    -0.469051  
       4B2u   -0.304000     2B3u   -0.256210     2B1u   -0.255162  
       5Ag    -0.165873     2B3g   -0.138211     2B1g   -0.135422  
       6Ag    -0.105375     5B2u   -0.087474     1B2g   -0.084146  
       7Ag    -0.083667     3B1u   -0.079832     3B3u   -0.078198  
       8Ag    -0.052813     3B3g   -0.037020     3B1g   -0.035411  
       6B2u   -0.015614     4B1u    0.019292     4B3u    0.022828  
       7B2u    0.025275     1Au     0.061620     8B2u    0.063040  
       9Ag     0.112484     4B3g    0.146501     4B1g    0.150497  
       9B2u    1.278802  

    Final Occupation by Irrep:
             Ag   B1g   B2g   B3g    Au   B1u   B2u   B3u 
    DOCC [     3,    0,    0,    1,    0,    1,    2,    1 ]
    SOCC [     1,    1,    0,    0,    0,    1,    1,    1 ]
    NA   [     4,    1,    0,    1,    0,    2,    3,    2 ]
    NB   [     3,    0,    0,    1,    0,    1,    2,    1 ]

  @DF-UKS Final Energy:  -321.02112849988947

   => Energetics <=

    Nuclear Repulsion Energy =             53.2478845308564601
    One-Electron Energy =                -532.4695327106918512
    Two-Electron Energy =                 180.2678302018614147
    DFT Exchange-Correlation Energy =     -22.0673105219154913
    Empirical Dispersion Energy =           0.0000000000000000
    VV10 Nonlocal Energy =                  0.0000000000000000
    Total Energy =                       -321.0211284998894143

  UHF NO Occupations:
  HONO-2 :    2B3u 1.0000000
  HONO-1 :    2B1u 1.0000000
  HONO-0 :    3B2u 1.0000000
  LUNO+0 :    4B2u 0.0000403
  LUNO+1 :    5 Ag 0.0000180
  LUNO+2 :    6 Ag 0.0000095
  LUNO+3 :    3B3u 0.0000058


Computation Completed


Properties will be evaluated at   0.000000,   0.000000,   0.000000 [a0]

Properties computed using the SCF density matrix


 Multipole Moments:

 ------------------------------------------------------------------------------------
     Multipole            Electronic (a.u.)      Nuclear  (a.u.)        Total (a.u.)
 ------------------------------------------------------------------------------------

 L = 1.  Multiply by 2.5417464519 to convert [e a0] to [Debye]
 Dipole X            :          0.0000000            0.0000000            0.0000000
 Dipole Y            :          0.0000000            0.0000000            0.0000000
 Dipole Z            :          0.0000000            0.0000000            0.0000000
 Magnitude           :                                                    0.0000000

 ------------------------------------------------------------------------------------

*** tstop() called on Joses-MacBook-Pro-2.local at Thu Jul 17 14:45:04 2025
Module time:
	user time   =       5.09 seconds =       0.08 minutes
	system time =       3.41 seconds =       0.06 minutes
	total time  =          1 seconds =       0.02 minutes
Total time:
	user time   =      14.29 seconds =       0.24 minutes
	system time =       9.23 seconds =       0.15 minutes
	total time  =          2 seconds =       0.03 minutes

*** tstart() called on Joses-MacBook-Pro-2.local
*** at Thu Jul 17 14:45:04 2025


         ------------------------------------------------------------
                                   SCF GRAD                          
                          Rob Parrish, Justin Turney,                
                       Andy Simmonett, and Alex Sokolov              
         ------------------------------------------------------------

  ==> Geometry <==

    Molecular point group: d2h
    Full point group: D_inf_h

    Geometry (in Angstrom), charge = 1, multiplicity = 6:

       Center              X                  Y                   Z               Mass       
    ------------   -----------------  -----------------  -----------------  -----------------
         NA          -0.000000000000     0.601248698002     0.000000000000    22.989769282000
         NA           0.000000000000    -0.601248698002     0.000000000000    22.989769282000

  Nuclear repulsion =   53.247884530856460

  ==> Basis Set <==

  Basis Set: CC-PVDZ
    Blend: CC-PVDZ
    Number of shells: 16
    Number of basis functions: 36
    Number of Cartesian functions: 38
    Spherical Harmonics?: true
    Max angular momentum: 2

  ==> DFJKGrad: Density-Fitted SCF Gradients <==

    Gradient:                    1
    J tasked:                  Yes
    K tasked:                  Yes
    wK tasked:                  No
    OpenMP threads:              1
    Integrals threads:           1
    Memory [MiB]:              375
    Schwarz Cutoff:          1E-12
    Fitting Condition:       1E-10

   => Auxiliary Basis Set <=

  Basis Set: (CC-PVDZ AUX)
    Blend: DEF2-UNIVERSAL-JKFIT
    Number of shells: 68
    Number of basis functions: 224
    Number of Cartesian functions: 274
    Spherical Harmonics?: true
    Max angular momentum: 4

  ==> DFT Potential <==

   => LibXC <=

    Version 6.2.2
    S. Lehtola, C. Steigemann, M. J.T. Oliveira, and M. A.L. Marques.,  SoftwareX 7, 1–5 (2018) (10.1016/j.softx.2017.11.002)

   => Composite Functional: B3LYP <= 

    B3LYP Hyb-GGA Exchange-Correlation Functional

    P. J. Stephens, F. J. Devlin, C. F. Chabalowski, and M. J. Frisch.,  J. Phys. Chem. 98, 11623 (1994) (10.1021/j100096a001)

    Deriv               =              1
    GGA                 =           TRUE
    Meta                =          FALSE

    Exchange Hybrid     =           TRUE
    MP2 Hybrid          =          FALSE

   => Exchange Functionals <=

    0.0800   Slater exchange
    0.7200         Becke 88

   => Exact (HF) Exchange <=

    0.2000               HF 

   => Correlation Functionals <=

    0.1900   Vosko, Wilk & Nusair (VWN5_RPA)
    0.8100   Lee, Yang & Parr

   => LibXC Density Thresholds  <==

    XC_HYB_GGA_XC_B3LYP:  1.00E-15 

   => Molecular Quadrature <=

    Radial Scheme          =       TREUTLER
    Pruning Scheme         =           NONE
    Nuclear Scheme         =       TREUTLER

    Blocking Scheme        =         OCTREE
    BS radius alpha        =              1
    Pruning alpha          =              1
    Radial Points          =             75
    Spherical Points       =            302
    Total Points           =          42956
    Total Blocks           =            462
    Max Points             =            250
    Max Functions          =             36
    Weights Tolerance      =       1.00E-15


  -Total Gradient:
     Atom            X                  Y                   Z
    ------   -----------------  -----------------  -----------------
       1        0.000000000000    -1.016326269234     0.000000000000
       2       -0.000000000000     1.016326269234     0.000000000000


*** tstop() called on Joses-MacBook-Pro-2.local at Thu Jul 17 14:45:05 2025
Module time:
	user time   =       2.52 seconds =       0.04 minutes
	system time =       2.05 seconds =       0.03 minutes
	total time  =          1 seconds =       0.02 minutes
Total time:
	user time   =      16.81 seconds =       0.28 minutes
	system time =      11.28 seconds =       0.19 minutes
	total time  =          3 seconds =       0.05 minutes

    			-----------------------------------------

    			 OPTKING 3.0: for geometry optimizations 

    			     By R.A. King, Bethel University     

    			        with contributions from          

    			    A.V. Copan, J. Cayton, A. Heide      

    			-----------------------------------------

    
	                            ===> Fragment 1 <== 

	 Z (Atomic Numbers)          Masses                          Geom                  
	      11.000000            22.989769         -0.00000000  1.13619537  0.00000000   
	      11.000000            22.989769          0.00000000 -1.13619537  0.00000000   

	 - Coordinate -           - BOHR/RAD -       - ANG/DEG -
	 R(1,2)           =         2.272391           1.202497


	        --- Internal Coordinate Step in ANG or DEG, aJ/ANG or AJ/DEG ---
	-------------------------------------------------------------------------------
	           Coordinate      Previous         Force          Change          New 
	           ----------      --------        ------          ------        ------
	               R(1,2)       1.20250        8.37323        0.00494       1.20744
	-------------------------------------------------------------------------------

	                                 ==> Convergence Check <==                                  
    
	Measures of convergence in internal coordinates in au.
    
	Criteria marked as inactive (o), active & met (*), and active & unmet ( ).

	----------------------------------------------------------------------------------------------
	   Step    Total Energy     Delta E     Max Force     RMS Force      Max Disp      RMS Disp   
	----------------------------------------------------------------------------------------------
	  Convergence Criteria     1.00e-06 *    3.00e-04 *             o    1.20e-03 *             o
	----------------------------------------------------------------------------------------------
	     2    -321.02112850   -4.82e-03      1.02e+00      1.02e+00 o    9.33e-03      9.33e-03 o  ~
	----------------------------------------------------------------------------------------------

Next Geometry in Ang 
	Fragment 1 (Ang)

	   Na  -0.0000000000   0.6037175477   0.0000000000
	   Na   0.0000000000  -0.6037175477   0.0000000000


    Structure for next step:
    Molecular point group: d2h
    Full point group: D_inf_h

    Geometry (in Angstrom), charge = 1, multiplicity = 6:

    NA          -0.000000000000     0.603717547655     0.000000000000
    NA           0.000000000000    -0.603717547655     0.000000000000


Scratch directory: /tmp/
gradient() will perform analytic gradient computation.
   => Libint2 <=

    Primary   basis highest AM E, G, H:  6, 6, 3
    Auxiliary basis highest AM E, G, H:  7, 7, 4
    Onebody   basis highest AM E, G, H:  -, -, -
    Solid Harmonics ordering:            Gaussian

*** tstart() called on Joses-MacBook-Pro-2.local
*** at Thu Jul 17 14:45:05 2025

   => Loading Basis Set <=

    Name: CC-PVDZ
    Role: ORBITAL
    Keyword: BASIS
    atoms 1-2 entry NA         line   288 file /Users/joseantoniorodriguesromero/anaconda3/share/psi4/basis/cc-pvdz.gbs 


         ---------------------------------------------------------
                                   SCF
               by Justin Turney, Rob Parrish, Andy Simmonett
                          and Daniel G. A. Smith
                              UKS Reference
                        1 Threads,    500 MiB Core
         ---------------------------------------------------------

  ==> Geometry <==

    Molecular point group: d2h
    Full point group: D_inf_h

    Geometry (in Angstrom), charge = 1, multiplicity = 6:

       Center              X                  Y                   Z               Mass       
    ------------   -----------------  -----------------  -----------------  -----------------
         NA          -0.000000000000     0.603717547655     0.000000000000    22.989769282000
         NA           0.000000000000    -0.603717547655     0.000000000000    22.989769282000

  Running in d2h symmetry.

  Rotational constants: A = ************  B =      1.00592  C =      1.00592 [cm^-1]
  Rotational constants: A = ************  B =  30156.78171  C =  30156.78171 [MHz]
  Nuclear repulsion =   53.030132004442642

  Charge       = 1
  Multiplicity = 6
  Electrons    = 21
  Nalpha       = 13
  Nbeta        = 8

  ==> Algorithm <==

  SCF Algorithm Type is DF.
  DIIS enabled.
  MOM disabled.
  Fractional occupation disabled.
  Guess Type is READ.
  Energy threshold   = 1.00e-08
  Density threshold  = 1.00e-08
  Integral threshold = 1.00e-12

  ==> Primary Basis <==

  Basis Set: CC-PVDZ
    Blend: CC-PVDZ
    Number of shells: 16
    Number of basis functions: 36
    Number of Cartesian functions: 38
    Spherical Harmonics?: true
    Max angular momentum: 2

  ==> DFT Potential <==

   => LibXC <=

    Version 6.2.2
    S. Lehtola, C. Steigemann, M. J.T. Oliveira, and M. A.L. Marques.,  SoftwareX 7, 1–5 (2018) (10.1016/j.softx.2017.11.002)

   => Composite Functional: B3LYP <= 

    B3LYP Hyb-GGA Exchange-Correlation Functional

    P. J. Stephens, F. J. Devlin, C. F. Chabalowski, and M. J. Frisch.,  J. Phys. Chem. 98, 11623 (1994) (10.1021/j100096a001)

    Deriv               =              1
    GGA                 =           TRUE
    Meta                =          FALSE

    Exchange Hybrid     =           TRUE
    MP2 Hybrid          =          FALSE

   => Exchange Functionals <=

    0.0800   Slater exchange
    0.7200         Becke 88

   => Exact (HF) Exchange <=

    0.2000               HF 

   => Correlation Functionals <=

    0.1900   Vosko, Wilk & Nusair (VWN5_RPA)
    0.8100   Lee, Yang & Parr

   => LibXC Density Thresholds  <==

    XC_HYB_GGA_XC_B3LYP:  1.00E-15 

   => Molecular Quadrature <=

    Radial Scheme          =       TREUTLER
    Pruning Scheme         =           NONE
    Nuclear Scheme         =       TREUTLER

    Blocking Scheme        =         OCTREE
    BS radius alpha        =              1
    Pruning alpha          =              1
    Radial Points          =             75
    Spherical Points       =            302
    Total Points           =          42956
    Total Blocks           =            460
    Max Points             =            256
    Max Functions          =             36
    Weights Tolerance      =       1.00E-15

   => Loading Basis Set <=

    Name: (CC-PVDZ AUX)
    Role: JKFIT
    Keyword: DF_BASIS_SCF
    atoms 1-2 entry NA         line   498 file /Users/joseantoniorodriguesromero/anaconda3/share/psi4/basis/def2-universal-jkfit.gbs 

   => Loading Basis Set <=

    Name: CC-PVDZ
    Role: ORBITAL
    Keyword: BASIS
    atoms 1-2 entry NA         line   288 file /Users/joseantoniorodriguesromero/anaconda3/share/psi4/basis/cc-pvdz.gbs 

  Reading orbitals from file /tmp/sextet_NaNa.default.74847.180.npy, no projection.

  ==> Integral Setup <==

  DFHelper Memory: AOs need 0.003 GiB; user supplied 0.321 GiB. 
  Using in-core AOs.

  ==> MemDFJK: Density-Fitted J/K Matrices <==

    J tasked:                   Yes
    K tasked:                   Yes
    wK tasked:                   No
    OpenMP threads:               1
    Memory [MiB]:               328
    Algorithm:                 Core
    Schwarz Cutoff:           1E-12
    Mask sparsity (%):       0.0000
    Fitting Condition:        1E-10

   => Auxiliary Basis Set <=

  Basis Set: (CC-PVDZ AUX)
    Blend: DEF2-UNIVERSAL-JKFIT
    Number of shells: 68
    Number of basis functions: 224
    Number of Cartesian functions: 274
    Spherical Harmonics?: true
    Max angular momentum: 4

  Cached 100.0% of DFT collocation blocks in 0.046 [GiB].

  Minimum eigenvalue in the overlap matrix is 1.2571644686E-03.
  Reciprocal condition number of the overlap matrix is 3.4882037608E-04.
    Using symmetric orthogonalization.

  ==> Pre-Iterations <==

  SCF Guess: Orbitals guess was supplied from a previous computation.

   -------------------------------------------------------
    Irrep   Nso     Nmo     Nalpha   Nbeta   Ndocc  Nsocc
   -------------------------------------------------------
     Ag         9       9       4       3       3       1
     B1g        4       4       1       0       0       1
     B2g        1       1       0       0       0       0
     B3g        4       4       1       1       1       0
     Au         1       1       0       0       0       0
     B1u        4       4       2       1       1       1
     B2u        9       9       3       2       2       1
     B3u        4       4       2       1       1       1
   -------------------------------------------------------
    Total      36      36      13       8       8       5
   -------------------------------------------------------

  ==> Iterations <==

                           Total Energy        Delta E     RMS |[F,P]|

   @DF-UKS iter   0:  -321.03448286027435   -3.21034e+02   1.40335e-03 
   @DF-UKS iter   1:  -321.03050542735735    3.97743e-03   5.23229e-05 DIIS
   @DF-UKS iter   2:  -321.03050579205200   -3.64695e-07   4.23416e-06 DIIS/DAMP=1%
   @DF-UKS iter   3:  -321.03050646147881   -6.69427e-07   3.10810e-07 DIIS/DAMP=1%
   @DF-UKS iter   4:  -321.03050573849703    7.22982e-07   1.57937e-08 DIIS/DAMP=1%
   @DF-UKS iter   5:  -321.03050579493868   -5.64416e-08   7.19190e-10 DIIS/DAMP=1%
   @DF-UKS iter   6:  -321.03050579475541    1.83263e-10   4.13322e-11 DIIS/DAMP=1%
  Energy and wave function converged.


  ==> Post-Iterations <==

   Electrons on quadrature grid:
      Nalpha   =   12.9999987018 ; deviation = -1.298e-06
      Nbeta    =    7.9999991903 ; deviation = -8.097e-07
      Ntotal   =   20.9999978921 ; deviation = -2.108e-06 

   @Spin Contamination Metric:   1.514219162E-04
   @S^2 Expected:                8.750000000E+00
   @S^2 Observed:                8.750151422E+00
   @S   Expected:                2.500000000E+00
   @S   Observed:                2.500000000E+00

    Orbital Energies [Eh]
    ---------------------

    Alpha Occupied:                                                       

       1B2u  -40.175066     1Ag   -40.174984     2Ag    -3.720723  
       2B2u   -3.434082     3Ag    -2.636663     1B3u   -2.516772  
       1B1u   -2.454837     1B1g   -2.418633     1B3g   -2.353165  
       3B2u   -2.310364     4Ag    -0.599775     2B3u   -0.388514  
       2B1u   -0.382761  

    Alpha Virtual:                                                        

       4B2u   -0.344850     5Ag    -0.185683     2B1g   -0.172528  
       2B3g   -0.169947     1B2g   -0.162367     6Ag    -0.162316  
       7Ag    -0.134462     5B2u   -0.092443     3B3u   -0.091513  
       3B1u   -0.090617     8Ag    -0.059369     3B1g   -0.044736  
       3B3g   -0.044140     6B2u   -0.021994     4B3u   -0.000546  
       7B2u   -0.000451     4B1u    0.000984     1Au     0.020060  
       8B2u    0.020104     9Ag     0.077996     4B1g    0.127637  
       4B3g    0.129460     9B2u    1.223768  

    Beta Occupied:                                                        

       1Ag   -40.124343     1B2u  -40.124261     2Ag    -3.604181  
       2B2u   -3.300885     3Ag    -2.463142     1B1u   -2.404280  
       1B3u   -2.335168     1B3g   -2.299960  

    Beta Virtual:                                                         

       1B1g   -2.143406     3B2u   -2.012841     4Ag    -0.468558  
       4B2u   -0.303899     2B3u   -0.255926     2B1u   -0.254876  
       5Ag    -0.165891     2B3g   -0.138237     2B1g   -0.135450  
       6Ag    -0.105297     5B2u   -0.087417     1B2g   -0.083891  
       7Ag    -0.083423     3B1u   -0.079807     3B3u   -0.078160  
       8Ag    -0.052771     3B3g   -0.037006     3B1g   -0.035392  
       6B2u   -0.015543     4B1u    0.019064     4B3u    0.022609  
       7B2u    0.024945     1Au     0.061527     8B2u    0.062941  
       9Ag     0.112567     4B3g    0.146658     4B1g    0.150656  
       9B2u    1.279689  

    Final Occupation by Irrep:
             Ag   B1g   B2g   B3g    Au   B1u   B2u   B3u 
    DOCC [     3,    0,    0,    1,    0,    1,    2,    1 ]
    SOCC [     1,    1,    0,    0,    0,    1,    1,    1 ]
    NA   [     4,    1,    0,    1,    0,    2,    3,    2 ]
    NB   [     3,    0,    0,    1,    0,    1,    2,    1 ]

  @DF-UKS Final Energy:  -321.03050579475541

   => Energetics <=

    Nuclear Repulsion Energy =             53.0301320044426419
    One-Electron Energy =                -532.1079031931973304
    Two-Electron Energy =                 180.1120496272530431
    DFT Exchange-Correlation Energy =     -22.0647842332537323
    Empirical Dispersion Energy =           0.0000000000000000
    VV10 Nonlocal Energy =                  0.0000000000000000
    Total Energy =                       -321.0305057947554133

  UHF NO Occupations:
  HONO-2 :    2B3u 1.0000000
  HONO-1 :    3B2u 1.0000000
  HONO-0 :    1B1g 1.0000000
  LUNO+0 :    4B2u 0.0000402
  LUNO+1 :    5 Ag 0.0000183
  LUNO+2 :    6 Ag 0.0000094
  LUNO+3 :    3B3u 0.0000058


Computation Completed


Properties will be evaluated at   0.000000,   0.000000,   0.000000 [a0]

Properties computed using the SCF density matrix


 Multipole Moments:

 ------------------------------------------------------------------------------------
     Multipole            Electronic (a.u.)      Nuclear  (a.u.)        Total (a.u.)
 ------------------------------------------------------------------------------------

 L = 1.  Multiply by 2.5417464519 to convert [e a0] to [Debye]
 Dipole X            :          0.0000000            0.0000000            0.0000000
 Dipole Y            :          0.0000000            0.0000000            0.0000000
 Dipole Z            :          0.0000000            0.0000000            0.0000000
 Magnitude           :                                                    0.0000000

 ------------------------------------------------------------------------------------

*** tstop() called on Joses-MacBook-Pro-2.local at Thu Jul 17 14:45:06 2025
Module time:
	user time   =       5.51 seconds =       0.09 minutes
	system time =       3.34 seconds =       0.06 minutes
	total time  =          1 seconds =       0.02 minutes
Total time:
	user time   =      22.36 seconds =       0.37 minutes
	system time =      14.86 seconds =       0.25 minutes
	total time  =          4 seconds =       0.07 minutes

*** tstart() called on Joses-MacBook-Pro-2.local
*** at Thu Jul 17 14:45:06 2025


         ------------------------------------------------------------
                                   SCF GRAD                          
                          Rob Parrish, Justin Turney,                
                       Andy Simmonett, and Alex Sokolov              
         ------------------------------------------------------------

  ==> Geometry <==

    Molecular point group: d2h
    Full point group: D_inf_h

    Geometry (in Angstrom), charge = 1, multiplicity = 6:

       Center              X                  Y                   Z               Mass       
    ------------   -----------------  -----------------  -----------------  -----------------
         NA          -0.000000000000     0.603717547655     0.000000000000    22.989769282000
         NA           0.000000000000    -0.603717547655     0.000000000000    22.989769282000

  Nuclear repulsion =   53.030132004442642

  ==> Basis Set <==

  Basis Set: CC-PVDZ
    Blend: CC-PVDZ
    Number of shells: 16
    Number of basis functions: 36
    Number of Cartesian functions: 38
    Spherical Harmonics?: true
    Max angular momentum: 2

  ==> DFJKGrad: Density-Fitted SCF Gradients <==

    Gradient:                    1
    J tasked:                  Yes
    K tasked:                  Yes
    wK tasked:                  No
    OpenMP threads:              1
    Integrals threads:           1
    Memory [MiB]:              375
    Schwarz Cutoff:          1E-12
    Fitting Condition:       1E-10

   => Auxiliary Basis Set <=

  Basis Set: (CC-PVDZ AUX)
    Blend: DEF2-UNIVERSAL-JKFIT
    Number of shells: 68
    Number of basis functions: 224
    Number of Cartesian functions: 274
    Spherical Harmonics?: true
    Max angular momentum: 4

  ==> DFT Potential <==

   => LibXC <=

    Version 6.2.2
    S. Lehtola, C. Steigemann, M. J.T. Oliveira, and M. A.L. Marques.,  SoftwareX 7, 1–5 (2018) (10.1016/j.softx.2017.11.002)

   => Composite Functional: B3LYP <= 

    B3LYP Hyb-GGA Exchange-Correlation Functional

    P. J. Stephens, F. J. Devlin, C. F. Chabalowski, and M. J. Frisch.,  J. Phys. Chem. 98, 11623 (1994) (10.1021/j100096a001)

    Deriv               =              1
    GGA                 =           TRUE
    Meta                =          FALSE

    Exchange Hybrid     =           TRUE
    MP2 Hybrid          =          FALSE

   => Exchange Functionals <=

    0.0800   Slater exchange
    0.7200         Becke 88

   => Exact (HF) Exchange <=

    0.2000               HF 

   => Correlation Functionals <=

    0.1900   Vosko, Wilk & Nusair (VWN5_RPA)
    0.8100   Lee, Yang & Parr

   => LibXC Density Thresholds  <==

    XC_HYB_GGA_XC_B3LYP:  1.00E-15 

   => Molecular Quadrature <=

    Radial Scheme          =       TREUTLER
    Pruning Scheme         =           NONE
    Nuclear Scheme         =       TREUTLER

    Blocking Scheme        =         OCTREE
    BS radius alpha        =              1
    Pruning alpha          =              1
    Radial Points          =             75
    Spherical Points       =            302
    Total Points           =          42956
    Total Blocks           =            460
    Max Points             =            256
    Max Functions          =             36
    Weights Tolerance      =       1.00E-15


  -Total Gradient:
     Atom            X                  Y                   Z
    ------   -----------------  -----------------  -----------------
       1        0.000000000000    -0.993703871067     0.000000000000
       2       -0.000000000000     0.993703871067     0.000000000000


*** tstop() called on Joses-MacBook-Pro-2.local at Thu Jul 17 14:45:06 2025
Module time:
	user time   =       3.06 seconds =       0.05 minutes
	system time =       2.37 seconds =       0.04 minutes
	total time  =          0 seconds =       0.00 minutes
Total time:
	user time   =      25.43 seconds =       0.42 minutes
	system time =      17.23 seconds =       0.29 minutes
	total time  =          4 seconds =       0.07 minutes

    			-----------------------------------------

    			 OPTKING 3.0: for geometry optimizations 

    			     By R.A. King, Bethel University     

    			        with contributions from          

    			    A.V. Copan, J. Cayton, A. Heide      

    			-----------------------------------------

    
	                            ===> Fragment 1 <== 

	 Z (Atomic Numbers)          Masses                          Geom                  
	      11.000000            22.989769         -0.00000000  1.14086082  0.00000000   
	      11.000000            22.989769          0.00000000 -1.14086082  0.00000000   

	 - Coordinate -           - BOHR/RAD -       - ANG/DEG -
	 R(1,2)           =         2.281722           1.207435


	        --- Internal Coordinate Step in ANG or DEG, aJ/ANG or AJ/DEG ---
	-------------------------------------------------------------------------------
	           Coordinate      Previous         Force          Change          New 
	           ----------      --------        ------          ------        ------
	               R(1,2)       1.20744        8.18685        0.01929       1.22672
	-------------------------------------------------------------------------------

	                                 ==> Convergence Check <==                                  
    
	Measures of convergence in internal coordinates in au.
    
	Criteria marked as inactive (o), active & met (*), and active & unmet ( ).

	----------------------------------------------------------------------------------------------
	   Step    Total Energy     Delta E     Max Force     RMS Force      Max Disp      RMS Disp   
	----------------------------------------------------------------------------------------------
	  Convergence Criteria     1.00e-06 *    3.00e-04 *             o    1.20e-03 *             o
	----------------------------------------------------------------------------------------------
	     3    -321.03050579   -9.38e-03      9.94e-01      9.94e-01 o    3.64e-02      3.64e-02 o  ~
	----------------------------------------------------------------------------------------------

Next Geometry in Ang 
	Fragment 1 (Ang)

	   Na  -0.0000000000   0.6133611428   0.0000000000
	   Na   0.0000000000  -0.6133611428   0.0000000000


    Structure for next step:
    Molecular point group: d2h
    Full point group: D_inf_h

    Geometry (in Angstrom), charge = 1, multiplicity = 6:

    NA          -0.000000000000     0.613361142799     0.000000000000
    NA           0.000000000000    -0.613361142799     0.000000000000


Scratch directory: /tmp/
gradient() will perform analytic gradient computation.
   => Libint2 <=

    Primary   basis highest AM E, G, H:  6, 6, 3
    Auxiliary basis highest AM E, G, H:  7, 7, 4
    Onebody   basis highest AM E, G, H:  -, -, -
    Solid Harmonics ordering:            Gaussian

*** tstart() called on Joses-MacBook-Pro-2.local
*** at Thu Jul 17 14:45:06 2025

   => Loading Basis Set <=

    Name: CC-PVDZ
    Role: ORBITAL
    Keyword: BASIS
    atoms 1-2 entry NA         line   288 file /Users/joseantoniorodriguesromero/anaconda3/share/psi4/basis/cc-pvdz.gbs 


         ---------------------------------------------------------
                                   SCF
               by Justin Turney, Rob Parrish, Andy Simmonett
                          and Daniel G. A. Smith
                              UKS Reference
                        1 Threads,    500 MiB Core
         ---------------------------------------------------------

  ==> Geometry <==

    Molecular point group: d2h
    Full point group: D_inf_h

    Geometry (in Angstrom), charge = 1, multiplicity = 6:

       Center              X                  Y                   Z               Mass       
    ------------   -----------------  -----------------  -----------------  -----------------
         NA          -0.000000000000     0.613361142799     0.000000000000    22.989769282000
         NA           0.000000000000    -0.613361142799     0.000000000000    22.989769282000

  Running in d2h symmetry.

  Rotational constants: A = ************  B =      0.97454  C =      0.97454 [cm^-1]
  Rotational constants: A = ************  B =  29215.95399  C =  29215.95399 [MHz]
  Nuclear repulsion =   52.196363629155130

  Charge       = 1
  Multiplicity = 6
  Electrons    = 21
  Nalpha       = 13
  Nbeta        = 8

  ==> Algorithm <==

  SCF Algorithm Type is DF.
  DIIS enabled.
  MOM disabled.
  Fractional occupation disabled.
  Guess Type is READ.
  Energy threshold   = 1.00e-08
  Density threshold  = 1.00e-08
  Integral threshold = 1.00e-12

  ==> Primary Basis <==

  Basis Set: CC-PVDZ
    Blend: CC-PVDZ
    Number of shells: 16
    Number of basis functions: 36
    Number of Cartesian functions: 38
    Spherical Harmonics?: true
    Max angular momentum: 2

  ==> DFT Potential <==

   => LibXC <=

    Version 6.2.2
    S. Lehtola, C. Steigemann, M. J.T. Oliveira, and M. A.L. Marques.,  SoftwareX 7, 1–5 (2018) (10.1016/j.softx.2017.11.002)

   => Composite Functional: B3LYP <= 

    B3LYP Hyb-GGA Exchange-Correlation Functional

    P. J. Stephens, F. J. Devlin, C. F. Chabalowski, and M. J. Frisch.,  J. Phys. Chem. 98, 11623 (1994) (10.1021/j100096a001)

    Deriv               =              1
    GGA                 =           TRUE
    Meta                =          FALSE

    Exchange Hybrid     =           TRUE
    MP2 Hybrid          =          FALSE

   => Exchange Functionals <=

    0.0800   Slater exchange
    0.7200         Becke 88

   => Exact (HF) Exchange <=

    0.2000               HF 

   => Correlation Functionals <=

    0.1900   Vosko, Wilk & Nusair (VWN5_RPA)
    0.8100   Lee, Yang & Parr

   => LibXC Density Thresholds  <==

    XC_HYB_GGA_XC_B3LYP:  1.00E-15 

   => Molecular Quadrature <=

    Radial Scheme          =       TREUTLER
    Pruning Scheme         =           NONE
    Nuclear Scheme         =       TREUTLER

    Blocking Scheme        =         OCTREE
    BS radius alpha        =              1
    Pruning alpha          =              1
    Radial Points          =             75
    Spherical Points       =            302
    Total Points           =          42972
    Total Blocks           =            460
    Max Points             =            256
    Max Functions          =             36
    Weights Tolerance      =       1.00E-15

   => Loading Basis Set <=

    Name: (CC-PVDZ AUX)
    Role: JKFIT
    Keyword: DF_BASIS_SCF
    atoms 1-2 entry NA         line   498 file /Users/joseantoniorodriguesromero/anaconda3/share/psi4/basis/def2-universal-jkfit.gbs 

   => Loading Basis Set <=

    Name: CC-PVDZ
    Role: ORBITAL
    Keyword: BASIS
    atoms 1-2 entry NA         line   288 file /Users/joseantoniorodriguesromero/anaconda3/share/psi4/basis/cc-pvdz.gbs 

  Reading orbitals from file /tmp/sextet_NaNa.default.74847.180.npy, no projection.

  ==> Integral Setup <==

  DFHelper Memory: AOs need 0.003 GiB; user supplied 0.320 GiB. 
  Using in-core AOs.

  ==> MemDFJK: Density-Fitted J/K Matrices <==

    J tasked:                   Yes
    K tasked:                   Yes
    wK tasked:                   No
    OpenMP threads:               1
    Memory [MiB]:               328
    Algorithm:                 Core
    Schwarz Cutoff:           1E-12
    Mask sparsity (%):       0.0000
    Fitting Condition:        1E-10

   => Auxiliary Basis Set <=

  Basis Set: (CC-PVDZ AUX)
    Blend: DEF2-UNIVERSAL-JKFIT
    Number of shells: 68
    Number of basis functions: 224
    Number of Cartesian functions: 274
    Spherical Harmonics?: true
    Max angular momentum: 4

  Cached 100.0% of DFT collocation blocks in 0.046 [GiB].

  Minimum eigenvalue in the overlap matrix is 1.2534878687E-03.
  Reciprocal condition number of the overlap matrix is 3.4732940500E-04.
    Using symmetric orthogonalization.

  ==> Pre-Iterations <==

  SCF Guess: Orbitals guess was supplied from a previous computation.

   -------------------------------------------------------
    Irrep   Nso     Nmo     Nalpha   Nbeta   Ndocc  Nsocc
   -------------------------------------------------------
     Ag         9       9       4       3       3       1
     B1g        4       4       1       0       0       1
     B2g        1       1       0       0       0       0
     B3g        4       4       1       1       1       0
     Au         1       1       0       0       0       0
     B1u        4       4       2       1       1       1
     B2u        9       9       3       2       2       1
     B3u        4       4       2       1       1       1
   -------------------------------------------------------
    Total      36      36      13       8       8       5
   -------------------------------------------------------

  ==> Iterations <==

                           Total Energy        Delta E     RMS |[F,P]|

   @DF-UKS iter   0:  -321.08192585106508   -3.21082e+02   5.25889e-03 
   @DF-UKS iter   1:  -321.06518745761349    1.67384e-02   1.99393e-04 ADIIS/DIIS
   @DF-UKS iter   2:  -321.06519290137231   -5.44376e-06   1.62909e-05 DIIS/DAMP=1%
   @DF-UKS iter   3:  -321.06519543192070   -2.53055e-06   1.23142e-06 DIIS/DAMP=1%
   @DF-UKS iter   4:  -321.06519270777335    2.72415e-06   6.17644e-08 DIIS/DAMP=1%
   @DF-UKS iter   5:  -321.06519294212268   -2.34349e-07   2.87087e-09 DIIS/DAMP=1%
   @DF-UKS iter   6:  -321.06519294214013   -1.74509e-11   1.62246e-10 DIIS/DAMP=1%
  Energy and wave function converged.


  ==> Post-Iterations <==

   Electrons on quadrature grid:
      Nalpha   =   12.9999983546 ; deviation = -1.645e-06
      Nbeta    =    7.9999989025 ; deviation = -1.098e-06
      Ntotal   =   20.9999972571 ; deviation = -2.743e-06 

   @Spin Contamination Metric:   1.533475806E-04
   @S^2 Expected:                8.750000000E+00
   @S^2 Observed:                8.750153348E+00
   @S   Expected:                2.500000000E+00
   @S   Observed:                2.500000000E+00

    Orbital Energies [Eh]
    ---------------------

    Alpha Occupied:                                                       

       1B2u  -40.165856     1Ag   -40.165777     2Ag    -3.694080  
       2B2u   -3.431404     3Ag    -2.621939     1B3u   -2.502223  
       1B1u   -2.440366     1B1g   -2.411792     1B3g   -2.346558  
       3B2u   -2.312640     4Ag    -0.597868     2B3u   -0.387297  
       2B1u   -0.381553  

    Alpha Virtual:                                                        

       4B2u   -0.344049     5Ag    -0.185856     2B1g   -0.172216  
       2B3g   -0.169644     1B2g   -0.161289     6Ag    -0.161239  
       7Ag    -0.134187     5B2u   -0.092323     3B3u   -0.091500  
       3B1u   -0.090588     8Ag    -0.059229     3B1g   -0.044598  
       3B3g   -0.044001     6B2u   -0.021867     7B2u   -0.001904  
       4B3u   -0.001351     4B1u    0.000175     1Au     0.019853  
       8B2u    0.019900     9Ag     0.078100     4B1g    0.128429  
       4B3g    0.130242     9B2u    1.227283  

    Beta Occupied:                                                        

       1Ag   -40.115476     1B2u  -40.115397     2Ag    -3.577556  
       2B2u   -3.298568     3Ag    -2.447717     1B1u   -2.389866  
       1B3u   -2.320146     1B3g   -2.293571  

    Beta Virtual:                                                         

       1B1g   -2.137801     3B2u   -2.017337     4Ag    -0.466654  
       4B2u   -0.303488     2B3u   -0.254828     2B1u   -0.253766  
       5Ag    -0.165979     2B3g   -0.138327     2B1g   -0.135530  
       6Ag    -0.105001     5B2u   -0.087204     1B2g   -0.082905  
       7Ag    -0.082465     3B1u   -0.079705     3B3u   -0.078012  
       8Ag    -0.052620     3B3g   -0.036952     3B1g   -0.035310  
       6B2u   -0.015273     4B1u    0.018192     4B3u    0.021768  
       7B2u    0.023655     1Au     0.061173     8B2u    0.062567  
       9Ag     0.112810     4B3g    0.147303     4B1g    0.151328  
       9B2u    1.283051  

    Final Occupation by Irrep:
             Ag   B1g   B2g   B3g    Au   B1u   B2u   B3u 
    DOCC [     3,    0,    0,    1,    0,    1,    2,    1 ]
    SOCC [     1,    1,    0,    0,    0,    1,    1,    1 ]
    NA   [     4,    1,    0,    1,    0,    2,    3,    2 ]
    NB   [     3,    0,    0,    1,    0,    1,    2,    1 ]

  @DF-UKS Final Energy:  -321.06519294214013

   => Energetics <=

    Nuclear Repulsion Energy =             52.1963636291551296
    One-Electron Energy =                -530.7209028251893415
    Two-Electron Energy =                 179.5146996199302407
    DFT Exchange-Correlation Energy =     -22.0553533660361758
    Empirical Dispersion Energy =           0.0000000000000000
    VV10 Nonlocal Energy =                  0.0000000000000000
    Total Energy =                       -321.0651929421401292

  UHF NO Occupations:
  HONO-2 :    1B1g 1.0000000
  HONO-1 :    3B2u 1.0000000
  HONO-0 :    2B3u 1.0000000
  LUNO+0 :    4B2u 0.0000401
  LUNO+1 :    5 Ag 0.0000196
  LUNO+2 :    6 Ag 0.0000094
  LUNO+3 :    3B3u 0.0000057


Computation Completed


Properties will be evaluated at   0.000000,   0.000000,   0.000000 [a0]

Properties computed using the SCF density matrix


 Multipole Moments:

 ------------------------------------------------------------------------------------
     Multipole            Electronic (a.u.)      Nuclear  (a.u.)        Total (a.u.)
 ------------------------------------------------------------------------------------

 L = 1.  Multiply by 2.5417464519 to convert [e a0] to [Debye]
 Dipole X            :          0.0000000            0.0000000            0.0000000
 Dipole Y            :          0.0000000            0.0000000            0.0000000
 Dipole Z            :          0.0000000            0.0000000            0.0000000
 Magnitude           :                                                    0.0000000

 ------------------------------------------------------------------------------------

*** tstop() called on Joses-MacBook-Pro-2.local at Thu Jul 17 14:45:07 2025
Module time:
	user time   =       5.06 seconds =       0.08 minutes
	system time =       3.33 seconds =       0.06 minutes
	total time  =          1 seconds =       0.02 minutes
Total time:
	user time   =      30.73 seconds =       0.51 minutes
	system time =      20.59 seconds =       0.34 minutes
	total time  =          5 seconds =       0.08 minutes

*** tstart() called on Joses-MacBook-Pro-2.local
*** at Thu Jul 17 14:45:07 2025


         ------------------------------------------------------------
                                   SCF GRAD                          
                          Rob Parrish, Justin Turney,                
                       Andy Simmonett, and Alex Sokolov              
         ------------------------------------------------------------

  ==> Geometry <==

    Molecular point group: d2h
    Full point group: D_inf_h

    Geometry (in Angstrom), charge = 1, multiplicity = 6:

       Center              X                  Y                   Z               Mass       
    ------------   -----------------  -----------------  -----------------  -----------------
         NA          -0.000000000000     0.613361142799     0.000000000000    22.989769282000
         NA           0.000000000000    -0.613361142799     0.000000000000    22.989769282000

  Nuclear repulsion =   52.196363629155130

  ==> Basis Set <==

  Basis Set: CC-PVDZ
    Blend: CC-PVDZ
    Number of shells: 16
    Number of basis functions: 36
    Number of Cartesian functions: 38
    Spherical Harmonics?: true
    Max angular momentum: 2

  ==> DFJKGrad: Density-Fitted SCF Gradients <==

    Gradient:                    1
    J tasked:                  Yes
    K tasked:                  Yes
    wK tasked:                  No
    OpenMP threads:              1
    Integrals threads:           1
    Memory [MiB]:              375
    Schwarz Cutoff:          1E-12
    Fitting Condition:       1E-10

   => Auxiliary Basis Set <=

  Basis Set: (CC-PVDZ AUX)
    Blend: DEF2-UNIVERSAL-JKFIT
    Number of shells: 68
    Number of basis functions: 224
    Number of Cartesian functions: 274
    Spherical Harmonics?: true
    Max angular momentum: 4

  ==> DFT Potential <==

   => LibXC <=

    Version 6.2.2
    S. Lehtola, C. Steigemann, M. J.T. Oliveira, and M. A.L. Marques.,  SoftwareX 7, 1–5 (2018) (10.1016/j.softx.2017.11.002)

   => Composite Functional: B3LYP <= 

    B3LYP Hyb-GGA Exchange-Correlation Functional

    P. J. Stephens, F. J. Devlin, C. F. Chabalowski, and M. J. Frisch.,  J. Phys. Chem. 98, 11623 (1994) (10.1021/j100096a001)

    Deriv               =              1
    GGA                 =           TRUE
    Meta                =          FALSE

    Exchange Hybrid     =           TRUE
    MP2 Hybrid          =          FALSE

   => Exchange Functionals <=

    0.0800   Slater exchange
    0.7200         Becke 88

   => Exact (HF) Exchange <=

    0.2000               HF 

   => Correlation Functionals <=

    0.1900   Vosko, Wilk & Nusair (VWN5_RPA)
    0.8100   Lee, Yang & Parr

   => LibXC Density Thresholds  <==

    XC_HYB_GGA_XC_B3LYP:  1.00E-15 

   => Molecular Quadrature <=

    Radial Scheme          =       TREUTLER
    Pruning Scheme         =           NONE
    Nuclear Scheme         =       TREUTLER

    Blocking Scheme        =         OCTREE
    BS radius alpha        =              1
    Pruning alpha          =              1
    Radial Points          =             75
    Spherical Points       =            302
    Total Points           =          42972
    Total Blocks           =            460
    Max Points             =            256
    Max Functions          =             36
    Weights Tolerance      =       1.00E-15


  -Total Gradient:
     Atom            X                  Y                   Z
    ------   -----------------  -----------------  -----------------
       1        0.000000000000    -0.911143610769     0.000000000000
       2       -0.000000000000     0.911143610769     0.000000000000


*** tstop() called on Joses-MacBook-Pro-2.local at Thu Jul 17 14:45:07 2025
Module time:
	user time   =       1.91 seconds =       0.03 minutes
	system time =       2.88 seconds =       0.05 minutes
	total time  =          0 seconds =       0.00 minutes
Total time:
	user time   =      32.64 seconds =       0.54 minutes
	system time =      23.47 seconds =       0.39 minutes
	total time  =          5 seconds =       0.08 minutes

    			-----------------------------------------

    			 OPTKING 3.0: for geometry optimizations 

    			     By R.A. King, Bethel University     

    			        with contributions from          

    			    A.V. Copan, J. Cayton, A. Heide      

    			-----------------------------------------

    
	                            ===> Fragment 1 <== 

	 Z (Atomic Numbers)          Masses                          Geom                  
	      11.000000            22.989769         -0.00000000  1.15908458  0.00000000   
	      11.000000            22.989769          0.00000000 -1.15908458  0.00000000   

	 - Coordinate -           - BOHR/RAD -       - ANG/DEG -
	 R(1,2)           =         2.318169           1.226722


	        --- Internal Coordinate Step in ANG or DEG, aJ/ANG or AJ/DEG ---
	-------------------------------------------------------------------------------
	           Coordinate      Previous         Force          Change          New 
	           ----------      --------        ------          ------        ------
	               R(1,2)       1.22672        7.50666        0.13275       1.35947
	-------------------------------------------------------------------------------

	                                 ==> Convergence Check <==                                  
    
	Measures of convergence in internal coordinates in au.
    
	Criteria marked as inactive (o), active & met (*), and active & unmet ( ).

	----------------------------------------------------------------------------------------------
	   Step    Total Energy     Delta E     Max Force     RMS Force      Max Disp      RMS Disp   
	----------------------------------------------------------------------------------------------
	  Convergence Criteria     1.00e-06 *    3.00e-04 *             o    1.20e-03 *             o
	----------------------------------------------------------------------------------------------
	     4    -321.06519294   -3.47e-02      9.11e-01      9.11e-01 o    2.51e-01      2.51e-01 o  ~
	----------------------------------------------------------------------------------------------

Next Geometry in Ang 
	Fragment 1 (Ang)

	   Na  -0.0000000000   0.6797365484   0.0000000000
	   Na   0.0000000000  -0.6797365484   0.0000000000


    Structure for next step:
    Molecular point group: d2h
    Full point group: D_inf_h

    Geometry (in Angstrom), charge = 1, multiplicity = 6:

    NA          -0.000000000000     0.679736548362     0.000000000000
    NA           0.000000000000    -0.679736548362     0.000000000000


Scratch directory: /tmp/
gradient() will perform analytic gradient computation.
   => Libint2 <=

    Primary   basis highest AM E, G, H:  6, 6, 3
    Auxiliary basis highest AM E, G, H:  7, 7, 4
    Onebody   basis highest AM E, G, H:  -, -, -
    Solid Harmonics ordering:            Gaussian

*** tstart() called on Joses-MacBook-Pro-2.local
*** at Thu Jul 17 14:45:07 2025

   => Loading Basis Set <=

    Name: CC-PVDZ
    Role: ORBITAL
    Keyword: BASIS
    atoms 1-2 entry NA         line   288 file /Users/joseantoniorodriguesromero/anaconda3/share/psi4/basis/cc-pvdz.gbs 


         ---------------------------------------------------------
                                   SCF
               by Justin Turney, Rob Parrish, Andy Simmonett
                          and Daniel G. A. Smith
                              UKS Reference
                        1 Threads,    500 MiB Core
         ---------------------------------------------------------

  ==> Geometry <==

    Molecular point group: d2h
    Full point group: D_inf_h

    Geometry (in Angstrom), charge = 1, multiplicity = 6:

       Center              X                  Y                   Z               Mass       
    ------------   -----------------  -----------------  -----------------  -----------------
         NA          -0.000000000000     0.679736548362     0.000000000000    22.989769282000
         NA           0.000000000000    -0.679736548362     0.000000000000    22.989769282000

  Running in d2h symmetry.

  Rotational constants: A = ************  B =      0.79351  C =      0.79351 [cm^-1]
  Rotational constants: A = ************  B =  23788.73493  C =  23788.73493 [MHz]
  Nuclear repulsion =   47.099455403221683

  Charge       = 1
  Multiplicity = 6
  Electrons    = 21
  Nalpha       = 13
  Nbeta        = 8

  ==> Algorithm <==

  SCF Algorithm Type is DF.
  DIIS enabled.
  MOM disabled.
  Fractional occupation disabled.
  Guess Type is READ.
  Energy threshold   = 1.00e-08
  Density threshold  = 1.00e-08
  Integral threshold = 1.00e-12

  ==> Primary Basis <==

  Basis Set: CC-PVDZ
    Blend: CC-PVDZ
    Number of shells: 16
    Number of basis functions: 36
    Number of Cartesian functions: 38
    Spherical Harmonics?: true
    Max angular momentum: 2

  ==> DFT Potential <==

   => LibXC <=

    Version 6.2.2
    S. Lehtola, C. Steigemann, M. J.T. Oliveira, and M. A.L. Marques.,  SoftwareX 7, 1–5 (2018) (10.1016/j.softx.2017.11.002)

   => Composite Functional: B3LYP <= 

    B3LYP Hyb-GGA Exchange-Correlation Functional

    P. J. Stephens, F. J. Devlin, C. F. Chabalowski, and M. J. Frisch.,  J. Phys. Chem. 98, 11623 (1994) (10.1021/j100096a001)

    Deriv               =              1
    GGA                 =           TRUE
    Meta                =          FALSE

    Exchange Hybrid     =           TRUE
    MP2 Hybrid          =          FALSE

   => Exchange Functionals <=

    0.0800   Slater exchange
    0.7200         Becke 88

   => Exact (HF) Exchange <=

    0.2000               HF 

   => Correlation Functionals <=

    0.1900   Vosko, Wilk & Nusair (VWN5_RPA)
    0.8100   Lee, Yang & Parr

   => LibXC Density Thresholds  <==

    XC_HYB_GGA_XC_B3LYP:  1.00E-15 

   => Molecular Quadrature <=

    Radial Scheme          =       TREUTLER
    Pruning Scheme         =           NONE
[...]

	                                 ==> Convergence Check <==                                  
    
	Measures of convergence in internal coordinates in au.
    
	Criteria marked as inactive (o), active & met (*), and active & unmet ( ).

	----------------------------------------------------------------------------------------------
	   Step    Total Energy     Delta E     Max Force     RMS Force      Max Disp      RMS Disp   
	----------------------------------------------------------------------------------------------
	  Convergence Criteria     1.00e-06 *    3.00e-04 *             o    1.20e-03 *             o
	----------------------------------------------------------------------------------------------
	    14    -321.63860847   -1.87e-06      1.22e-04 *    1.22e-04 o    1.78e-03      1.78e-03 o  ~
	----------------------------------------------------------------------------------------------

Next Geometry in Ang 
	Fragment 1 (Ang)

	   Na  -0.0000000000   1.3168254386   0.0000000000
	   Na   0.0000000000  -1.3168254386   0.0000000000


    Structure for next step:
    Molecular point group: d2h
    Full point group: D_inf_h

    Geometry (in Angstrom), charge = 1, multiplicity = 6:

    NA          -0.000000000000     1.316825438551     0.000000000000
    NA           0.000000000000    -1.316825438551     0.000000000000


Scratch directory: /tmp/
gradient() will perform analytic gradient computation.
   => Libint2 <=

    Primary   basis highest AM E, G, H:  6, 6, 3
    Auxiliary basis highest AM E, G, H:  7, 7, 4
    Onebody   basis highest AM E, G, H:  -, -, -
    Solid Harmonics ordering:            Gaussian

*** tstart() called on Joses-MacBook-Pro-2.local
*** at Thu Jul 17 14:45:28 2025

   => Loading Basis Set <=

    Name: CC-PVDZ
    Role: ORBITAL
    Keyword: BASIS
    atoms 1-2 entry NA         line   288 file /Users/joseantoniorodriguesromero/anaconda3/share/psi4/basis/cc-pvdz.gbs 


         ---------------------------------------------------------
                                   SCF
               by Justin Turney, Rob Parrish, Andy Simmonett
                          and Daniel G. A. Smith
                              UKS Reference
                        1 Threads,    500 MiB Core
         ---------------------------------------------------------

  ==> Geometry <==

    Molecular point group: d2h
    Full point group: D_inf_h

    Geometry (in Angstrom), charge = 1, multiplicity = 6:

       Center              X                  Y                   Z               Mass       
    ------------   -----------------  -----------------  -----------------  -----------------
         NA          -0.000000000000     1.316825438551     0.000000000000    22.989769282000
         NA           0.000000000000    -1.316825438551     0.000000000000    22.989769282000

  Running in d2h symmetry.

  Rotational constants: A = ************  B =      0.21143  C =      0.21143 [cm^-1]
  Rotational constants: A = ************  B =   6338.64129  C =   6338.64129 [MHz]
  Nuclear repulsion =   24.312426163917191

  Charge       = 1
  Multiplicity = 6
  Electrons    = 21
  Nalpha       = 13
  Nbeta        = 8

  ==> Algorithm <==

  SCF Algorithm Type is DF.
  DIIS enabled.
  MOM disabled.
  Fractional occupation disabled.
  Guess Type is READ.
  Energy threshold   = 1.00e-08
  Density threshold  = 1.00e-08
  Integral threshold = 1.00e-12

  ==> Primary Basis <==

  Basis Set: CC-PVDZ
    Blend: CC-PVDZ
    Number of shells: 16
    Number of basis functions: 36
    Number of Cartesian functions: 38
    Spherical Harmonics?: true
    Max angular momentum: 2

  ==> DFT Potential <==

   => LibXC <=

    Version 6.2.2
    S. Lehtola, C. Steigemann, M. J.T. Oliveira, and M. A.L. Marques.,  SoftwareX 7, 1–5 (2018) (10.1016/j.softx.2017.11.002)

   => Composite Functional: B3LYP <= 

    B3LYP Hyb-GGA Exchange-Correlation Functional

    P. J. Stephens, F. J. Devlin, C. F. Chabalowski, and M. J. Frisch.,  J. Phys. Chem. 98, 11623 (1994) (10.1021/j100096a001)

    Deriv               =              1
    GGA                 =           TRUE
    Meta                =          FALSE

    Exchange Hybrid     =           TRUE
    MP2 Hybrid          =          FALSE

   => Exchange Functionals <=

    0.0800   Slater exchange
    0.7200         Becke 88

   => Exact (HF) Exchange <=

    0.2000               HF 

   => Correlation Functionals <=

    0.1900   Vosko, Wilk & Nusair (VWN5_RPA)
    0.8100   Lee, Yang & Parr

   => LibXC Density Thresholds  <==

    XC_HYB_GGA_XC_B3LYP:  1.00E-15 

   => Molecular Quadrature <=

    Radial Scheme          =       TREUTLER
    Pruning Scheme         =           NONE
    Nuclear Scheme         =       TREUTLER

    Blocking Scheme        =         OCTREE
    BS radius alpha        =              1
    Pruning alpha          =              1
    Radial Points          =             75
    Spherical Points       =            302
    Total Points           =          43038
    Total Blocks           =            448
    Max Points             =            255
    Max Functions          =             36
    Weights Tolerance      =       1.00E-15

   => Loading Basis Set <=

    Name: (CC-PVDZ AUX)
    Role: JKFIT
    Keyword: DF_BASIS_SCF
    atoms 1-2 entry NA         line   498 file /Users/joseantoniorodriguesromero/anaconda3/share/psi4/basis/def2-universal-jkfit.gbs 

   => Loading Basis Set <=

    Name: CC-PVDZ
    Role: ORBITAL
    Keyword: BASIS
    atoms 1-2 entry NA         line   288 file /Users/joseantoniorodriguesromero/anaconda3/share/psi4/basis/cc-pvdz.gbs 

  Reading orbitals from file /tmp/sextet_NaNa.default.74847.180.npy, no projection.

  ==> Integral Setup <==

  DFHelper Memory: AOs need 0.003 GiB; user supplied 0.320 GiB. 
  Using in-core AOs.

  ==> MemDFJK: Density-Fitted J/K Matrices <==

    J tasked:                   Yes
    K tasked:                   Yes
    wK tasked:                   No
    OpenMP threads:               1
    Memory [MiB]:               328
    Algorithm:                 Core
    Schwarz Cutoff:           1E-12
    Mask sparsity (%):       0.0000
    Fitting Condition:        1E-10

   => Auxiliary Basis Set <=

  Basis Set: (CC-PVDZ AUX)
    Blend: DEF2-UNIVERSAL-JKFIT
    Number of shells: 68
    Number of basis functions: 224
    Number of Cartesian functions: 274
    Spherical Harmonics?: true
    Max angular momentum: 4

  Cached 100.0% of DFT collocation blocks in 0.046 [GiB].

  Minimum eigenvalue in the overlap matrix is 4.9146817955E-04.
  Reciprocal condition number of the overlap matrix is 1.2906406042E-04.
    Using symmetric orthogonalization.

  ==> Pre-Iterations <==

  SCF Guess: Orbitals guess was supplied from a previous computation.

   -------------------------------------------------------
    Irrep   Nso     Nmo     Nalpha   Nbeta   Ndocc  Nsocc
   -------------------------------------------------------
     Ag         9       9       4       3       3       1
     B1g        4       4       1       0       0       1
     B2g        1       1       0       0       0       0
     B3g        4       4       1       1       1       0
     Au         1       1       0       0       0       0
     B1u        4       4       1       1       1       0
     B2u        9       9       4       2       2       2
     B3u        4       4       2       1       1       1
   -------------------------------------------------------
    Total      36      36      13       8       8       5
   -------------------------------------------------------

  ==> Iterations <==

                           Total Energy        Delta E     RMS |[F,P]|

   @DF-UKS iter   0:  -321.63942140540928   -3.21639e+02   1.16388e-04 
   @DF-UKS iter   1:  -321.63860862240489    8.12783e-04   4.54179e-06 DIIS
   @DF-UKS iter   2:  -321.63860862608567   -3.68078e-09   3.44275e-07 DIIS/DAMP=1%
   @DF-UKS iter   3:  -321.63860867499545   -4.89098e-08   7.85509e-08 DIIS/DAMP=1%
   @DF-UKS iter   4:  -321.63860862887651    4.61189e-08   8.05431e-09 DIIS/DAMP=1%
   @DF-UKS iter   5:  -321.63860862578883    3.08768e-09   4.90646e-10 DIIS/DAMP=1%
  Energy and wave function converged.


  ==> Post-Iterations <==

   Electrons on quadrature grid:
      Nalpha   =   13.0000020583 ; deviation = 2.058e-06
      Nbeta    =    8.0000014967 ; deviation = 1.497e-06
      Ntotal   =   21.0000035550 ; deviation = 3.555e-06 

   @Spin Contamination Metric:   1.329976651E-04
   @S^2 Expected:                8.750000000E+00
   @S^2 Observed:                8.750132998E+00
   @S   Expected:                2.500000000E+00
   @S   Observed:                2.500000000E+00

    Orbital Energies [Eh]
    ---------------------

    Alpha Occupied:                                                       

       1B2u  -39.927466     1Ag   -39.927448     2B2u   -3.237420  
       2Ag    -3.234801     3Ag    -2.193173     3B2u   -2.188086  
       1B3u   -2.184616     1B1g   -2.184402     1B1u   -2.126549  
       1B3g   -2.126288     4Ag    -0.517547     4B2u   -0.358278  
       2B3u   -0.321273  

    Alpha Virtual:                                                        

       2B1u   -0.270526     5Ag    -0.254371     2B1g   -0.189492  
       2B3g   -0.185069     6Ag    -0.122015     5B2u   -0.113268  
       1B2g   -0.101234     3B3u   -0.097301     7Ag    -0.096233  
       3B1u   -0.095521     8Ag    -0.067851     6B2u   -0.063585  
       4B1u   -0.052355     4B3u   -0.051147     3B3g   -0.047872  
       3B1g   -0.046558     1Au    -0.014021     7B2u   -0.012548  
       8B2u   -0.010422     9Ag     0.026639     4B1g    0.086272  
       4B3g    0.088539     9B2u    1.246907  

    Beta Occupied:                                                        

       1Ag   -39.885050     1B2u  -39.885046     2B2u   -3.120682  
       2Ag    -3.119930     1B1u   -2.081976     1B3g   -2.081698  
       3Ag    -1.996229     1B3u   -1.987448  

    Beta Virtual:                                                         

       3B2u   -1.950371     1B1g   -1.947443     4Ag    -0.387828  
       4B2u   -0.277326     2B1u   -0.224075     2B3u   -0.204528  
       5Ag    -0.197291     2B3g   -0.151887     2B1g   -0.136727  
       6Ag    -0.093821     5B2u   -0.086498     3B1u   -0.075199  
       3B3u   -0.067130     7Ag    -0.057570     1B2g   -0.048518  
       8Ag    -0.046837     6B2u   -0.042711     3B3g   -0.041876  
       3B1g   -0.035017     4B1u   -0.022051     4B3u   -0.010809  
       7B2u   -0.001396     1Au     0.026476     8B2u    0.028624  
       9Ag     0.055146     4B3g    0.121789     4B1g    0.136438  
       9B2u    1.284334  

    Final Occupation by Irrep:
             Ag   B1g   B2g   B3g    Au   B1u   B2u   B3u 
    DOCC [     3,    0,    0,    1,    0,    1,    2,    1 ]
    SOCC [     1,    1,    0,    0,    0,    0,    2,    1 ]
    NA   [     4,    1,    0,    1,    0,    1,    4,    2 ]
    NB   [     3,    0,    0,    1,    0,    1,    2,    1 ]

  @DF-UKS Final Energy:  -321.63860862578883

   => Energetics <=

    Nuclear Repulsion Energy =             24.3124261639171912
    One-Electron Energy =                -481.5917021811393397
    Two-Electron Energy =                 157.4631793459197695
    DFT Exchange-Correlation Energy =     -21.8225119544864690
    Empirical Dispersion Energy =           0.0000000000000000
    VV10 Nonlocal Energy =                  0.0000000000000000
    Total Energy =                       -321.6386086257888337

  UHF NO Occupations:
  HONO-2 :    2B3u 1.0000000
  HONO-1 :    4B2u 1.0000000
  HONO-0 :    1B1g 1.0000000
  LUNO+0 :    5 Ag 0.0000481
  LUNO+1 :    5B2u 0.0000099
  LUNO+2 :    3B3u 0.0000048
  LUNO+3 :    2B3g 0.0000016


Computation Completed


Properties will be evaluated at   0.000000,   0.000000,   0.000000 [a0]

Properties computed using the SCF density matrix


 Multipole Moments:

 ------------------------------------------------------------------------------------
     Multipole            Electronic (a.u.)      Nuclear  (a.u.)        Total (a.u.)
 ------------------------------------------------------------------------------------

 L = 1.  Multiply by 2.5417464519 to convert [e a0] to [Debye]
 Dipole X            :          0.0000000            0.0000000            0.0000000
 Dipole Y            :          0.0000000            0.0000000            0.0000000
 Dipole Z            :          0.0000000            0.0000000            0.0000000
 Magnitude           :                                                    0.0000000

 ------------------------------------------------------------------------------------

*** tstop() called on Joses-MacBook-Pro-2.local at Thu Jul 17 14:45:29 2025
Module time:
	user time   =       9.10 seconds =       0.15 minutes
	system time =       3.28 seconds =       0.05 minutes
	total time  =          1 seconds =       0.02 minutes
Total time:
	user time   =     180.00 seconds =       3.00 minutes
	system time =      87.39 seconds =       1.46 minutes
	total time  =         27 seconds =       0.45 minutes

*** tstart() called on Joses-MacBook-Pro-2.local
*** at Thu Jul 17 14:45:29 2025


         ------------------------------------------------------------
                                   SCF GRAD                          
                          Rob Parrish, Justin Turney,                
                       Andy Simmonett, and Alex Sokolov              
         ------------------------------------------------------------

  ==> Geometry <==

    Molecular point group: d2h
    Full point group: D_inf_h

    Geometry (in Angstrom), charge = 1, multiplicity = 6:

       Center              X                  Y                   Z               Mass       
    ------------   -----------------  -----------------  -----------------  -----------------
         NA          -0.000000000000     1.316825438551     0.000000000000    22.989769282000
         NA           0.000000000000    -1.316825438551     0.000000000000    22.989769282000

  Nuclear repulsion =   24.312426163917191

  ==> Basis Set <==

  Basis Set: CC-PVDZ
    Blend: CC-PVDZ
    Number of shells: 16
    Number of basis functions: 36
    Number of Cartesian functions: 38
    Spherical Harmonics?: true
    Max angular momentum: 2

  ==> DFJKGrad: Density-Fitted SCF Gradients <==

    Gradient:                    1
    J tasked:                  Yes
    K tasked:                  Yes
    wK tasked:                  No
    OpenMP threads:              1
    Integrals threads:           1
    Memory [MiB]:              375
    Schwarz Cutoff:          1E-12
    Fitting Condition:       1E-10

   => Auxiliary Basis Set <=

  Basis Set: (CC-PVDZ AUX)
    Blend: DEF2-UNIVERSAL-JKFIT
    Number of shells: 68
    Number of basis functions: 224
    Number of Cartesian functions: 274
    Spherical Harmonics?: true
    Max angular momentum: 4

  ==> DFT Potential <==

   => LibXC <=

    Version 6.2.2
    S. Lehtola, C. Steigemann, M. J.T. Oliveira, and M. A.L. Marques.,  SoftwareX 7, 1–5 (2018) (10.1016/j.softx.2017.11.002)

   => Composite Functional: B3LYP <= 

    B3LYP Hyb-GGA Exchange-Correlation Functional

    P. J. Stephens, F. J. Devlin, C. F. Chabalowski, and M. J. Frisch.,  J. Phys. Chem. 98, 11623 (1994) (10.1021/j100096a001)

    Deriv               =              1
    GGA                 =           TRUE
    Meta                =          FALSE

    Exchange Hybrid     =           TRUE
    MP2 Hybrid          =          FALSE

   => Exchange Functionals <=

    0.0800   Slater exchange
    0.7200         Becke 88

   => Exact (HF) Exchange <=

    0.2000               HF 

   => Correlation Functionals <=

    0.1900   Vosko, Wilk & Nusair (VWN5_RPA)
    0.8100   Lee, Yang & Parr

   => LibXC Density Thresholds  <==

    XC_HYB_GGA_XC_B3LYP:  1.00E-15 

   => Molecular Quadrature <=

    Radial Scheme          =       TREUTLER
    Pruning Scheme         =           NONE
    Nuclear Scheme         =       TREUTLER

    Blocking Scheme        =         OCTREE
    BS radius alpha        =              1
    Pruning alpha          =              1
    Radial Points          =             75
    Spherical Points       =            302
    Total Points           =          43038
    Total Blocks           =            448
    Max Points             =            255
    Max Functions          =             36
    Weights Tolerance      =       1.00E-15


  -Total Gradient:
     Atom            X                  Y                   Z
    ------   -----------------  -----------------  -----------------
       1        0.000000000000    -0.000034350002     0.000000000000
       2       -0.000000000000     0.000034350002     0.000000000000


*** tstop() called on Joses-MacBook-Pro-2.local at Thu Jul 17 14:45:30 2025
Module time:
	user time   =       3.14 seconds =       0.05 minutes
	system time =       2.52 seconds =       0.04 minutes
	total time  =          1 seconds =       0.02 minutes
Total time:
	user time   =     183.15 seconds =       3.05 minutes
	system time =      89.92 seconds =       1.50 minutes
	total time  =         28 seconds =       0.47 minutes

    			-----------------------------------------

    			 OPTKING 3.0: for geometry optimizations 

    			     By R.A. King, Bethel University     

    			        with contributions from          

    			    A.V. Copan, J. Cayton, A. Heide      

    			-----------------------------------------

    
	                            ===> Fragment 1 <== 

	 Z (Atomic Numbers)          Masses                          Geom                  
	      11.000000            22.989769         -0.00000000  2.48843943  0.00000000   
	      11.000000            22.989769          0.00000000 -2.48843943  0.00000000   

	 - Coordinate -           - BOHR/RAD -       - ANG/DEG -
	 R(1,2)           =         4.976879           2.633651


	        --- Internal Coordinate Step in ANG or DEG, aJ/ANG or AJ/DEG ---
	-------------------------------------------------------------------------------
	           Coordinate      Previous         Force          Change          New 
	           ----------      --------        ------          ------        ------
	               R(1,2)       2.63365        0.00028        0.00028       2.63393
	-------------------------------------------------------------------------------

	                                 ==> Convergence Check <==                                  
    
	Measures of convergence in internal coordinates in au.
    
	Criteria marked as inactive (o), active & met (*), and active & unmet ( ).

	----------------------------------------------------------------------------------------------
	   Step    Total Energy     Delta E     Max Force     RMS Force      Max Disp      RMS Disp   
	----------------------------------------------------------------------------------------------
	  Convergence Criteria     1.00e-06 *    3.00e-04 *             o    1.20e-03 *             o
	----------------------------------------------------------------------------------------------
	    15    -321.63860863   -1.52e-07 *    3.44e-05 *    3.44e-05 o    5.23e-04 *    5.23e-04 o  ~
	----------------------------------------------------------------------------------------------

Next Geometry in Ang 
	Fragment 1 (Ang)

	   Na  -0.0000000000   1.3169639386   0.0000000000
	   Na   0.0000000000  -1.3169639386   0.0000000000


    Final optimized geometry and variables:
    Molecular point group: d2h
    Full point group: D_inf_h

    Geometry (in Angstrom), charge = 1, multiplicity = 6:

    NA          -0.000000000000     1.316825438551     0.000000000000
    NA           0.000000000000    -1.316825438551     0.000000000000


    Psi4 stopped on: Thursday, 17 July 2025 02:45PM
    Psi4 wall time for execution: 0:00:28.69

*** Psi4 exiting successfully. Buy a developer a beer!
