
    -----------------------------------------------------------------------
          Psi4: An Open-Source Ab Initio Electronic Structure Package
                               Psi4 1.9.1 release

                         Git: Rev {} zzzzzzz 


    D. G. A. Smith, L. A. Burns, A. C. Simmonett, R. M. Parrish,
    M. C. Schieber, R. Galvelis, P. Kraus, H. Kruse, R. Di Remigio,
    A. Alenaizan, A. M. James, S. Lehtola, J. P. Misiewicz, M. Scheurer,
    R. A. Shaw, J. B. Schriber, Y. Xie, Z. L. Glick, D. A. Sirianni,
    J. S. O'Brien, J. M. Waldrop, A. Kumar, E. G. Hohenstein,
    B. P. Pritchard, B. R. Brooks, H. F. Schaefer III, A. Yu. Sokolov,
    K. Patkowski, A. E. DePrince III, U. Bozkaya, R. A. King,
    F. A. Evangelista, J. M. Turney, T. D. Crawford, C. D. Sherrill,
    J. Chem. Phys. 152(18) 184108 (2020). https://doi.org/10.1063/5.0006002

                            Additional Code Authors
    E. T. Seidl, C. L. Janssen, E. F. Valeev, M. L. Leininger,
    J. F. Gonthier, R. M. Richard, H. R. McAlexander, M. Saitow, X. Wang,
    P. Verma, M. H. Lechner, A. Jiang, S. Behnle, A. G. Heide,
    M. F. Herbst, and D. L. Poole

             Previous Authors, Complete List of Code Contributors,
                       and Citations for Specific Modules
    https://github.com/psi4/psi4/blob/master/codemeta.json
    https://github.com/psi4/psi4/graphs/contributors
    http://psicode.org/psi4manual/master/introduction.html#citing-psifour

    -----------------------------------------------------------------------


    Psi4 started on: Thursday, 17 July 2025 01:33PM

    Process ID: 74246
    Host:       Joses-MacBook-Pro-2.local
    PSIDATADIR: /Users/joseantoniorodriguesromero/anaconda3/share/psi4
    Memory:     500.0 MiB
    Threads:    1
    
  ==> Input File <==

--------------------------------------------------------------------------
molecule { 
1 6
B   0.00000        0.60000        0.00000
Na   0.00000       -0.60000        0.00000
}

set { 
basis              cc-pvdz
reference          uks
maxiter            500
geom_maxiter       500
DAMPING_PERCENTAGE 1
guess              SAP
}

optimize('b3lyp')
--------------------------------------------------------------------------

Scratch directory: /tmp/
gradient() will perform analytic gradient computation.
   => Libint2 <=

    Primary   basis highest AM E, G, H:  6, 6, 3
    Auxiliary basis highest AM E, G, H:  7, 7, 4
    Onebody   basis highest AM E, G, H:  -, -, -
    Solid Harmonics ordering:            Gaussian

*** tstart() called on Joses-MacBook-Pro-2.local
*** at Thu Jul 17 13:33:44 2025

   => Loading Basis Set <=

    Name: CC-PVDZ
    Role: ORBITAL
    Keyword: BASIS
    atoms 1 entry B          line   108 file /Users/joseantoniorodriguesromero/anaconda3/share/psi4/basis/cc-pvdz.gbs 
    atoms 2 entry NA         line   288 file /Users/joseantoniorodriguesromero/anaconda3/share/psi4/basis/cc-pvdz.gbs 


         ---------------------------------------------------------
                                   SCF
               by Justin Turney, Rob Parrish, Andy Simmonett
                          and Daniel G. A. Smith
                              UKS Reference
                        1 Threads,    500 MiB Core
         ---------------------------------------------------------

  ==> Geometry <==

    Molecular point group: c2v
    Full point group: C_inf_v

    Geometry (in Angstrom), charge = 1, multiplicity = 6:

       Center              X                  Y                   Z               Mass       
    ------------   -----------------  -----------------  -----------------  -----------------
         B            0.000000000000     0.000000000000     0.811425705814    11.009305360000
         NA           0.000000000000     0.000000000000    -0.388574294186    22.989769282000

  Running in c2v symmetry.

  Rotational constants: A = ************  B =      1.57256  C =      1.57256 [cm^-1]
  Rotational constants: A = ************  B =  47144.09179  C =  47144.09179 [MHz]
  Nuclear repulsion =   24.253955489041669

  Charge       = 1
  Multiplicity = 6
  Electrons    = 15
  Nalpha       = 10
  Nbeta        = 5

  ==> Algorithm <==

  SCF Algorithm Type is DF.
  DIIS enabled.
  MOM disabled.
  Fractional occupation disabled.
  Guess Type is SAP.
  Energy threshold   = 1.00e-08
  Density threshold  = 1.00e-08
  Integral threshold = 1.00e-12

  ==> Primary Basis <==

  Basis Set: CC-PVDZ
    Blend: CC-PVDZ
    Number of shells: 14
    Number of basis functions: 32
    Number of Cartesian functions: 34
    Spherical Harmonics?: true
    Max angular momentum: 2

  ==> DFT Potential <==

   => LibXC <=

    Version 6.2.2
    S. Lehtola, C. Steigemann, M. J.T. Oliveira, and M. A.L. Marques.,  SoftwareX 7, 1–5 (2018) (10.1016/j.softx.2017.11.002)

   => Composite Functional: B3LYP <= 

    B3LYP Hyb-GGA Exchange-Correlation Functional

    P. J. Stephens, F. J. Devlin, C. F. Chabalowski, and M. J. Frisch.,  J. Phys. Chem. 98, 11623 (1994) (10.1021/j100096a001)

    Deriv               =              1
    GGA                 =           TRUE
    Meta                =          FALSE

    Exchange Hybrid     =           TRUE
    MP2 Hybrid          =          FALSE

   => Exchange Functionals <=

    0.0800   Slater exchange
    0.7200         Becke 88

   => Exact (HF) Exchange <=

    0.2000               HF 

   => Correlation Functionals <=

    0.1900   Vosko, Wilk & Nusair (VWN5_RPA)
    0.8100   Lee, Yang & Parr

   => LibXC Density Thresholds  <==

    XC_HYB_GGA_XC_B3LYP:  1.00E-15 

   => Molecular Quadrature <=

    Radial Scheme          =       TREUTLER
    Pruning Scheme         =           NONE
    Nuclear Scheme         =       TREUTLER

    Blocking Scheme        =         OCTREE
    BS radius alpha        =              1
    Pruning alpha          =              1
    Radial Points          =             75
    Spherical Points       =            302
    Total Points           =          43703
    Total Blocks           =            428
    Max Points             =            253
    Max Functions          =             32
    Weights Tolerance      =       1.00E-15

   => Loading Basis Set <=

    Name: (CC-PVDZ AUX)
    Role: JKFIT
    Keyword: DF_BASIS_SCF
    atoms 1 entry B          line    71 file /Users/joseantoniorodriguesromero/anaconda3/share/psi4/basis/cc-pvdz-jkfit.gbs 
    atoms 2 entry NA         line   498 file /Users/joseantoniorodriguesromero/anaconda3/share/psi4/basis/def2-universal-jkfit.gbs 

  ==> Integral Setup <==

  DFHelper Memory: AOs need 0.002 GiB; user supplied 0.326 GiB. 
  Using in-core AOs.

  ==> MemDFJK: Density-Fitted J/K Matrices <==

    J tasked:                   Yes
    K tasked:                   Yes
    wK tasked:                   No
    OpenMP threads:               1
    Memory [MiB]:               334
    Algorithm:                 Core
    Schwarz Cutoff:           1E-12
    Mask sparsity (%):       0.0000
    Fitting Condition:        1E-10

   => Auxiliary Basis Set <=

  Basis Set: (CC-PVDZ AUX)
    Blend: CC-PVDZ-JKFIT + DEF2-UNIVERSAL-JKFIT
    Number of shells: 58
    Number of basis functions: 182
    Number of Cartesian functions: 218
    Spherical Harmonics?: true
    Max angular momentum: 4

  Cached 100.0% of DFT collocation blocks in 0.040 [GiB].

  Minimum eigenvalue in the overlap matrix is 1.9384271184E-03.
  Reciprocal condition number of the overlap matrix is 6.2305041053E-04.
    Using symmetric orthogonalization.

  ==> Pre-Iterations <==

  SCF Guess: Superposition of Atomic Potentials (doi:10.1021/acs.jctc.8b01089).

  ==> SAP guess <==

   => Molecular Quadrature <=

    Radial Scheme          =       TREUTLER
    Pruning Scheme         =           NONE
    Nuclear Scheme         =       TREUTLER

    Blocking Scheme        =         OCTREE
    BS radius alpha        =              1
    Pruning alpha          =              1
    Radial Points          =             75
    Spherical Points       =            302
    Total Points           =          43703
    Total Blocks           =            428
    Max Points             =            253
    Max Functions          =             32
    Weights Tolerance      =       1.00E-15

   -------------------------------------------------------
    Irrep   Nso     Nmo     Nalpha   Nbeta   Ndocc  Nsocc
   -------------------------------------------------------
     A1        16      16       6       4       4       2
     A2         2       2       0       0       0       0
     B1         7       7       2       0       0       2
     B2         7       7       2       1       1       1
   -------------------------------------------------------
    Total      32      32      10       5       5       5
   -------------------------------------------------------

  ==> Iterations <==

                           Total Energy        Delta E     RMS |[F,P]|

   @DF-UKS iter   1:  -184.68211347967303   -1.84682e+02   3.46323e-02 ADIIS/DIIS
   @DF-UKS iter   2:  -184.81926582691162   -1.37152e-01   9.20832e-03 ADIIS/DIIS/DAMP=1%
   @DF-UKS iter   3:  -184.83612305526191   -1.68572e-02   2.86810e-03 ADIIS/DIIS/DAMP=1%
   @DF-UKS iter   4:  -184.84454720247177   -8.42415e-03   2.81934e-04 ADIIS/DIIS/DAMP=1%
   @DF-UKS iter   5:  -184.84248631773573    2.06088e-03   1.84332e-05 DIIS/DAMP=1%
   @DF-UKS iter   6:  -184.84266024610008   -1.73928e-04   8.07212e-06 DIIS/DAMP=1%
   @DF-UKS iter   7:  -184.84264672408253    1.35220e-05   7.63394e-07 DIIS/DAMP=1%
   @DF-UKS iter   8:  -184.84265036655026   -3.64247e-06   3.19055e-08 DIIS/DAMP=1%
   @DF-UKS iter   9:  -184.84265045258562   -8.60354e-08   5.09857e-09 DIIS/DAMP=1%
   @DF-UKS iter  10:  -184.84265044778672    4.79889e-09   4.94666e-10 DIIS/DAMP=1%
  Energy and wave function converged.


  ==> Post-Iterations <==

   Electrons on quadrature grid:
      Nalpha   =   10.0000010450 ; deviation = 1.045e-06
      Nbeta    =    5.0000009736 ; deviation = 9.736e-07
      Ntotal   =   15.0000020186 ; deviation = 2.019e-06 

   @Spin Contamination Metric:   8.339183533E-05
   @S^2 Expected:                8.750000000E+00
   @S^2 Observed:                8.750083392E+00
   @S   Expected:                2.500000000E+00
   @S   Observed:                2.500000000E+00

    Orbital Energies [Eh]
    ---------------------

    Alpha Occupied:                                                       

       1A1   -39.924392     2A1    -7.193512     3A1    -3.352910  
       1B1    -2.331794     4A1    -2.269409     1B2    -2.210131  
       5A1    -0.732045     2B1    -0.570553     2B2    -0.562009  
       6A1    -0.427698  

    Alpha Virtual:                                                        

       7A1    -0.261476     3B1    -0.200119     3B2    -0.195486  
       8A1    -0.138016     9A1    -0.094200     1A2    -0.094192  
      10A1    -0.088419     4B1    -0.076946     4B2    -0.075076  
      11A1    -0.045645     5B1     0.024317     5B2     0.026985  
       6B1     0.095243     6B2     0.097085    12A1     0.118377  
      13A1     0.152170    14A1     0.416910     2A2     0.416911  
       7B1     0.420623     7B2     0.430910    15A1     0.510328  
      16A1     0.672603  

    Beta Occupied:                                                        

       1A1   -39.870564     2A1    -7.142493     3A1    -3.217608  
       4A1    -2.209311     1B2    -2.151422  

    Beta Virtual:                                                         

       1B1    -1.914471     5A1    -0.472890     2B2    -0.317136  
       2B1    -0.315617     6A1    -0.290902     7A1    -0.166889  
       3B2    -0.148604     3B1    -0.147034     8A1    -0.106920  
       9A1    -0.078232     4B2    -0.068417     4B1    -0.066220  
       1A2    -0.048585    10A1    -0.047152    11A1     0.003072  
       5B2     0.072110     5B1     0.072898     6B2     0.158708  
      12A1     0.159848     6B1     0.164727    13A1     0.214023  
       7B2     0.544353     7B1     0.549663    14A1     0.577895  
       2A2     0.577918    15A1     0.579433    16A1     0.804837  

    Final Occupation by Irrep:
             A1    A2    B1    B2 
    DOCC [     4,    0,    0,    1 ]
    SOCC [     2,    0,    2,    1 ]
    NA   [     6,    0,    2,    2 ]
    NB   [     4,    0,    0,    1 ]

  @DF-UKS Final Energy:  -184.84265044778672

   => Energetics <=

    Nuclear Repulsion Energy =             24.2539554890416689
    One-Electron Energy =                -293.7313957440388208
    Two-Electron Energy =                  99.0030406841445085
    DFT Exchange-Correlation Energy =     -14.3682508769341073
    Empirical Dispersion Energy =           0.0000000000000000
    VV10 Nonlocal Energy =                  0.0000000000000000
    Total Energy =                       -184.8426504477867240

  UHF NO Occupations:
  HONO-2 :    2 B2 1.0000000
  HONO-1 :    5 A1 1.0000000
  HONO-0 :    6 A1 1.0000000
  LUNO+0 :    7 A1 0.0000303
  LUNO+1 :    8 A1 0.0000054
  LUNO+2 :    3 B2 0.0000053
  LUNO+3 :    9 A1 0.0000006


Computation Completed


Properties will be evaluated at   0.000000,   0.000000,   0.000000 [a0]

Properties computed using the SCF density matrix


 Multipole Moments:

 ------------------------------------------------------------------------------------
     Multipole            Electronic (a.u.)      Nuclear  (a.u.)        Total (a.u.)
 ------------------------------------------------------------------------------------

 L = 1.  Multiply by 2.5417464519 to convert [e a0] to [Debye]
 Dipole X            :          0.0000000            0.0000000            0.0000000
 Dipole Y            :          0.0000000            0.0000000            0.0000000
 Dipole Z            :         -0.6479097           -0.4104272           -1.0583369
 Magnitude           :                                                    1.0583369

 ------------------------------------------------------------------------------------

*** tstop() called on Joses-MacBook-Pro-2.local at Thu Jul 17 13:33:45 2025
Module time:
	user time   =       5.31 seconds =       0.09 minutes
	system time =       4.08 seconds =       0.07 minutes
	total time  =          1 seconds =       0.02 minutes
Total time:
	user time   =       5.31 seconds =       0.09 minutes
	system time =       4.08 seconds =       0.07 minutes
	total time  =          1 seconds =       0.02 minutes

*** tstart() called on Joses-MacBook-Pro-2.local
*** at Thu Jul 17 13:33:45 2025


         ------------------------------------------------------------
                                   SCF GRAD                          
                          Rob Parrish, Justin Turney,                
                       Andy Simmonett, and Alex Sokolov              
         ------------------------------------------------------------

  ==> Geometry <==

    Molecular point group: c2v
    Full point group: C_inf_v

    Geometry (in Angstrom), charge = 1, multiplicity = 6:

       Center              X                  Y                   Z               Mass       
    ------------   -----------------  -----------------  -----------------  -----------------
         B            0.000000000000     0.000000000000     0.811425705814    11.009305360000
         NA           0.000000000000     0.000000000000    -0.388574294186    22.989769282000

  Nuclear repulsion =   24.253955489041669

  ==> Basis Set <==

  Basis Set: CC-PVDZ
    Blend: CC-PVDZ
    Number of shells: 14
    Number of basis functions: 32
    Number of Cartesian functions: 34
    Spherical Harmonics?: true
    Max angular momentum: 2

  ==> DFJKGrad: Density-Fitted SCF Gradients <==

    Gradient:                    1
    J tasked:                  Yes
    K tasked:                  Yes
    wK tasked:                  No
    OpenMP threads:              1
    Integrals threads:           1
    Memory [MiB]:              375
    Schwarz Cutoff:          1E-12
    Fitting Condition:       1E-10

   => Auxiliary Basis Set <=

  Basis Set: (CC-PVDZ AUX)
    Blend: CC-PVDZ-JKFIT + DEF2-UNIVERSAL-JKFIT
    Number of shells: 58
    Number of basis functions: 182
    Number of Cartesian functions: 218
    Spherical Harmonics?: true
    Max angular momentum: 4

  ==> DFT Potential <==

   => LibXC <=

    Version 6.2.2
    S. Lehtola, C. Steigemann, M. J.T. Oliveira, and M. A.L. Marques.,  SoftwareX 7, 1–5 (2018) (10.1016/j.softx.2017.11.002)

   => Composite Functional: B3LYP <= 

    B3LYP Hyb-GGA Exchange-Correlation Functional

    P. J. Stephens, F. J. Devlin, C. F. Chabalowski, and M. J. Frisch.,  J. Phys. Chem. 98, 11623 (1994) (10.1021/j100096a001)

    Deriv               =              1
    GGA                 =           TRUE
    Meta                =          FALSE

    Exchange Hybrid     =           TRUE
    MP2 Hybrid          =          FALSE

   => Exchange Functionals <=

    0.0800   Slater exchange
    0.7200         Becke 88

   => Exact (HF) Exchange <=

    0.2000               HF 

   => Correlation Functionals <=

    0.1900   Vosko, Wilk & Nusair (VWN5_RPA)
    0.8100   Lee, Yang & Parr

   => LibXC Density Thresholds  <==

    XC_HYB_GGA_XC_B3LYP:  1.00E-15 

   => Molecular Quadrature <=

    Radial Scheme          =       TREUTLER
    Pruning Scheme         =           NONE
    Nuclear Scheme         =       TREUTLER

    Blocking Scheme        =         OCTREE
    BS radius alpha        =              1
    Pruning alpha          =              1
    Radial Points          =             75
    Spherical Points       =            302
    Total Points           =          43703
    Total Blocks           =            428
    Max Points             =            253
    Max Functions          =             32
    Weights Tolerance      =       1.00E-15


  -Total Gradient:
     Atom            X                  Y                   Z
    ------   -----------------  -----------------  -----------------
       1        0.000000000000    -0.000000000000    -0.849550530077
       2        0.000000000000    -0.000000000000     0.849472279823


*** tstop() called on Joses-MacBook-Pro-2.local at Thu Jul 17 13:33:45 2025
Module time:
	user time   =       1.70 seconds =       0.03 minutes
	system time =       1.72 seconds =       0.03 minutes
	total time  =          0 seconds =       0.00 minutes
Total time:
	user time   =       7.02 seconds =       0.12 minutes
	system time =       5.81 seconds =       0.10 minutes
	total time  =          1 seconds =       0.02 minutes

    			-----------------------------------------

    			 OPTKING 3.0: for geometry optimizations 

    			     By R.A. King, Bethel University     

    			        with contributions from          

    			    A.V. Copan, J. Cayton, A. Heide      

    			-----------------------------------------

    
	                            ===> Fragment 1 <== 

	 Z (Atomic Numbers)          Masses                          Geom                  
	       5.000000            11.009305          0.00000000  0.00000000  1.53337236   
	      11.000000            22.989769          0.00000000  0.00000000 -0.73429900   

	 - Coordinate -           - BOHR/RAD -       - ANG/DEG -
	 R(1,2)           =         2.267671           1.200000


	        --- Internal Coordinate Step in ANG or DEG, aJ/ANG or AJ/DEG ---
	-------------------------------------------------------------------------------
	           Coordinate      Previous         Force          Change          New 
	           ----------      --------        ------          ------        ------
	               R(1,2)       1.20000        6.99889        0.10339       1.30339
	-------------------------------------------------------------------------------

	                                 ==> Convergence Check <==                                  
    
	Measures of convergence in internal coordinates in au.
    
	Criteria marked as inactive (o), active & met (*), and active & unmet ( ).

	----------------------------------------------------------------------------------------------
	   Step    Total Energy     Delta E     Max Force     RMS Force      Max Disp      RMS Disp   
	----------------------------------------------------------------------------------------------
	  Convergence Criteria     1.00e-06 *    3.00e-04 *             o    1.20e-03 *             o
	----------------------------------------------------------------------------------------------
	     1    -184.84265045   -1.85e+02      8.50e-01      8.50e-01 o    1.95e-01      1.95e-01 o  ~
	----------------------------------------------------------------------------------------------

Next Geometry in Ang 
	Fragment 1 (Ang)

	    B   0.0000000000   0.0000000000   0.8631187333
	   Na   0.0000000000   0.0000000000  -0.4402673217


    Structure for next step:
    Molecular point group: c2v
    Full point group: C_inf_v

    Geometry (in Angstrom), charge = 1, multiplicity = 6:

    B            0.000000000000     0.000000000000     0.881334124728
    NA           0.000000000000     0.000000000000    -0.422051930331


Scratch directory: /tmp/
gradient() will perform analytic gradient computation.
   => Libint2 <=

    Primary   basis highest AM E, G, H:  6, 6, 3
    Auxiliary basis highest AM E, G, H:  7, 7, 4
    Onebody   basis highest AM E, G, H:  -, -, -
    Solid Harmonics ordering:            Gaussian

*** tstart() called on Joses-MacBook-Pro-2.local
*** at Thu Jul 17 13:33:45 2025

   => Loading Basis Set <=

    Name: CC-PVDZ
    Role: ORBITAL
    Keyword: BASIS
    atoms 1 entry B          line   108 file /Users/joseantoniorodriguesromero/anaconda3/share/psi4/basis/cc-pvdz.gbs 
    atoms 2 entry NA         line   288 file /Users/joseantoniorodriguesromero/anaconda3/share/psi4/basis/cc-pvdz.gbs 


         ---------------------------------------------------------
                                   SCF
               by Justin Turney, Rob Parrish, Andy Simmonett
                          and Daniel G. A. Smith
                              UKS Reference
                        1 Threads,    500 MiB Core
         ---------------------------------------------------------

  ==> Geometry <==

    Molecular point group: c2v
    Full point group: C_inf_v

    Geometry (in Angstrom), charge = 1, multiplicity = 6:

       Center              X                  Y                   Z               Mass       
    ------------   -----------------  -----------------  -----------------  -----------------
         B            0.000000000000     0.000000000000     0.881334124728    11.009305360000
         NA           0.000000000000     0.000000000000    -0.422051930331    22.989769282000

  Running in c2v symmetry.

  Rotational constants: A = ************  B =      1.33298  C =      1.33298 [cm^-1]
  Rotational constants: A = ************  B =  39961.66966  C =  39961.66966 [MHz]
  Nuclear repulsion =   22.330104326256052

  Charge       = 1
  Multiplicity = 6
  Electrons    = 15
  Nalpha       = 10
  Nbeta        = 5

  ==> Algorithm <==

  SCF Algorithm Type is DF.
  DIIS enabled.
  MOM disabled.
  Fractional occupation disabled.
  Guess Type is READ.
  Energy threshold   = 1.00e-08
  Density threshold  = 1.00e-08
  Integral threshold = 1.00e-12

  ==> Primary Basis <==

  Basis Set: CC-PVDZ
    Blend: CC-PVDZ
    Number of shells: 14
    Number of basis functions: 32
    Number of Cartesian functions: 34
    Spherical Harmonics?: true
    Max angular momentum: 2

  ==> DFT Potential <==

   => LibXC <=

    Version 6.2.2
    S. Lehtola, C. Steigemann, M. J.T. Oliveira, and M. A.L. Marques.,  SoftwareX 7, 1–5 (2018) (10.1016/j.softx.2017.11.002)

   => Composite Functional: B3LYP <= 

    B3LYP Hyb-GGA Exchange-Correlation Functional

    P. J. Stephens, F. J. Devlin, C. F. Chabalowski, and M. J. Frisch.,  J. Phys. Chem. 98, 11623 (1994) (10.1021/j100096a001)

    Deriv               =              1
    GGA                 =           TRUE
    Meta                =          FALSE

    Exchange Hybrid     =           TRUE
    MP2 Hybrid          =          FALSE

   => Exchange Functionals <=

    0.0800   Slater exchange
    0.7200         Becke 88

   => Exact (HF) Exchange <=

    0.2000               HF 

   => Correlation Functionals <=

    0.1900   Vosko, Wilk & Nusair (VWN5_RPA)
    0.8100   Lee, Yang & Parr

   => LibXC Density Thresholds  <==

    XC_HYB_GGA_XC_B3LYP:  1.00E-15 

   => Molecular Quadrature <=

    Radial Scheme          =       TREUTLER
    Pruning Scheme         =           NONE
    Nuclear Scheme         =       TREUTLER

    Blocking Scheme        =         OCTREE
    BS radius alpha        =              1
    Pruning alpha          =              1
    Radial Points          =             75
    Spherical Points       =            302
    Total Points           =          43711
    Total Blocks           =            426
    Max Points             =            254
    Max Functions          =             32
    Weights Tolerance      =       1.00E-15

   => Loading Basis Set <=

    Name: (CC-PVDZ AUX)
    Role: JKFIT
    Keyword: DF_BASIS_SCF
    atoms 1 entry B          line    71 file /Users/joseantoniorodriguesromero/anaconda3/share/psi4/basis/cc-pvdz-jkfit.gbs 
    atoms 2 entry NA         line   498 file /Users/joseantoniorodriguesromero/anaconda3/share/psi4/basis/def2-universal-jkfit.gbs 

   => Loading Basis Set <=

    Name: CC-PVDZ
    Role: ORBITAL
    Keyword: BASIS
    atoms 1 entry B          line   108 file /Users/joseantoniorodriguesromero/anaconda3/share/psi4/basis/cc-pvdz.gbs 
    atoms 2 entry NA         line   288 file /Users/joseantoniorodriguesromero/anaconda3/share/psi4/basis/cc-pvdz.gbs 

  Reading orbitals from file /tmp/sextet_BNa.default.74246.180.npy, no projection.

  ==> Integral Setup <==

  DFHelper Memory: AOs need 0.002 GiB; user supplied 0.326 GiB. 
  Using in-core AOs.

  ==> MemDFJK: Density-Fitted J/K Matrices <==

    J tasked:                   Yes
    K tasked:                   Yes
    wK tasked:                   No
    OpenMP threads:               1
    Memory [MiB]:               334
    Algorithm:                 Core
    Schwarz Cutoff:           1E-12
    Mask sparsity (%):       0.0000
    Fitting Condition:        1E-10

   => Auxiliary Basis Set <=

  Basis Set: (CC-PVDZ AUX)
    Blend: CC-PVDZ-JKFIT + DEF2-UNIVERSAL-JKFIT
    Number of shells: 58
    Number of basis functions: 182
    Number of Cartesian functions: 218
    Spherical Harmonics?: true
    Max angular momentum: 4

  Cached 100.0% of DFT collocation blocks in 0.040 [GiB].

  Minimum eigenvalue in the overlap matrix is 1.9698775546E-03.
  Reciprocal condition number of the overlap matrix is 6.3249096495E-04.
    Using symmetric orthogonalization.

  ==> Pre-Iterations <==

  SCF Guess: Orbitals guess was supplied from a previous computation.

   -------------------------------------------------------
    Irrep   Nso     Nmo     Nalpha   Nbeta   Ndocc  Nsocc
   -------------------------------------------------------
     A1        16      16       6       4       4       2
     A2         2       2       0       0       0       0
     B1         7       7       2       0       0       2
     B2         7       7       2       1       1       1
   -------------------------------------------------------
    Total      32      32      10       5       5       5
   -------------------------------------------------------

  ==> Iterations <==

                           Total Energy        Delta E     RMS |[F,P]|

   @DF-UKS iter   0:  -185.10915958436905   -1.85109e+02   2.12794e-02 
   @DF-UKS iter   1:  -184.98315783761345    1.26002e-01   2.17364e-03 ADIIS/DIIS
   @DF-UKS iter   2:  -184.98423016661098   -1.07233e-03   1.77809e-03 ADIIS/DIIS/DAMP=1%
   @DF-UKS iter   3:  -184.98674256261529   -2.51240e-03   1.26070e-04 ADIIS/DIIS/DAMP=1%
   @DF-UKS iter   4:  -184.98560692293367    1.13564e-03   6.68814e-05 DIIS/DAMP=1%
   @DF-UKS iter   5:  -184.98565064052201   -4.37176e-05   3.19263e-06 DIIS/DAMP=1%
   @DF-UKS iter   6:  -184.98562565580792    2.49847e-05   1.06512e-06 DIIS/DAMP=1%
   @DF-UKS iter   7:  -184.98562741041388   -1.75461e-06   1.07354e-07 DIIS/DAMP=1%
   @DF-UKS iter   8:  -184.98562722343996    1.86974e-07   4.21245e-09 DIIS/DAMP=1%
   @DF-UKS iter   9:  -184.98562716016141    6.32785e-08   3.89965e-10 DIIS/DAMP=1%
   @DF-UKS iter  10:  -184.98562715941512    7.46297e-10   5.75485e-11 DIIS/DAMP=1%
  Energy and wave function converged.


  ==> Post-Iterations <==

   Electrons on quadrature grid:
      Nalpha   =   10.0000007247 ; deviation = 7.247e-07
      Nbeta    =    5.0000004522 ; deviation = 4.522e-07
      Ntotal   =   15.0000011769 ; deviation = 1.177e-06 

   @Spin Contamination Metric:   7.866282205E-05
   @S^2 Expected:                8.750000000E+00
   @S^2 Observed:                8.750078663E+00
   @S   Expected:                2.500000000E+00
   @S   Observed:                2.500000000E+00

    Orbital Energies [Eh]
    ---------------------

    Alpha Occupied:                                                       

       1A1   -39.903286     2A1    -7.128098     3A1    -3.311769  
       1B1    -2.301195     4A1    -2.227634     1B2    -2.179980  
       5A1    -0.730463     2B1    -0.534007     2B2    -0.527248  
       6A1    -0.428607  

    Alpha Virtual:                                                        

       7A1    -0.283569     3B1    -0.200254     3B2    -0.195699  
       8A1    -0.140514     9A1    -0.092570     1A2    -0.090898  
      10A1    -0.090568     4B1    -0.076936     4B2    -0.075328  
      11A1    -0.053445     5B1     0.025468     5B2     0.028177  
       6B1     0.101468     6B2     0.102979    12A1     0.114489  
      13A1     0.169246    14A1     0.438293     2A2     0.438294  
       7B1     0.444734     7B2     0.453151    15A1     0.531369  
      16A1     0.653815  

    Beta Occupied:                                                        

       1A1   -39.850912     2A1    -7.077174     3A1    -3.178369  
       4A1    -2.168074     1B2    -2.124035  

    Beta Virtual:                                                         

       1B1    -1.887640     5A1    -0.472005     2B2    -0.294078  
       2B1    -0.292300     6A1    -0.292025     7A1    -0.179642  
       3B2    -0.149506     3B1    -0.148069     8A1    -0.107456  
       9A1    -0.082550     4B2    -0.069516     4B1    -0.067515  
       1A2    -0.050572    10A1    -0.049159    11A1    -0.013974  
       5B2     0.071575     5B1     0.073220    12A1     0.157524  
       6B2     0.175729     6B1     0.181633    13A1     0.235298  
       7B2     0.569685     7B1     0.574380    14A1     0.599751  
       2A2     0.601348    15A1     0.601873    16A1     0.789134  

    Final Occupation by Irrep:
             A1    A2    B1    B2 
    DOCC [     4,    0,    0,    1 ]
    SOCC [     2,    0,    2,    1 ]
    NA   [     6,    0,    2,    2 ]
    NB   [     4,    0,    0,    1 ]

  @DF-UKS Final Energy:  -184.98562715941512

   => Energetics <=

    Nuclear Repulsion Energy =             22.3301043262560519
    One-Electron Energy =                -290.6847521731468191
    Two-Electron Energy =                  97.7086882637403562
    DFT Exchange-Correlation Energy =     -14.3396675762647128
    Empirical Dispersion Energy =           0.0000000000000000
    VV10 Nonlocal Energy =                  0.0000000000000000
    Total Energy =                       -184.9856271594151167

  UHF NO Occupations:
  HONO-2 :    2 B1 1.0000000
  HONO-1 :    2 B2 1.0000000
  HONO-0 :    6 A1 1.0000000
  LUNO+0 :    7 A1 0.0000302
  LUNO+1 :    8 A1 0.0000043
  LUNO+2 :    3 B2 0.0000043
  LUNO+3 :    9 A1 0.0000005


Computation Completed


Properties will be evaluated at   0.000000,   0.000000,   0.000000 [a0]

Properties computed using the SCF density matrix


 Multipole Moments:

 ------------------------------------------------------------------------------------
     Multipole            Electronic (a.u.)      Nuclear  (a.u.)        Total (a.u.)
 ------------------------------------------------------------------------------------

 L = 1.  Multiply by 2.5417464519 to convert [e a0] to [Debye]
 Dipole X            :          0.0000000            0.0000000            0.0000000
 Dipole Y            :          0.0000000            0.0000000            0.0000000
 Dipole Z            :         -0.9648743           -0.4457875           -1.4106619
 Magnitude           :                                                    1.4106619

 ------------------------------------------------------------------------------------

*** tstop() called on Joses-MacBook-Pro-2.local at Thu Jul 17 13:33:46 2025
Module time:
	user time   =       4.24 seconds =       0.07 minutes
	system time =       3.90 seconds =       0.06 minutes
	total time  =          1 seconds =       0.02 minutes
Total time:
	user time   =      11.47 seconds =       0.19 minutes
	system time =       9.80 seconds =       0.16 minutes
	total time  =          2 seconds =       0.03 minutes

*** tstart() called on Joses-MacBook-Pro-2.local
*** at Thu Jul 17 13:33:46 2025


         ------------------------------------------------------------
                                   SCF GRAD                          
                          Rob Parrish, Justin Turney,                
                       Andy Simmonett, and Alex Sokolov              
         ------------------------------------------------------------

  ==> Geometry <==

    Molecular point group: c2v
    Full point group: C_inf_v

    Geometry (in Angstrom), charge = 1, multiplicity = 6:

       Center              X                  Y                   Z               Mass       
    ------------   -----------------  -----------------  -----------------  -----------------
         B            0.000000000000     0.000000000000     0.881334124728    11.009305360000
         NA           0.000000000000     0.000000000000    -0.422051930331    22.989769282000

  Nuclear repulsion =   22.330104326256052

  ==> Basis Set <==

  Basis Set: CC-PVDZ
    Blend: CC-PVDZ
    Number of shells: 14
    Number of basis functions: 32
    Number of Cartesian functions: 34
    Spherical Harmonics?: true
    Max angular momentum: 2

  ==> DFJKGrad: Density-Fitted SCF Gradients <==

    Gradient:                    1
    J tasked:                  Yes
    K tasked:                  Yes
    wK tasked:                  No
    OpenMP threads:              1
    Integrals threads:           1
    Memory [MiB]:              375
    Schwarz Cutoff:          1E-12
    Fitting Condition:       1E-10

   => Auxiliary Basis Set <=

  Basis Set: (CC-PVDZ AUX)
    Blend: CC-PVDZ-JKFIT + DEF2-UNIVERSAL-JKFIT
    Number of shells: 58
    Number of basis functions: 182
    Number of Cartesian functions: 218
    Spherical Harmonics?: true
    Max angular momentum: 4

  ==> DFT Potential <==

   => LibXC <=

    Version 6.2.2
    S. Lehtola, C. Steigemann, M. J.T. Oliveira, and M. A.L. Marques.,  SoftwareX 7, 1–5 (2018) (10.1016/j.softx.2017.11.002)

   => Composite Functional: B3LYP <= 

    B3LYP Hyb-GGA Exchange-Correlation Functional

    P. J. Stephens, F. J. Devlin, C. F. Chabalowski, and M. J. Frisch.,  J. Phys. Chem. 98, 11623 (1994) (10.1021/j100096a001)

    Deriv               =              1
    GGA                 =           TRUE
    Meta                =          FALSE

    Exchange Hybrid     =           TRUE
    MP2 Hybrid          =          FALSE

   => Exchange Functionals <=

    0.0800   Slater exchange
    0.7200         Becke 88

   => Exact (HF) Exchange <=

    0.2000               HF 

   => Correlation Functionals <=

    0.1900   Vosko, Wilk & Nusair (VWN5_RPA)
    0.8100   Lee, Yang & Parr

   => LibXC Density Thresholds  <==

    XC_HYB_GGA_XC_B3LYP:  1.00E-15 

   => Molecular Quadrature <=

    Radial Scheme          =       TREUTLER
    Pruning Scheme         =           NONE
    Nuclear Scheme         =       TREUTLER

    Blocking Scheme        =         OCTREE
    BS radius alpha        =              1
    Pruning alpha          =              1
    Radial Points          =             75
    Spherical Points       =            302
    Total Points           =          43711
    Total Blocks           =            426
    Max Points             =            254
    Max Functions          =             32
    Weights Tolerance      =       1.00E-15


  -Total Gradient:
     Atom            X                  Y                   Z
    ------   -----------------  -----------------  -----------------
       1        0.000000000000     0.000000000000    -0.625586814602
       2        0.000000000000    -0.000000000000     0.625556899083


*** tstop() called on Joses-MacBook-Pro-2.local at Thu Jul 17 13:33:47 2025
Module time:
	user time   =       1.13 seconds =       0.02 minutes
	system time =       2.11 seconds =       0.04 minutes
	total time  =          1 seconds =       0.02 minutes
Total time:
	user time   =      12.61 seconds =       0.21 minutes
	system time =      11.91 seconds =       0.20 minutes
	total time  =          3 seconds =       0.05 minutes

    			-----------------------------------------

    			 OPTKING 3.0: for geometry optimizations 

    			     By R.A. King, Bethel University     

    			        with contributions from          

    			    A.V. Copan, J. Cayton, A. Heide      

    			-----------------------------------------

    
	                            ===> Fragment 1 <== 

	 Z (Atomic Numbers)          Masses                          Geom                  
	       5.000000            11.009305          0.00000000  0.00000000  1.66548012   
	      11.000000            22.989769          0.00000000  0.00000000 -0.79756256   

	 - Coordinate -           - BOHR/RAD -       - ANG/DEG -
	 R(1,2)           =         2.463043           1.303386


	        --- Internal Coordinate Step in ANG or DEG, aJ/ANG or AJ/DEG ---
	-------------------------------------------------------------------------------
	           Coordinate      Previous         Force          Change          New 
	           ----------      --------        ------          ------        ------
	               R(1,2)       1.30339        5.15391        0.14622       1.44961
	-------------------------------------------------------------------------------

	                                 ==> Convergence Check <==                                  
    
	Measures of convergence in internal coordinates in au.
    
	Criteria marked as inactive (o), active & met (*), and active & unmet ( ).

	----------------------------------------------------------------------------------------------
	   Step    Total Energy     Delta E     Max Force     RMS Force      Max Disp      RMS Disp   
	----------------------------------------------------------------------------------------------
	  Convergence Criteria     1.00e-06 *    3.00e-04 *             o    1.20e-03 *             o
	----------------------------------------------------------------------------------------------
	     2    -184.98562716   -1.43e-01      6.26e-01      6.26e-01 o    2.76e-01      2.76e-01 o  ~
	----------------------------------------------------------------------------------------------

Next Geometry in Ang 
	Fragment 1 (Ang)

	    B   0.0000000000   0.0000000000   0.9544444250
	   Na   0.0000000000   0.0000000000  -0.4951622306


    Structure for next step:
    Molecular point group: c2v
    Full point group: C_inf_v

    Geometry (in Angstrom), charge = 1, multiplicity = 6:

    B            0.000000000000     0.000000000000     0.980206753095
    NA           0.000000000000     0.000000000000    -0.469399902556


Scratch directory: /tmp/
gradient() will perform analytic gradient computation.
   => Libint2 <=

    Primary   basis highest AM E, G, H:  6, 6, 3
    Auxiliary basis highest AM E, G, H:  7, 7, 4
    Onebody   basis highest AM E, G, H:  -, -, -
    Solid Harmonics ordering:            Gaussian

*** tstart() called on Joses-MacBook-Pro-2.local
*** at Thu Jul 17 13:33:47 2025

   => Loading Basis Set <=

    Name: CC-PVDZ
    Role: ORBITAL
    Keyword: BASIS
    atoms 1 entry B          line   108 file /Users/joseantoniorodriguesromero/anaconda3/share/psi4/basis/cc-pvdz.gbs 
    atoms 2 entry NA         line   288 file /Users/joseantoniorodriguesromero/anaconda3/share/psi4/basis/cc-pvdz.gbs 


         ---------------------------------------------------------
                                   SCF
               by Justin Turney, Rob Parrish, Andy Simmonett
                          and Daniel G. A. Smith
                              UKS Reference
                        1 Threads,    500 MiB Core
         ---------------------------------------------------------

  ==> Geometry <==

    Molecular point group: c2v
    Full point group: C_inf_v

    Geometry (in Angstrom), charge = 1, multiplicity = 6:

       Center              X                  Y                   Z               Mass       
    ------------   -----------------  -----------------  -----------------  -----------------
         B            0.000000000000     0.000000000000     0.980206753095    11.009305360000
         NA           0.000000000000     0.000000000000    -0.469399902556    22.989769282000

  Running in c2v symmetry.

  Rotational constants: A = ************  B =      1.07763  C =      1.07763 [cm^-1]
  Rotational constants: A = ************  B =  32306.46331  C =  32306.46331 [MHz]
  Nuclear repulsion =   20.077685538626763

  Charge       = 1
  Multiplicity = 6
  Electrons    = 15
  Nalpha       = 10
  Nbeta        = 5

  ==> Algorithm <==

  SCF Algorithm Type is DF.
  DIIS enabled.
  MOM disabled.
  Fractional occupation disabled.
  Guess Type is READ.
  Energy threshold   = 1.00e-08
  Density threshold  = 1.00e-08
  Integral threshold = 1.00e-12

  ==> Primary Basis <==

  Basis Set: CC-PVDZ
    Blend: CC-PVDZ
    Number of shells: 14
    Number of basis functions: 32
    Number of Cartesian functions: 34
    Spherical Harmonics?: true
    Max angular momentum: 2

  ==> DFT Potential <==

   => LibXC <=

    Version 6.2.2
    S. Lehtola, C. Steigemann, M. J.T. Oliveira, and M. A.L. Marques.,  SoftwareX 7, 1–5 (2018) (10.1016/j.softx.2017.11.002)

   => Composite Functional: B3LYP <= 

    B3LYP Hyb-GGA Exchange-Correlation Functional

    P. J. Stephens, F. J. Devlin, C. F. Chabalowski, and M. J. Frisch.,  J. Phys. Chem. 98, 11623 (1994) (10.1021/j100096a001)

    Deriv               =              1
    GGA                 =           TRUE
    Meta                =          FALSE

    Exchange Hybrid     =           TRUE
    MP2 Hybrid          =          FALSE

   => Exchange Functionals <=

    0.0800   Slater exchange
    0.7200         Becke 88

   => Exact (HF) Exchange <=

    0.2000               HF 

   => Correlation Functionals <=

    0.1900   Vosko, Wilk & Nusair (VWN5_RPA)
    0.8100   Lee, Yang & Parr

   => LibXC Density Thresholds  <==

    XC_HYB_GGA_XC_B3LYP:  1.00E-15 

   => Molecular Quadrature <=

    Radial Scheme          =       TREUTLER
    Pruning Scheme         =           NONE
    Nuclear Scheme         =       TREUTLER

    Blocking Scheme        =         OCTREE
    BS radius alpha        =              1
    Pruning alpha          =              1
    Radial Points          =             75
    Spherical Points       =            302
    Total Points           =          43733
    Total Blocks           =            432
    Max Points             =            255
    Max Functions          =             32
    Weights Tolerance      =       1.00E-15

   => Loading Basis Set <=

    Name: (CC-PVDZ AUX)
    Role: JKFIT
    Keyword: DF_BASIS_SCF
    atoms 1 entry B          line    71 file /Users/joseantoniorodriguesromero/anaconda3/share/psi4/basis/cc-pvdz-jkfit.gbs 
    atoms 2 entry NA         line   498 file /Users/joseantoniorodriguesromero/anaconda3/share/psi4/basis/def2-universal-jkfit.gbs 

   => Loading Basis Set <=

    Name: CC-PVDZ
    Role: ORBITAL
    Keyword: BASIS
    atoms 1 entry B          line   108 file /Users/joseantoniorodriguesromero/anaconda3/share/psi4/basis/cc-pvdz.gbs 
    atoms 2 entry NA         line   288 file /Users/joseantoniorodriguesromero/anaconda3/share/psi4/basis/cc-pvdz.gbs 

  Reading orbitals from file /tmp/sextet_BNa.default.74246.180.npy, no projection.

  ==> Integral Setup <==

  DFHelper Memory: AOs need 0.002 GiB; user supplied 0.326 GiB. 
  Using in-core AOs.

  ==> MemDFJK: Density-Fitted J/K Matrices <==

    J tasked:                   Yes
    K tasked:                   Yes
    wK tasked:                   No
    OpenMP threads:               1
    Memory [MiB]:               334
    Algorithm:                 Core
    Schwarz Cutoff:           1E-12
    Mask sparsity (%):       0.0000
    Fitting Condition:        1E-10

   => Auxiliary Basis Set <=

  Basis Set: (CC-PVDZ AUX)
    Blend: CC-PVDZ-JKFIT + DEF2-UNIVERSAL-JKFIT
    Number of shells: 58
    Number of basis functions: 182
    Number of Cartesian functions: 218
    Spherical Harmonics?: true
    Max angular momentum: 4

  Cached 100.0% of DFT collocation blocks in 0.040 [GiB].

  Minimum eigenvalue in the overlap matrix is 1.9315700503E-03.
  Reciprocal condition number of the overlap matrix is 6.1951380041E-04.
    Using symmetric orthogonalization.

  ==> Pre-Iterations <==

  SCF Guess: Orbitals guess was supplied from a previous computation.

   -------------------------------------------------------
    Irrep   Nso     Nmo     Nalpha   Nbeta   Ndocc  Nsocc
   -------------------------------------------------------
     A1        16      16       6       4       4       2
     A2         2       2       0       0       0       0
     B1         7       7       2       0       0       2
     B2         7       7       2       1       1       1
   -------------------------------------------------------
    Total      32      32      10       5       5       5
   -------------------------------------------------------

  ==> Iterations <==

                           Total Energy        Delta E     RMS |[F,P]|

   @DF-UKS iter   0:  -185.28171693853653   -1.85282e+02   2.89696e-02 
   @DF-UKS iter   1:  -185.12037290861358    1.61344e-01   2.99016e-03 ADIIS/DIIS
   @DF-UKS iter   2:  -185.12155502093660   -1.18211e-03   2.75247e-03 ADIIS/DIIS/DAMP=1%
   @DF-UKS iter   3:  -185.12651963805448   -4.96462e-03   1.31071e-04 ADIIS/DIIS/DAMP=1%
   @DF-UKS iter   4:  -185.12499846799136    1.52117e-03   8.56078e-05 DIIS/DAMP=1%
   @DF-UKS iter   5:  -185.12502928562881   -3.08176e-05   5.65083e-06 DIIS/DAMP=1%
   @DF-UKS iter   6:  -185.12499717036536    3.21153e-05   1.63101e-06 DIIS/DAMP=1%
   @DF-UKS iter   7:  -185.12499943272275   -2.26236e-06   1.74770e-07 DIIS/DAMP=1%
   @DF-UKS iter   8:  -185.12499929086269    1.41860e-07   8.56918e-09 DIIS/DAMP=1%
   @DF-UKS iter   9:  -185.12499920884841    8.20143e-08   5.06404e-10 DIIS/DAMP=1%
   @DF-UKS iter  10:  -185.12499920416502    4.68339e-09   4.81045e-11 DIIS/DAMP=1%
  Energy and wave function converged.


  ==> Post-Iterations <==

   Electrons on quadrature grid:
      Nalpha   =   10.0000001062 ; deviation = 1.062e-07
      Nbeta    =    4.9999998616 ; deviation = -1.384e-07
      Ntotal   =   14.9999999678 ; deviation = -3.221e-08 

   @Spin Contamination Metric:   7.424892434E-05
   @S^2 Expected:                8.750000000E+00
   @S^2 Observed:                8.750074249E+00
   @S   Expected:                2.500000000E+00
   @S   Observed:                2.500000000E+00

    Orbital Energies [Eh]
    ---------------------

    Alpha Occupied:                                                       

       1A1   -39.898451     2A1    -7.071504     3A1    -3.283283  
       1B1    -2.281239     4A1    -2.192970     1B2    -2.160563  
       5A1    -0.732295     2B1    -0.493573     2B2    -0.488699  
       6A1    -0.430326  

    Alpha Virtual:                                                        

       7A1    -0.302312     3B1    -0.202894     3B2    -0.198325  
       8A1    -0.145273     9A1    -0.096073     1A2    -0.089026  
      10A1    -0.088901     4B1    -0.077223     4B2    -0.075742  
      11A1    -0.056620     5B1     0.019354     5B2     0.022164  
      12A1     0.112359     6B1     0.114010     6B2     0.115143  
      13A1     0.186113     2A2     0.459675    14A1     0.459676  
       7B1     0.476221     7B2     0.482285    15A1     0.560902  
      16A1     0.622364  

    Beta Occupied:                                                        

       1A1   -39.848350     2A1    -7.021997     3A1    -3.153368  
       4A1    -2.135688     1B2    -2.107971  

    Beta Virtual:                                                         

       1B1    -1.872204     5A1    -0.472996     6A1    -0.296532  
       2B2    -0.271473     2B1    -0.269505     7A1    -0.189334  
       3B2    -0.149681     3B1    -0.148514     8A1    -0.110019  
       9A1    -0.087016     4B2    -0.070369     4B1    -0.068823  
       1A2    -0.051881    10A1    -0.050030    11A1    -0.023636  
       5B2     0.067444     5B1     0.069589    12A1     0.159910  
       6B2     0.198245     6B1     0.203060    13A1     0.258183  
       7B2     0.604875     7B1     0.608408     2A2     0.624358  
      14A1     0.624766    15A1     0.631893    16A1     0.756683  

    Final Occupation by Irrep:
             A1    A2    B1    B2 
    DOCC [     4,    0,    0,    1 ]
    SOCC [     2,    0,    2,    1 ]
    NA   [     6,    0,    2,    2 ]
    NB   [     4,    0,    0,    1 ]

  @DF-UKS Final Energy:  -185.12499920416502

   => Energetics <=

    Nuclear Repulsion Energy =             20.0776855386267634
    One-Electron Energy =                -286.8605790744189790
    Two-Electron Energy =                  95.9527504494922283
    DFT Exchange-Correlation Energy =     -14.2948561178650646
    Empirical Dispersion Energy =           0.0000000000000000
    VV10 Nonlocal Energy =                  0.0000000000000000
    Total Energy =                       -185.1249992041650501

  UHF NO Occupations:
  HONO-2 :    6 A1 1.0000000
  HONO-1 :    2 B2 1.0000000
  HONO-0 :    2 B1 1.0000000
  LUNO+0 :    7 A1 0.0000305
  LUNO+1 :    3 B2 0.0000034
  LUNO+2 :    8 A1 0.0000028
  LUNO+3 :    9 A1 0.0000005


Computation Completed


Properties will be evaluated at   0.000000,   0.000000,   0.000000 [a0]

Properties computed using the SCF density matrix


 Multipole Moments:

 ------------------------------------------------------------------------------------
     Multipole            Electronic (a.u.)      Nuclear  (a.u.)        Total (a.u.)
 ------------------------------------------------------------------------------------

 L = 1.  Multiply by 2.5417464519 to convert [e a0] to [Debye]
 Dipole X            :          0.0000000            0.0000000            0.0000000
 Dipole Y            :          0.0000000            0.0000000            0.0000000
 Dipole Z            :         -1.3022685           -0.4957983           -1.7980668
 Magnitude           :                                                    1.7980668

 ------------------------------------------------------------------------------------

*** tstop() called on Joses-MacBook-Pro-2.local at Thu Jul 17 13:33:47 2025
Module time:
	user time   =       2.95 seconds =       0.05 minutes
	system time =       4.88 seconds =       0.08 minutes
	total time  =          0 seconds =       0.00 minutes
Total time:
	user time   =      15.59 seconds =       0.26 minutes
	system time =      16.99 seconds =       0.28 minutes
	total time  =          3 seconds =       0.05 minutes

*** tstart() called on Joses-MacBook-Pro-2.local
*** at Thu Jul 17 13:33:47 2025


         ------------------------------------------------------------
                                   SCF GRAD                          
                          Rob Parrish, Justin Turney,                
                       Andy Simmonett, and Alex Sokolov              
         ------------------------------------------------------------

  ==> Geometry <==

    Molecular point group: c2v
    Full point group: C_inf_v

    Geometry (in Angstrom), charge = 1, multiplicity = 6:

       Center              X                  Y                   Z               Mass       
    ------------   -----------------  -----------------  -----------------  -----------------
         B            0.000000000000     0.000000000000     0.980206753095    11.009305360000
         NA           0.000000000000     0.000000000000    -0.469399902556    22.989769282000

  Nuclear repulsion =   20.077685538626763

  ==> Basis Set <==

  Basis Set: CC-PVDZ
    Blend: CC-PVDZ
    Number of shells: 14
    Number of basis functions: 32
    Number of Cartesian functions: 34
    Spherical Harmonics?: true
    Max angular momentum: 2

  ==> DFJKGrad: Density-Fitted SCF Gradients <==

    Gradient:                    1
    J tasked:                  Yes
    K tasked:                  Yes
    wK tasked:                  No
    OpenMP threads:              1
    Integrals threads:           1
    Memory [MiB]:              375
    Schwarz Cutoff:          1E-12
    Fitting Condition:       1E-10

   => Auxiliary Basis Set <=

  Basis Set: (CC-PVDZ AUX)
    Blend: CC-PVDZ-JKFIT + DEF2-UNIVERSAL-JKFIT
    Number of shells: 58
    Number of basis functions: 182
    Number of Cartesian functions: 218
    Spherical Harmonics?: true
    Max angular momentum: 4

  ==> DFT Potential <==

   => LibXC <=

    Version 6.2.2
    S. Lehtola, C. Steigemann, M. J.T. Oliveira, and M. A.L. Marques.,  SoftwareX 7, 1–5 (2018) (10.1016/j.softx.2017.11.002)

   => Composite Functional: B3LYP <= 

    B3LYP Hyb-GGA Exchange-Correlation Functional

    P. J. Stephens, F. J. Devlin, C. F. Chabalowski, and M. J. Frisch.,  J. Phys. Chem. 98, 11623 (1994) (10.1021/j100096a001)

    Deriv               =              1
    GGA                 =           TRUE
    Meta                =          FALSE

    Exchange Hybrid     =           TRUE
    MP2 Hybrid          =          FALSE

   => Exchange Functionals <=

    0.0800   Slater exchange
    0.7200         Becke 88

   => Exact (HF) Exchange <=

    0.2000               HF 

   => Correlation Functionals <=

    0.1900   Vosko, Wilk & Nusair (VWN5_RPA)
    0.8100   Lee, Yang & Parr

   => LibXC Density Thresholds  <==

    XC_HYB_GGA_XC_B3LYP:  1.00E-15 

   => Molecular Quadrature <=

    Radial Scheme          =       TREUTLER
    Pruning Scheme         =           NONE
    Nuclear Scheme         =       TREUTLER

    Blocking Scheme        =         OCTREE
    BS radius alpha        =              1
    Pruning alpha          =              1
    Radial Points          =             75
    Spherical Points       =            302
    Total Points           =          43733
    Total Blocks           =            432
    Max Points             =            255
    Max Functions          =             32
    Weights Tolerance      =       1.00E-15


  -Total Gradient:
     Atom            X                  Y                   Z
    ------   -----------------  -----------------  -----------------
       1        0.000000000000     0.000000000000    -0.397014715274
       2       -0.000000000000     0.000000000000     0.396996885729


*** tstop() called on Joses-MacBook-Pro-2.local at Thu Jul 17 13:33:48 2025
Module time:
	user time   =       0.74 seconds =       0.01 minutes
	system time =       1.88 seconds =       0.03 minutes
	total time  =          1 seconds =       0.02 minutes
Total time:
	user time   =      16.34 seconds =       0.27 minutes
	system time =      18.88 seconds =       0.31 minutes
	total time  =          4 seconds =       0.07 minutes

    			-----------------------------------------

    			 OPTKING 3.0: for geometry optimizations 

    			     By R.A. King, Bethel University     

    			        with contributions from          

    			    A.V. Copan, J. Cayton, A. Heide      

    			-----------------------------------------

    
	                            ===> Fragment 1 <== 

	 Z (Atomic Numbers)          Masses                          Geom                  
	       5.000000            11.009305          0.00000000  0.00000000  1.85232231   
	      11.000000            22.989769          0.00000000  0.00000000 -0.88703726   

	 - Coordinate -           - BOHR/RAD -       - ANG/DEG -
	 R(1,2)           =         2.739360           1.449607


	        --- Internal Coordinate Step in ANG or DEG, aJ/ANG or AJ/DEG ---
	-------------------------------------------------------------------------------
	           Coordinate      Previous         Force          Change          New 
	           ----------      --------        ------          ------        ------
	               R(1,2)       1.44961        3.27082        0.19059       1.64019
	-------------------------------------------------------------------------------

	                                 ==> Convergence Check <==                                  
    
	Measures of convergence in internal coordinates in au.
    
	Criteria marked as inactive (o), active & met (*), and active & unmet ( ).

	----------------------------------------------------------------------------------------------
	   Step    Total Energy     Delta E     Max Force     RMS Force      Max Disp      RMS Disp   
	----------------------------------------------------------------------------------------------
	  Convergence Criteria     1.00e-06 *    3.00e-04 *             o    1.20e-03 *             o
	----------------------------------------------------------------------------------------------
	     3    -185.12499920   -1.39e-01      3.97e-01      3.97e-01 o    3.60e-01      3.60e-01 o  ~
	----------------------------------------------------------------------------------------------

Next Geometry in Ang 
	Fragment 1 (Ang)

	    B   0.0000000000   0.0000000000   1.0754999416
	   Na   0.0000000000   0.0000000000  -0.5646930911


    Structure for next step:
    Molecular point group: c2v
    Full point group: C_inf_v

    Geometry (in Angstrom), charge = 1, multiplicity = 6:

    B            0.000000000000     0.000000000000     1.109078991032
    NA           0.000000000000     0.000000000000    -0.531114041679


Scratch directory: /tmp/
gradient() will perform analytic gradient computation.
   => Libint2 <=

    Primary   basis highest AM E, G, H:  6, 6, 3
    Auxiliary basis highest AM E, G, H:  7, 7, 4
    Onebody   basis highest AM E, G, H:  -, -, -
    Solid Harmonics ordering:            Gaussian

*** tstart() called on Joses-MacBook-Pro-2.local
*** at Thu Jul 17 13:33:48 2025

   => Loading Basis Set <=

    Name: CC-PVDZ
    Role: ORBITAL
    Keyword: BASIS
    atoms 1 entry B          line   108 file /Users/joseantoniorodriguesromero/anaconda3/share/psi4/basis/cc-pvdz.gbs 
    atoms 2 entry NA         line   288 file /Users/joseantoniorodriguesromero/anaconda3/share/psi4/basis/cc-pvdz.gbs 


         ---------------------------------------------------------
                                   SCF
               by Justin Turney, Rob Parrish, Andy Simmonett
                          and Daniel G. A. Smith
                              UKS Reference
                        1 Threads,    500 MiB Core
         ---------------------------------------------------------

  ==> Geometry <==

    Molecular point group: c2v
    Full point group: C_inf_v

    Geometry (in Angstrom), charge = 1, multiplicity = 6:

       Center              X                  Y                   Z               Mass       
    ------------   -----------------  -----------------  -----------------  -----------------
         B            0.000000000000     0.000000000000     1.109078991032    11.009305360000
         NA           0.000000000000     0.000000000000    -0.531114041679    22.989769282000

  Running in c2v symmetry.

  Rotational constants: A = ************  B =      0.84174  C =      0.84174 [cm^-1]
  Rotational constants: A = ************  B =  25234.79844  C =  25234.79844 [MHz]
  Nuclear repulsion =   17.744708096182435

  Charge       = 1
  Multiplicity = 6
  Electrons    = 15
  Nalpha       = 10
  Nbeta        = 5

  ==> Algorithm <==

  SCF Algorithm Type is DF.
  DIIS enabled.
  MOM disabled.
  Fractional occupation disabled.
  Guess Type is READ.
  Energy threshold   = 1.00e-08
  Density threshold  = 1.00e-08
  Integral threshold = 1.00e-12

  ==> Primary Basis <==

  Basis Set: CC-PVDZ
    Blend: CC-PVDZ
    Number of shells: 14
    Number of basis functions: 32
    Number of Cartesian functions: 34
    Spherical Harmonics?: true
    Max angular momentum: 2

  ==> DFT Potential <==

   => LibXC <=

    Version 6.2.2
    S. Lehtola, C. Steigemann, M. J.T. Oliveira, and M. A.L. Marques.,  SoftwareX 7, 1–5 (2018) (10.1016/j.softx.2017.11.002)

   => Composite Functional: B3LYP <= 

    B3LYP Hyb-GGA Exchange-Correlation Functional

    P. J. Stephens, F. J. Devlin, C. F. Chabalowski, and M. J. Frisch.,  J. Phys. Chem. 98, 11623 (1994) (10.1021/j100096a001)

    Deriv               =              1
    GGA                 =           TRUE
    Meta                =          FALSE

    Exchange Hybrid     =           TRUE
    MP2 Hybrid          =          FALSE

   => Exchange Functionals <=

    0.0800   Slater exchange
    0.7200         Becke 88

   => Exact (HF) Exchange <=

    0.2000               HF 

   => Correlation Functionals <=

    0.1900   Vosko, Wilk & Nusair (VWN5_RPA)
    0.8100   Lee, Yang & Parr

   => LibXC Density Thresholds  <==

    XC_HYB_GGA_XC_B3LYP:  1.00E-15 

   => Molecular Quadrature <=

    Radial Scheme          =       TREUTLER
    Pruning Scheme         =           NONE
    Nuclear Scheme         =       TREUTLER

    Blocking Scheme        =         OCTREE
    BS radius alpha        =              1
    Pruning alpha          =              1
    Radial Points          =             75
    Spherical Points       =            302
    Total Points           =          43757
    Total Blocks           =            430
    Max Points             =            256
    Max Functions          =             32
    Weights Tolerance      =       1.00E-15

   => Loading Basis Set <=

    Name: (CC-PVDZ AUX)
    Role: JKFIT
    Keyword: DF_BASIS_SCF
    atoms 1 entry B          line    71 file /Users/joseantoniorodriguesromero/anaconda3/share/psi4/basis/cc-pvdz-jkfit.gbs 
    atoms 2 entry NA         line   498 file /Users/joseantoniorodriguesromero/anaconda3/share/psi4/basis/def2-universal-jkfit.gbs 

   => Loading Basis Set <=

    Name: CC-PVDZ
    Role: ORBITAL
    Keyword: BASIS
    atoms 1 entry B          line   108 file /Users/joseantoniorodriguesromero/anaconda3/share/psi4/basis/cc-pvdz.gbs 
    atoms 2 entry NA         line   288 file /Users/joseantoniorodriguesromero/anaconda3/share/psi4/basis/cc-pvdz.gbs 

  Reading orbitals from file /tmp/sextet_BNa.default.74246.180.npy, no projection.

  ==> Integral Setup <==

  DFHelper Memory: AOs need 0.002 GiB; user supplied 0.326 GiB. 
  Using in-core AOs.

  ==> MemDFJK: Density-Fitted J/K Matrices <==

    J tasked:                   Yes
    K tasked:                   Yes
    wK tasked:                   No
    OpenMP threads:               1
    Memory [MiB]:               334
    Algorithm:                 Core
    Schwarz Cutoff:           1E-12
    Mask sparsity (%):       0.0000
    Fitting Condition:        1E-10

   => Auxiliary Basis Set <=

  Basis Set: (CC-PVDZ AUX)
    Blend: CC-PVDZ-JKFIT + DEF2-UNIVERSAL-JKFIT
    Number of shells: 58
    Number of basis functions: 182
    Number of Cartesian functions: 218
    Spherical Harmonics?: true
    Max angular momentum: 4

  Cached 100.0% of DFT collocation blocks in 0.040 [GiB].

  Minimum eigenvalue in the overlap matrix is 1.7804249597E-03.
  Reciprocal condition number of the overlap matrix is 5.7085841366E-04.
    Using symmetric orthogonalization.

  ==> Pre-Iterations <==

  SCF Guess: Orbitals guess was supplied from a previous computation.

   -------------------------------------------------------
    Irrep   Nso     Nmo     Nalpha   Nbeta   Ndocc  Nsocc
   -------------------------------------------------------
     A1        16      16       6       4       4       2
     A2         2       2       0       0       0       0
     B1         7       7       2       0       0       2
     B2         7       7       2       1       1       1
   -------------------------------------------------------
    Total      32      32      10       5       5       5
   -------------------------------------------------------

  ==> Iterations <==

                           Total Energy        Delta E     RMS |[F,P]|

   @DF-UKS iter   0:  -185.40927455214702   -1.85409e+02   3.35954e-02 
   @DF-UKS iter   1:  -185.22431172780651    1.84963e-01   3.42369e-03 ADIIS/DIIS
   @DF-UKS iter   2:  -185.22483440059381   -5.22673e-04   3.30574e-03 ADIIS/DIIS/DAMP=1%
   @DF-UKS iter   3:  -185.23166859046935   -6.83419e-03   1.10962e-04 ADIIS/DIIS/DAMP=1%
   @DF-UKS iter   4:  -185.23003795487725    1.63064e-03   7.18672e-05 DIIS/DAMP=1%
   @DF-UKS iter   5:  -185.23006972171734   -3.17668e-05   7.66449e-06 DIIS/DAMP=1%
   @DF-UKS iter   6:  -185.23004556811694    2.41536e-05   1.97832e-06 DIIS/DAMP=1%
   @DF-UKS iter   7:  -185.23004607433631   -5.06219e-07   2.95218e-07 DIIS/DAMP=1%
   @DF-UKS iter   8:  -185.23004605008771    2.42486e-08   1.22100e-08 DIIS/DAMP=1%
   @DF-UKS iter   9:  -185.23004591475211    1.35336e-07   1.36582e-09 DIIS/DAMP=1%
   @DF-UKS iter  10:  -185.23004591584575   -1.09364e-09   9.83116e-11 DIIS/DAMP=1%
  Energy and wave function converged.


  ==> Post-Iterations <==

   Electrons on quadrature grid:
      Nalpha   =    9.9999996996 ; deviation = -3.004e-07
      Nbeta    =    4.9999996808 ; deviation = -3.192e-07
      Ntotal   =   14.9999993805 ; deviation = -6.195e-07 

   @Spin Contamination Metric:   6.403947677E-05
   @S^2 Expected:                8.750000000E+00
   @S^2 Observed:                8.750064039E+00
   @S   Expected:                2.500000000E+00
   @S   Observed:                2.500000000E+00

    Orbital Energies [Eh]
    ---------------------

    Alpha Occupied:                                                       

       1A1   -39.917169     2A1    -7.042566     3A1    -3.275713  
       1B1    -2.279067     4A1    -2.177720     1B2    -2.158880  
       5A1    -0.729902     2B1    -0.458730     2B2    -0.455481  
       6A1    -0.433320  

    Alpha Virtual:                                                        

       7A1    -0.314509     3B1    -0.209327     3B2    -0.204621  
       8A1    -0.151237     9A1    -0.098862     1A2    -0.089090  
      10A1    -0.088976     4B1    -0.077978     4B2    -0.076604  
      11A1    -0.057650     5B1     0.004445     5B2     0.007426  
      12A1     0.113714     6B1     0.127966     6B2     0.128673  
      13A1     0.195339     2A2     0.474584    14A1     0.474585  
       7B1     0.510587     7B2     0.514328    15A1     0.541730  
      16A1     0.617269  

    Beta Occupied:                                                        

       1A1   -39.869599     2A1    -6.995754     3A1    -3.149728  
       4A1    -2.124357     1B2    -2.109406  

    Beta Virtual:                                                         

       1B1    -1.874087     5A1    -0.471602     6A1    -0.304379  
       2B2    -0.255610     2B1    -0.253006     7A1    -0.197050  
       3B2    -0.150014     3B1    -0.148978     8A1    -0.115530  
       9A1    -0.090347     4B2    -0.071139     4B1    -0.069832  
       1A2    -0.054822    10A1    -0.052411    11A1    -0.028541  
       5B2     0.055527     5B1     0.057899    12A1     0.166778  
       6B2     0.217862     6B1     0.220584    13A1     0.270190  
       2A2     0.640320    14A1     0.640544    15A1     0.644642  
       7B2     0.645980     7B1     0.647936    16A1     0.719247  

    Final Occupation by Irrep:
             A1    A2    B1    B2 
    DOCC [     4,    0,    0,    1 ]
    SOCC [     2,    0,    2,    1 ]
    NA   [     6,    0,    2,    2 ]
    NB   [     4,    0,    0,    1 ]

  @DF-UKS Final Energy:  -185.23004591584575

   => Energetics <=

    Nuclear Repulsion Energy =             17.7447080961824355
    One-Electron Energy =                -282.5718492836870155
    Two-Electron Energy =                  93.8282797458248723
    DFT Exchange-Correlation Energy =     -14.2311844741660511
    Empirical Dispersion Energy =           0.0000000000000000
    VV10 Nonlocal Energy =                  0.0000000000000000
    Total Energy =                       -185.2300459158457500

  UHF NO Occupations:
  HONO-2 :    1 B1 1.0000000
  HONO-1 :    2 B1 1.0000000
  HONO-0 :    6 A1 1.0000000
  LUNO+0 :    7 A1 0.0000270
  LUNO+1 :    3 B2 0.0000027
  LUNO+2 :    8 A1 0.0000019
  LUNO+3 :    9 A1 0.0000004


Computation Completed


Properties will be evaluated at   0.000000,   0.000000,   0.000000 [a0]

Properties computed using the SCF density matrix


 Multipole Moments:

 ------------------------------------------------------------------------------------
     Multipole            Electronic (a.u.)      Nuclear  (a.u.)        Total (a.u.)
 ------------------------------------------------------------------------------------

 L = 1.  Multiply by 2.5417464519 to convert [e a0] to [Debye]
 Dipole X            :          0.0000000            0.0000000            0.0000000
 Dipole Y            :          0.0000000            0.0000000            0.0000000
 Dipole Z            :         -1.5249155           -0.5609832           -2.0858986
 Magnitude           :                                                    2.0858986

 ------------------------------------------------------------------------------------

*** tstop() called on Joses-MacBook-Pro-2.local at Thu Jul 17 13:33:48 2025
Module time:
	user time   =       2.76 seconds =       0.05 minutes
	system time =       5.45 seconds =       0.09 minutes
	total time  =          0 seconds =       0.00 minutes
Total time:
	user time   =      19.25 seconds =       0.32 minutes
	system time =      24.53 seconds =       0.41 minutes
	total time  =          4 seconds =       0.07 minutes

*** tstart() called on Joses-MacBook-Pro-2.local
*** at Thu Jul 17 13:33:48 2025


         ------------------------------------------------------------
                                   SCF GRAD                          
                          Rob Parrish, Justin Turney,                
                       Andy Simmonett, and Alex Sokolov              
         ------------------------------------------------------------

  ==> Geometry <==

    Molecular point group: c2v
    Full point group: C_inf_v

    Geometry (in Angstrom), charge = 1, multiplicity = 6:

       Center              X                  Y                   Z               Mass       
    ------------   -----------------  -----------------  -----------------  -----------------
         B            0.000000000000     0.000000000000     1.109078991032    11.009305360000
         NA           0.000000000000     0.000000000000    -0.531114041679    22.989769282000

  Nuclear repulsion =   17.744708096182435

  ==> Basis Set <==

  Basis Set: CC-PVDZ
    Blend: CC-PVDZ
    Number of shells: 14
    Number of basis functions: 32
    Number of Cartesian functions: 34
    Spherical Harmonics?: true
    Max angular momentum: 2

  ==> DFJKGrad: Density-Fitted SCF Gradients <==

    Gradient:                    1
    J tasked:                  Yes
    K tasked:                  Yes
    wK tasked:                  No
    OpenMP threads:              1
    Integrals threads:           1
    Memory [MiB]:              375
    Schwarz Cutoff:          1E-12
    Fitting Condition:       1E-10

   => Auxiliary Basis Set <=

  Basis Set: (CC-PVDZ AUX)
    Blend: CC-PVDZ-JKFIT + DEF2-UNIVERSAL-JKFIT
    Number of shells: 58
    Number of basis functions: 182
    Number of Cartesian functions: 218
    Spherical Harmonics?: true
    Max angular momentum: 4

  ==> DFT Potential <==

   => LibXC <=

    Version 6.2.2
    S. Lehtola, C. Steigemann, M. J.T. Oliveira, and M. A.L. Marques.,  SoftwareX 7, 1–5 (2018) (10.1016/j.softx.2017.11.002)

   => Composite Functional: B3LYP <= 

    B3LYP Hyb-GGA Exchange-Correlation Functional

    P. J. Stephens, F. J. Devlin, C. F. Chabalowski, and M. J. Frisch.,  J. Phys. Chem. 98, 11623 (1994) (10.1021/j100096a001)

    Deriv               =              1
    GGA                 =           TRUE
    Meta                =          FALSE

    Exchange Hybrid     =           TRUE
    MP2 Hybrid          =          FALSE

   => Exchange Functionals <=

    0.0800   Slater exchange
    0.7200         Becke 88

   => Exact (HF) Exchange <=

    0.2000               HF 

   => Correlation Functionals <=

    0.1900   Vosko, Wilk & Nusair (VWN5_RPA)
    0.8100   Lee, Yang & Parr

   => LibXC Density Thresholds  <==

    XC_HYB_GGA_XC_B3LYP:  1.00E-15 

   => Molecular Quadrature <=

    Radial Scheme          =       TREUTLER
    Pruning Scheme         =           NONE
    Nuclear Scheme         =       TREUTLER

    Blocking Scheme        =         OCTREE
    BS radius alpha        =              1
    Pruning alpha          =              1
    Radial Points          =             75
    Spherical Points       =            302
    Total Points           =          43757
    Total Blocks           =            430
    Max Points             =            256
    Max Functions          =             32
    Weights Tolerance      =       1.00E-15


  -Total Gradient:
     Atom            X                  Y                   Z
    ------   -----------------  -----------------  -----------------
       1       -0.000000000000     0.000000000000    -0.202771411667
       2        0.000000000000    -0.000000000000     0.202728362697


*** tstop() called on Joses-MacBook-Pro-2.local at Thu Jul 17 13:33:49 2025
Module time:
	user time   =       1.46 seconds =       0.02 minutes
	system time =       1.61 seconds =       0.03 minutes
	total time  =          1 seconds =       0.02 minutes
Total time:
	user time   =      20.72 seconds =       0.35 minutes
	system time =      26.15 seconds =       0.44 minutes
	total time  =          5 seconds =       0.08 minutes

    			-----------------------------------------

    			 OPTKING 3.0: for geometry optimizations 

    			     By R.A. King, Bethel University     

    			        with contributions from          

    			    A.V. Copan, J. Cayton, A. Heide      

    			-----------------------------------------

    
	                            ===> Fragment 1 <== 

	 Z (Atomic Numbers)          Masses                          Geom                  
	       5.000000            11.009305          0.00000000  0.00000000  2.09585554   
	      11.000000            22.989769          0.00000000  0.00000000 -1.00366008   

	 - Coordinate -           - BOHR/RAD -       - ANG/DEG -
	 R(1,2)           =         3.099516           1.640193


	        --- Internal Coordinate Step in ANG or DEG, aJ/ANG or AJ/DEG ---
	-------------------------------------------------------------------------------
	           Coordinate      Previous         Force          Change          New 
	           ----------      --------        ------          ------        ------
	               R(1,2)       1.64019        1.67040        0.17673       1.81693
	-------------------------------------------------------------------------------

	                                 ==> Convergence Check <==                                  
    
	Measures of convergence in internal coordinates in au.
    
	Criteria marked as inactive (o), active & met (*), and active & unmet ( ).

	----------------------------------------------------------------------------------------------
	   Step    Total Energy     Delta E     Max Force     RMS Force      Max Disp      RMS Disp   
	----------------------------------------------------------------------------------------------
	  Convergence Criteria     1.00e-06 *    3.00e-04 *             o    1.20e-03 *             o
	----------------------------------------------------------------------------------------------
	     4    -185.23004592   -1.05e-01      2.03e-01      2.03e-01 o    3.34e-01      3.34e-01 o  ~
	----------------------------------------------------------------------------------------------

Next Geometry in Ang 
	Fragment 1 (Ang)

	    B   0.0000000000   0.0000000000   1.1974451914
	   Na   0.0000000000   0.0000000000  -0.6194802420


    Structure for next step:
    Molecular point group: c2v
    Full point group: C_inf_v

    Geometry (in Angstrom), charge = 1, multiplicity = 6:

    B            0.000000000000     0.000000000000     1.228583335182
    NA           0.000000000000     0.000000000000    -0.588342098231


Scratch directory: /tmp/
gradient() will perform analytic gradient computation.
   => Libint2 <=

    Primary   basis highest AM E, G, H:  6, 6, 3
    Auxiliary basis highest AM E, G, H:  7, 7, 4
    Onebody   basis highest AM E, G, H:  -, -, -
    Solid Harmonics ordering:            Gaussian

*** tstart() called on Joses-MacBook-Pro-2.local
*** at Thu Jul 17 13:33:49 2025

   => Loading Basis Set <=

    Name: CC-PVDZ
    Role: ORBITAL
    Keyword: BASIS
    atoms 1 entry B          line   108 file /Users/joseantoniorodriguesromero/anaconda3/share/psi4/basis/cc-pvdz.gbs 
    atoms 2 entry NA         line   288 file /Users/joseantoniorodriguesromero/anaconda3/share/psi4/basis/cc-pvdz.gbs 


         ---------------------------------------------------------
                                   SCF
               by Justin Turney, Rob Parrish, Andy Simmonett
                          and Daniel G. A. Smith
                              UKS Reference
                        1 Threads,    500 MiB Core
         ---------------------------------------------------------

  ==> Geometry <==

    Molecular point group: c2v
    Full point group: C_inf_v

    Geometry (in Angstrom), charge = 1, multiplicity = 6:

       Center              X                  Y                   Z               Mass       
    ------------   -----------------  -----------------  -----------------  -----------------
         B            0.000000000000     0.000000000000     1.228583335182    11.009305360000
         NA           0.000000000000     0.000000000000    -0.588342098231    22.989769282000

  Running in c2v symmetry.

  Rotational constants: A = ************  B =      0.68595  C =      0.68595 [cm^-1]
  Rotational constants: A = ************  B =  20564.37701  C =  20564.37701 [MHz]
  Nuclear repulsion =   16.018679716632146

  Charge       = 1
  Multiplicity = 6
  Electrons    = 15
  Nalpha       = 10
  Nbeta        = 5

  ==> Algorithm <==

  SCF Algorithm Type is DF.
  DIIS enabled.
  MOM disabled.
  Fractional occupation disabled.
  Guess Type is READ.
  Energy threshold   = 1.00e-08
  Density threshold  = 1.00e-08
  Integral threshold = 1.00e-12

  ==> Primary Basis <==

  Basis Set: CC-PVDZ
    Blend: CC-PVDZ
    Number of shells: 14
    Number of basis functions: 32
    Number of Cartesian functions: 34
    Spherical Harmonics?: true
    Max angular momentum: 2

  ==> DFT Potential <==

   => LibXC <=

    Version 6.2.2
    S. Lehtola, C. Steigemann, M. J.T. Oliveira, and M. A.L. Marques.,  SoftwareX 7, 1–5 (2018) (10.1016/j.softx.2017.11.002)

   => Composite Functional: B3LYP <= 

    B3LYP Hyb-GGA Exchange-Correlation Functional

    P. J. Stephens, F. J. Devlin, C. F. Chabalowski, and M. J. Frisch.,  J. Phys. Chem. 98, 11623 (1994) (10.1021/j100096a001)

[...]
	-------------------------------------------------------------------------------

	                                 ==> Convergence Check <==                                  
    
	Measures of convergence in internal coordinates in au.
    
	Criteria marked as inactive (o), active & met (*), and active & unmet ( ).

	----------------------------------------------------------------------------------------------
	   Step    Total Energy     Delta E     Max Force     RMS Force      Max Disp      RMS Disp   
	----------------------------------------------------------------------------------------------
	  Convergence Criteria     1.00e-06 *    3.00e-04 *             o    1.20e-03 *             o
	----------------------------------------------------------------------------------------------
	    13    -185.30094586   -1.47e-06      1.12e-04 *    1.12e-04 o    2.30e-03      2.30e-03 o  ~
	----------------------------------------------------------------------------------------------

Next Geometry in Ang 
	Fragment 1 (Ang)

	    B   0.0000000000   0.0000000000   1.4624904378
	   Na   0.0000000000   0.0000000000  -0.7006716159


    Structure for next step:
    Molecular point group: c2v
    Full point group: C_inf_v

    Geometry (in Angstrom), charge = 1, multiplicity = 6:

    B            0.000000000000     0.000000000000     1.462704413485
    NA           0.000000000000     0.000000000000    -0.700457640177


Scratch directory: /tmp/
gradient() will perform analytic gradient computation.
   => Libint2 <=

    Primary   basis highest AM E, G, H:  6, 6, 3
    Auxiliary basis highest AM E, G, H:  7, 7, 4
    Onebody   basis highest AM E, G, H:  -, -, -
    Solid Harmonics ordering:            Gaussian

*** tstart() called on Joses-MacBook-Pro-2.local
*** at Thu Jul 17 13:33:59 2025

   => Loading Basis Set <=

    Name: CC-PVDZ
    Role: ORBITAL
    Keyword: BASIS
    atoms 1 entry B          line   108 file /Users/joseantoniorodriguesromero/anaconda3/share/psi4/basis/cc-pvdz.gbs 
    atoms 2 entry NA         line   288 file /Users/joseantoniorodriguesromero/anaconda3/share/psi4/basis/cc-pvdz.gbs 


         ---------------------------------------------------------
                                   SCF
               by Justin Turney, Rob Parrish, Andy Simmonett
                          and Daniel G. A. Smith
                              UKS Reference
                        1 Threads,    500 MiB Core
         ---------------------------------------------------------

  ==> Geometry <==

    Molecular point group: c2v
    Full point group: C_inf_v

    Geometry (in Angstrom), charge = 1, multiplicity = 6:

       Center              X                  Y                   Z               Mass       
    ------------   -----------------  -----------------  -----------------  -----------------
         B            0.000000000000     0.000000000000     1.462704413485    11.009305360000
         NA           0.000000000000     0.000000000000    -0.700457640177    22.989769282000

  Running in c2v symmetry.

  Rotational constants: A = ************  B =      0.48394  C =      0.48394 [cm^-1]
  Rotational constants: A = ************  B =  14508.13720  C =  14508.13720 [MHz]
  Nuclear repulsion =   13.454723162136585

  Charge       = 1
  Multiplicity = 6
  Electrons    = 15
  Nalpha       = 10
  Nbeta        = 5

  ==> Algorithm <==

  SCF Algorithm Type is DF.
  DIIS enabled.
  MOM disabled.
  Fractional occupation disabled.
  Guess Type is READ.
  Energy threshold   = 1.00e-08
  Density threshold  = 1.00e-08
  Integral threshold = 1.00e-12

  ==> Primary Basis <==

  Basis Set: CC-PVDZ
    Blend: CC-PVDZ
    Number of shells: 14
    Number of basis functions: 32
    Number of Cartesian functions: 34
    Spherical Harmonics?: true
    Max angular momentum: 2

  ==> DFT Potential <==

   => LibXC <=

    Version 6.2.2
    S. Lehtola, C. Steigemann, M. J.T. Oliveira, and M. A.L. Marques.,  SoftwareX 7, 1–5 (2018) (10.1016/j.softx.2017.11.002)

   => Composite Functional: B3LYP <= 

    B3LYP Hyb-GGA Exchange-Correlation Functional

    P. J. Stephens, F. J. Devlin, C. F. Chabalowski, and M. J. Frisch.,  J. Phys. Chem. 98, 11623 (1994) (10.1021/j100096a001)

    Deriv               =              1
    GGA                 =           TRUE
    Meta                =          FALSE

    Exchange Hybrid     =           TRUE
    MP2 Hybrid          =          FALSE

   => Exchange Functionals <=

    0.0800   Slater exchange
    0.7200         Becke 88

   => Exact (HF) Exchange <=

    0.2000               HF 

   => Correlation Functionals <=

    0.1900   Vosko, Wilk & Nusair (VWN5_RPA)
    0.8100   Lee, Yang & Parr

   => LibXC Density Thresholds  <==

    XC_HYB_GGA_XC_B3LYP:  1.00E-15 

   => Molecular Quadrature <=

    Radial Scheme          =       TREUTLER
    Pruning Scheme         =           NONE
    Nuclear Scheme         =       TREUTLER

    Blocking Scheme        =         OCTREE
    BS radius alpha        =              1
    Pruning alpha          =              1
    Radial Points          =             75
    Spherical Points       =            302
    Total Points           =          43808
    Total Blocks           =            433
    Max Points             =            255
    Max Functions          =             32
    Weights Tolerance      =       1.00E-15

   => Loading Basis Set <=

    Name: (CC-PVDZ AUX)
    Role: JKFIT
    Keyword: DF_BASIS_SCF
    atoms 1 entry B          line    71 file /Users/joseantoniorodriguesromero/anaconda3/share/psi4/basis/cc-pvdz-jkfit.gbs 
    atoms 2 entry NA         line   498 file /Users/joseantoniorodriguesromero/anaconda3/share/psi4/basis/def2-universal-jkfit.gbs 

   => Loading Basis Set <=

    Name: CC-PVDZ
    Role: ORBITAL
    Keyword: BASIS
    atoms 1 entry B          line   108 file /Users/joseantoniorodriguesromero/anaconda3/share/psi4/basis/cc-pvdz.gbs 
    atoms 2 entry NA         line   288 file /Users/joseantoniorodriguesromero/anaconda3/share/psi4/basis/cc-pvdz.gbs 

  Reading orbitals from file /tmp/sextet_BNa.default.74246.180.npy, no projection.

  ==> Integral Setup <==

  DFHelper Memory: AOs need 0.002 GiB; user supplied 0.326 GiB. 
  Using in-core AOs.

  ==> MemDFJK: Density-Fitted J/K Matrices <==

    J tasked:                   Yes
    K tasked:                   Yes
    wK tasked:                   No
    OpenMP threads:               1
    Memory [MiB]:               334
    Algorithm:                 Core
    Schwarz Cutoff:           1E-12
    Mask sparsity (%):       0.0000
    Fitting Condition:        1E-10

   => Auxiliary Basis Set <=

  Basis Set: (CC-PVDZ AUX)
    Blend: CC-PVDZ-JKFIT + DEF2-UNIVERSAL-JKFIT
    Number of shells: 58
    Number of basis functions: 182
    Number of Cartesian functions: 218
    Spherical Harmonics?: true
    Max angular momentum: 4

  Cached 100.0% of DFT collocation blocks in 0.040 [GiB].

  Minimum eigenvalue in the overlap matrix is 1.7008338920E-03.
  Reciprocal condition number of the overlap matrix is 5.4999981843E-04.
    Using symmetric orthogonalization.

  ==> Pre-Iterations <==

  SCF Guess: Orbitals guess was supplied from a previous computation.

   -------------------------------------------------------
    Irrep   Nso     Nmo     Nalpha   Nbeta   Ndocc  Nsocc
   -------------------------------------------------------
     A1        16      16       6       4       4       2
     A2         2       2       0       0       0       0
     B1         7       7       2       0       0       2
     B2         7       7       2       1       1       1
   -------------------------------------------------------
    Total      32      32      10       5       5       5
   -------------------------------------------------------

  ==> Iterations <==

                           Total Energy        Delta E     RMS |[F,P]|

   @DF-UKS iter   0:  -185.30128481208800   -1.85301e+02   8.24677e-05 
   @DF-UKS iter   1:  -185.30094596248878    3.38850e-04   8.05811e-06 DIIS
   @DF-UKS iter   2:  -185.30094593343611    2.90527e-08   1.03557e-05 DIIS/DAMP=1%
   @DF-UKS iter   3:  -185.30095008941888   -4.15598e-06   1.12493e-06 DIIS/DAMP=1%
   @DF-UKS iter   4:  -185.30094573242758    4.35699e-06   1.79064e-07 DIIS/DAMP=1%
   @DF-UKS iter   5:  -185.30094597760746   -2.45180e-07   9.05541e-08 DIIS/DAMP=1%
   @DF-UKS iter   6:  -185.30094597444392    3.16354e-09   9.35450e-09 DIIS/DAMP=1%
  Energy and wave function converged.


  ==> Post-Iterations <==

   Electrons on quadrature grid:
      Nalpha   =    9.9999986109 ; deviation = -1.389e-06
      Nbeta    =    5.0000002493 ; deviation = 2.493e-07
      Ntotal   =   14.9999988602 ; deviation = -1.140e-06 

   @Spin Contamination Metric:   2.582694808E-05
   @S^2 Expected:                8.750000000E+00
   @S^2 Observed:                8.750025827E+00
   @S   Expected:                2.500000000E+00
   @S   Observed:                2.500000000E+00

    Orbital Energies [Eh]
    ---------------------

    Alpha Occupied:                                                       

       1A1   -40.005838     2A1    -7.046318     3A1    -3.304488  
       1B1    -2.315636     4A1    -2.199895     1B2    -2.195767  
       5A1    -0.686437     6A1    -0.435505     2B1    -0.412307  
       2B2    -0.411153  

    Alpha Virtual:                                                        

       7A1    -0.327742     3B1    -0.231715     3B2    -0.226327  
       8A1    -0.166469     9A1    -0.097514     1A2    -0.090613  
      10A1    -0.090481     4B1    -0.079057     4B2    -0.077725  
      11A1    -0.062456     5B1    -0.041455     5B2    -0.038240  
      12A1     0.107159     6B1     0.144949     6B2     0.145070  
      13A1     0.186823    14A1     0.433214     2A2     0.485383  
      15A1     0.485388     7B1     0.550972     7B2     0.552151  
      16A1     0.626920  

    Beta Occupied:                                                        

       1A1   -39.961965     2A1    -7.004741     3A1    -3.184683  
       4A1    -2.153778     1B2    -2.150246  

    Beta Virtual:                                                         

       1B1    -1.914542     5A1    -0.439422     6A1    -0.318017  
       2B2    -0.237717     2B1    -0.234792     7A1    -0.210152  
       3B2    -0.149721     3B1    -0.149720     8A1    -0.124960  
       9A1    -0.089944     4B2    -0.071560     4B1    -0.069094  
       1A2    -0.057626    10A1    -0.054955    11A1    -0.035838  
       5B2     0.015732     5B1     0.017185    12A1     0.158333  
       6B1     0.229353     6B2     0.230121    13A1     0.252225  
      14A1     0.574678     2A2     0.659768    15A1     0.659860  
      16A1     0.700810     7B2     0.704758     7B1     0.704904  

    Final Occupation by Irrep:
             A1    A2    B1    B2 
    DOCC [     4,    0,    0,    1 ]
    SOCC [     2,    0,    2,    1 ]
    NA   [     6,    0,    2,    2 ]
    NB   [     4,    0,    0,    1 ]

  @DF-UKS Final Energy:  -185.30094597444392

   => Energetics <=

    Nuclear Repulsion Energy =             13.4547231621365846
    One-Electron Energy =                -273.9479633210541465
    Two-Electron Energy =                  89.2703509247920550
    DFT Exchange-Correlation Energy =     -14.0780567403184289
    Empirical Dispersion Energy =           0.0000000000000000
    VV10 Nonlocal Energy =                  0.0000000000000000
    Total Energy =                       -185.3009459744439198

  UHF NO Occupations:
  HONO-2 :    1 B1 1.0000000
  HONO-1 :    2 B2 1.0000000
  HONO-0 :    2 B1 1.0000000
  LUNO+0 :    7 A1 0.0000086
  LUNO+1 :    3 B2 0.0000021
  LUNO+2 :    8 A1 0.0000020
  LUNO+3 :    9 A1 0.0000003


Computation Completed


Properties will be evaluated at   0.000000,   0.000000,   0.000000 [a0]

Properties computed using the SCF density matrix


 Multipole Moments:

 ------------------------------------------------------------------------------------
     Multipole            Electronic (a.u.)      Nuclear  (a.u.)        Total (a.u.)
 ------------------------------------------------------------------------------------

 L = 1.  Multiply by 2.5417464519 to convert [e a0] to [Debye]
 Dipole X            :          0.0000000            0.0000000            0.0000000
 Dipole Y            :          0.0000000            0.0000000            0.0000000
 Dipole Z            :         -1.4623876           -0.7398504           -2.2022380
 Magnitude           :                                                    2.2022380

 ------------------------------------------------------------------------------------

*** tstop() called on Joses-MacBook-Pro-2.local at Thu Jul 17 13:33:59 2025
Module time:
	user time   =       2.52 seconds =       0.04 minutes
	system time =       3.06 seconds =       0.05 minutes
	total time  =          0 seconds =       0.00 minutes
Total time:
	user time   =      61.50 seconds =       1.02 minutes
	system time =      88.34 seconds =       1.47 minutes
	total time  =         15 seconds =       0.25 minutes

*** tstart() called on Joses-MacBook-Pro-2.local
*** at Thu Jul 17 13:33:59 2025


         ------------------------------------------------------------
                                   SCF GRAD                          
                          Rob Parrish, Justin Turney,                
                       Andy Simmonett, and Alex Sokolov              
         ------------------------------------------------------------

  ==> Geometry <==

    Molecular point group: c2v
    Full point group: C_inf_v

    Geometry (in Angstrom), charge = 1, multiplicity = 6:

       Center              X                  Y                   Z               Mass       
    ------------   -----------------  -----------------  -----------------  -----------------
         B            0.000000000000     0.000000000000     1.462704413485    11.009305360000
         NA           0.000000000000     0.000000000000    -0.700457640177    22.989769282000

  Nuclear repulsion =   13.454723162136585

  ==> Basis Set <==

  Basis Set: CC-PVDZ
    Blend: CC-PVDZ
    Number of shells: 14
    Number of basis functions: 32
    Number of Cartesian functions: 34
    Spherical Harmonics?: true
    Max angular momentum: 2

  ==> DFJKGrad: Density-Fitted SCF Gradients <==

    Gradient:                    1
    J tasked:                  Yes
    K tasked:                  Yes
    wK tasked:                  No
    OpenMP threads:              1
    Integrals threads:           1
    Memory [MiB]:              375
    Schwarz Cutoff:          1E-12
    Fitting Condition:       1E-10

   => Auxiliary Basis Set <=

  Basis Set: (CC-PVDZ AUX)
    Blend: CC-PVDZ-JKFIT + DEF2-UNIVERSAL-JKFIT
    Number of shells: 58
    Number of basis functions: 182
    Number of Cartesian functions: 218
    Spherical Harmonics?: true
    Max angular momentum: 4

  ==> DFT Potential <==

   => LibXC <=

    Version 6.2.2
    S. Lehtola, C. Steigemann, M. J.T. Oliveira, and M. A.L. Marques.,  SoftwareX 7, 1–5 (2018) (10.1016/j.softx.2017.11.002)

   => Composite Functional: B3LYP <= 

    B3LYP Hyb-GGA Exchange-Correlation Functional

    P. J. Stephens, F. J. Devlin, C. F. Chabalowski, and M. J. Frisch.,  J. Phys. Chem. 98, 11623 (1994) (10.1021/j100096a001)

    Deriv               =              1
    GGA                 =           TRUE
    Meta                =          FALSE

    Exchange Hybrid     =           TRUE
    MP2 Hybrid          =          FALSE

   => Exchange Functionals <=

    0.0800   Slater exchange
    0.7200         Becke 88

   => Exact (HF) Exchange <=

    0.2000               HF 

   => Correlation Functionals <=

    0.1900   Vosko, Wilk & Nusair (VWN5_RPA)
    0.8100   Lee, Yang & Parr

   => LibXC Density Thresholds  <==

    XC_HYB_GGA_XC_B3LYP:  1.00E-15 

   => Molecular Quadrature <=

    Radial Scheme          =       TREUTLER
    Pruning Scheme         =           NONE
    Nuclear Scheme         =       TREUTLER

    Blocking Scheme        =         OCTREE
    BS radius alpha        =              1
    Pruning alpha          =              1
    Radial Points          =             75
    Spherical Points       =            302
    Total Points           =          43808
    Total Blocks           =            433
    Max Points             =            255
    Max Functions          =             32
    Weights Tolerance      =       1.00E-15


  -Total Gradient:
     Atom            X                  Y                   Z
    ------   -----------------  -----------------  -----------------
       1        0.000000000000    -0.000000000000    -0.000027827218
       2        0.000000000000    -0.000000000000     0.000013609052


*** tstop() called on Joses-MacBook-Pro-2.local at Thu Jul 17 13:34:00 2025
Module time:
	user time   =       1.57 seconds =       0.03 minutes
	system time =       1.62 seconds =       0.03 minutes
	total time  =          1 seconds =       0.02 minutes
Total time:
	user time   =      63.08 seconds =       1.05 minutes
	system time =      89.96 seconds =       1.50 minutes
	total time  =         16 seconds =       0.27 minutes

    			-----------------------------------------

    			 OPTKING 3.0: for geometry optimizations 

    			     By R.A. King, Bethel University     

    			        with contributions from          

    			    A.V. Copan, J. Cayton, A. Heide      

    			-----------------------------------------

    
	                            ===> Fragment 1 <== 

	 Z (Atomic Numbers)          Masses                          Geom                  
	       5.000000            11.009305          0.00000000  0.00000000  2.76411074   
	      11.000000            22.989769          0.00000000  0.00000000 -1.32367310   

	 - Coordinate -           - BOHR/RAD -       - ANG/DEG -
	 R(1,2)           =         4.087784           2.163162


	        --- Internal Coordinate Step in ANG or DEG, aJ/ANG or AJ/DEG ---
	-------------------------------------------------------------------------------
	           Coordinate      Previous         Force          Change          New 
	           ----------      --------        ------          ------        ------
	               R(1,2)       2.16316        0.00017        0.00025       2.16341
	-------------------------------------------------------------------------------

	                                 ==> Convergence Check <==                                  
    
	Measures of convergence in internal coordinates in au.
    
	Criteria marked as inactive (o), active & met (*), and active & unmet ( ).

	----------------------------------------------------------------------------------------------
	   Step    Total Energy     Delta E     Max Force     RMS Force      Max Disp      RMS Disp   
	----------------------------------------------------------------------------------------------
	  Convergence Criteria     1.00e-06 *    3.00e-04 *             o    1.20e-03 *             o
	----------------------------------------------------------------------------------------------
	    14    -185.30094597   -1.16e-07 *    2.07e-05 *    2.07e-05 o    4.68e-04 *    4.68e-04 o  ~
	----------------------------------------------------------------------------------------------

Next Geometry in Ang 
	Fragment 1 (Ang)

	    B   0.0000000000   0.0000000000   1.4628283672
	   Na   0.0000000000   0.0000000000  -0.7005815939


    Final optimized geometry and variables:
    Molecular point group: c2v
    Full point group: C_inf_v

    Geometry (in Angstrom), charge = 1, multiplicity = 6:

    B            0.000000000000     0.000000000000     1.462704413485
    NA           0.000000000000     0.000000000000    -0.700457640177


    Psi4 stopped on: Thursday, 17 July 2025 01:34PM
    Psi4 wall time for execution: 0:00:16.70

*** Psi4 exiting successfully. Buy a developer a beer!
