
    -----------------------------------------------------------------------
          Psi4: An Open-Source Ab Initio Electronic Structure Package
                               Psi4 1.9.1 release

                         Git: Rev {} zzzzzzz 


    D. G. A. Smith, L. A. Burns, A. C. Simmonett, R. M. Parrish,
    M. C. Schieber, R. Galvelis, P. Kraus, H. Kruse, R. Di Remigio,
    A. Alenaizan, A. M. James, S. Lehtola, J. P. Misiewicz, M. Scheurer,
    R. A. Shaw, J. B. Schriber, Y. Xie, Z. L. Glick, D. A. Sirianni,
    J. S. O'Brien, J. M. Waldrop, A. Kumar, E. G. Hohenstein,
    B. P. Pritchard, B. R. Brooks, H. F. Schaefer III, A. Yu. Sokolov,
    K. Patkowski, A. E. DePrince III, U. Bozkaya, R. A. King,
    F. A. Evangelista, J. M. Turney, T. D. Crawford, C. D. Sherrill,
    J. Chem. Phys. 152(18) 184108 (2020). https://doi.org/10.1063/5.0006002

                            Additional Code Authors
    E. T. Seidl, C. L. Janssen, E. F. Valeev, M. L. Leininger,
    J. F. Gonthier, R. M. Richard, H. R. McAlexander, M. Saitow, X. Wang,
    P. Verma, M. H. Lechner, A. Jiang, S. Behnle, A. G. Heide,
    M. F. Herbst, and D. L. Poole

             Previous Authors, Complete List of Code Contributors,
                       and Citations for Specific Modules
    https://github.com/psi4/psi4/blob/master/codemeta.json
    https://github.com/psi4/psi4/graphs/contributors
    http://psicode.org/psi4manual/master/introduction.html#citing-psifour

    -----------------------------------------------------------------------


    Psi4 started on: Thursday, 17 July 2025 01:47PM

    Process ID: 74425
    Host:       Joses-MacBook-Pro-2.local
    PSIDATADIR: /Users/joseantoniorodriguesromero/anaconda3/share/psi4
    Memory:     500.0 MiB
    Threads:    1
    
  ==> Input File <==

--------------------------------------------------------------------------
molecule { 
1 6
C   0.00000        0.60000        0.00000
Ar   0.00000       -0.60000        0.00000
}

set { 
basis              cc-pvdz
reference          uks
maxiter            500
geom_maxiter       500
DAMPING_PERCENTAGE 1
guess              SAP
}

optimize('b3lyp')
--------------------------------------------------------------------------

Scratch directory: /tmp/
gradient() will perform analytic gradient computation.
   => Libint2 <=

    Primary   basis highest AM E, G, H:  6, 6, 3
    Auxiliary basis highest AM E, G, H:  7, 7, 4
    Onebody   basis highest AM E, G, H:  -, -, -
    Solid Harmonics ordering:            Gaussian

*** tstart() called on Joses-MacBook-Pro-2.local
*** at Thu Jul 17 13:47:28 2025

   => Loading Basis Set <=

    Name: CC-PVDZ
    Role: ORBITAL
    Keyword: BASIS
    atoms 1 entry C          line   138 file /Users/joseantoniorodriguesromero/anaconda3/share/psi4/basis/cc-pvdz.gbs 
    atoms 2 entry AR         line   718 file /Users/joseantoniorodriguesromero/anaconda3/share/psi4/basis/cc-pvdz.gbs 


         ---------------------------------------------------------
                                   SCF
               by Justin Turney, Rob Parrish, Andy Simmonett
                          and Daniel G. A. Smith
                              UKS Reference
                        1 Threads,    500 MiB Core
         ---------------------------------------------------------

  ==> Geometry <==

    Molecular point group: c2v
    Full point group: C_inf_v

    Geometry (in Angstrom), charge = 1, multiplicity = 6:

       Center              X                  Y                   Z               Mass       
    ------------   -----------------  -----------------  -----------------  -----------------
         C            0.000000000000     0.000000000000     0.922876451495    12.000000000000
         AR           0.000000000000     0.000000000000    -0.277123548505    39.962383123700

  Running in c2v symmetry.

  Rotational constants: A = ************  B =      1.26850  C =      1.26850 [cm^-1]
  Rotational constants: A = ************  B =  38028.67052  C =  38028.67052 [MHz]
  Nuclear repulsion =   47.625948960300008

  Charge       = 1
  Multiplicity = 6
  Electrons    = 23
  Nalpha       = 14
  Nbeta        = 9

  ==> Algorithm <==

  SCF Algorithm Type is DF.
  DIIS enabled.
  MOM disabled.
  Fractional occupation disabled.
  Guess Type is SAP.
  Energy threshold   = 1.00e-08
  Density threshold  = 1.00e-08
  Integral threshold = 1.00e-12

  ==> Primary Basis <==

  Basis Set: CC-PVDZ
    Blend: CC-PVDZ
    Number of shells: 14
    Number of basis functions: 32
    Number of Cartesian functions: 34
    Spherical Harmonics?: true
    Max angular momentum: 2

  ==> DFT Potential <==

   => LibXC <=

    Version 6.2.2
    S. Lehtola, C. Steigemann, M. J.T. Oliveira, and M. A.L. Marques.,  SoftwareX 7, 1–5 (2018) (10.1016/j.softx.2017.11.002)

   => Composite Functional: B3LYP <= 

    B3LYP Hyb-GGA Exchange-Correlation Functional

    P. J. Stephens, F. J. Devlin, C. F. Chabalowski, and M. J. Frisch.,  J. Phys. Chem. 98, 11623 (1994) (10.1021/j100096a001)

    Deriv               =              1
    GGA                 =           TRUE
    Meta                =          FALSE

    Exchange Hybrid     =           TRUE
    MP2 Hybrid          =          FALSE

   => Exchange Functionals <=

    0.0800   Slater exchange
    0.7200         Becke 88

   => Exact (HF) Exchange <=

    0.2000               HF 

   => Correlation Functionals <=

    0.1900   Vosko, Wilk & Nusair (VWN5_RPA)
    0.8100   Lee, Yang & Parr

   => LibXC Density Thresholds  <==

    XC_HYB_GGA_XC_B3LYP:  1.00E-15 

   => Molecular Quadrature <=

    Radial Scheme          =       TREUTLER
    Pruning Scheme         =           NONE
    Nuclear Scheme         =       TREUTLER

    Blocking Scheme        =         OCTREE
    BS radius alpha        =              1
    Pruning alpha          =              1
    Radial Points          =             75
    Spherical Points       =            302
    Total Points           =          41025
    Total Blocks           =            368
    Max Points             =            256
    Max Functions          =             32
    Weights Tolerance      =       1.00E-15

   => Loading Basis Set <=

    Name: (CC-PVDZ AUX)
    Role: JKFIT
    Keyword: DF_BASIS_SCF
    atoms 1 entry C          line   121 file /Users/joseantoniorodriguesromero/anaconda3/share/psi4/basis/cc-pvdz-jkfit.gbs 
    atoms 2 entry AR         line   741 file /Users/joseantoniorodriguesromero/anaconda3/share/psi4/basis/cc-pvdz-jkfit.gbs 

  ==> Integral Setup <==

  DFHelper Memory: AOs need 0.002 GiB; user supplied 0.329 GiB. 
  Using in-core AOs.

  ==> MemDFJK: Density-Fitted J/K Matrices <==

    J tasked:                   Yes
    K tasked:                   Yes
    wK tasked:                   No
    OpenMP threads:               1
    Memory [MiB]:               336
    Algorithm:                 Core
    Schwarz Cutoff:           1E-12
    Mask sparsity (%):       0.0000
    Fitting Condition:        1E-10

   => Auxiliary Basis Set <=

  Basis Set: (CC-PVDZ AUX)
    Blend: CC-PVDZ-JKFIT
    Number of shells: 60
    Number of basis functions: 182
    Number of Cartesian functions: 211
    Spherical Harmonics?: true
    Max angular momentum: 3

  Cached 100.0% of DFT collocation blocks in 0.038 [GiB].

  Minimum eigenvalue in the overlap matrix is 1.0134332036E-02.
  Reciprocal condition number of the overlap matrix is 3.2656109990E-03.
    Using symmetric orthogonalization.

  ==> Pre-Iterations <==

  SCF Guess: Superposition of Atomic Potentials (doi:10.1021/acs.jctc.8b01089).

  ==> SAP guess <==

   => Molecular Quadrature <=

    Radial Scheme          =       TREUTLER
    Pruning Scheme         =           NONE
    Nuclear Scheme         =       TREUTLER

    Blocking Scheme        =         OCTREE
    BS radius alpha        =              1
    Pruning alpha          =              1
    Radial Points          =             75
    Spherical Points       =            302
    Total Points           =          41025
    Total Blocks           =            368
    Max Points             =            256
    Max Functions          =             32
    Weights Tolerance      =       1.00E-15

   -------------------------------------------------------
    Irrep   Nso     Nmo     Nalpha   Nbeta   Ndocc  Nsocc
   -------------------------------------------------------
     A1        16      16       8       6       6       2
     A2         2       2       0       0       0       0
     B1         7       7       3       1       1       2
     B2         7       7       3       2       2       1
   -------------------------------------------------------
    Total      32      32      14       9       9       5
   -------------------------------------------------------

  ==> Iterations <==

                           Total Energy        Delta E     RMS |[F,P]|

   @DF-UKS iter   1:  -563.69980594041010   -5.63700e+02   3.07119e-02 DIIS/ADIIS
   @DF-UKS iter   2:  -563.76661313635077   -6.68072e-02   2.32762e-02 DIIS/ADIIS/DAMP=1%
   @DF-UKS iter   3:  -563.85941915690978   -9.28060e-02   1.75224e-03 DIIS/ADIIS/DAMP=1%
   @DF-UKS iter   4:  -563.85713360132138    2.28556e-03   4.95197e-04 DIIS/ADIIS/DAMP=1%
   @DF-UKS iter   5:  -563.85858808702631   -1.45449e-03   1.30806e-04 DIIS/ADIIS/DAMP=1%
   @DF-UKS iter   6:  -563.85805558447021    5.32503e-04   1.50976e-05 DIIS/DAMP=1%
   @DF-UKS iter   7:  -563.85817962332635   -1.24039e-04   4.33990e-06 DIIS/DAMP=1%
   @DF-UKS iter   8:  -563.85817210950052    7.51383e-06   1.18631e-06 DIIS/DAMP=1%
   @DF-UKS iter   9:  -563.85817375400757   -1.64451e-06   2.34181e-07 DIIS/DAMP=1%
   @DF-UKS iter  10:  -563.85817327581219    4.78195e-07   1.45650e-08 DIIS/DAMP=1%
   @DF-UKS iter  11:  -563.85817330952034   -3.37081e-08   1.52323e-09 DIIS/DAMP=1%
   @DF-UKS iter  12:  -563.85817330973748   -2.17142e-10   1.21899e-10 DIIS/DAMP=1%
  Energy and wave function converged.


  ==> Post-Iterations <==

   Electrons on quadrature grid:
      Nalpha   =   13.9999996821 ; deviation = -3.179e-07
      Nbeta    =    8.9999995508 ; deviation = -4.492e-07
      Ntotal   =   22.9999992329 ; deviation = -7.671e-07 

   @Spin Contamination Metric:   2.872118157E-03
   @S^2 Expected:                8.750000000E+00
   @S^2 Observed:                8.752872118E+00
   @S   Expected:                2.500000000E+00
   @S   Observed:                2.500000000E+00

    Orbital Energies [Eh]
    ---------------------

    Alpha Occupied:                                                       

       1A1  -115.729694     2A1   -11.734575     3A1   -10.571921  
       1B1    -9.302057     4A1    -9.287216     1B2    -9.277312  
       5A1    -1.691772     6A1    -1.132635     2B1    -1.056392  
       2B2    -1.002103     7A1    -0.769878     3B1    -0.576947  
       3B2    -0.551481     8A1    -0.199824  

    Alpha Virtual:                                                        

       9A1    -0.055864     4B1     0.058098     4B2     0.075965  
      10A1     0.210449     1A2     0.237951    11A1     0.239500  
       5B1     0.258094     5B2     0.277353    12A1     0.290562  
       6B1     0.401517     6B2     0.432099     2A2     0.813414  
      13A1     0.813538    14A1     0.856668    15A1     1.183509  
       7B1     1.313752     7B2     1.336010    16A1     1.821732  

    Beta Occupied:                                                        

       1A1  -115.717656     2A1   -11.722103     3A1   -10.510616  
       4A1    -9.277870     1B1    -9.270047     1B2    -9.265579  
       5A1    -1.583141     6A1    -1.014772     2B2    -0.923792  

    Beta Virtual:                                                         

       2B1    -0.814986     7A1    -0.474199     3B2    -0.339336  
       3B1    -0.326477     8A1    -0.022489     9A1    -0.012539  
       4B2     0.115465     4B1     0.119669    10A1     0.304215  
       5B2     0.339788     5B1     0.344421     1A2     0.344671  
      11A1     0.349527    12A1     0.398567     6B2     0.525856  
       6B1     0.534766    13A1     0.924903     2A2     0.952197  
      14A1     0.955825    15A1     1.302275     7B2     1.448203  
       7B1     1.456859    16A1     1.935846  

    Final Occupation by Irrep:
             A1    A2    B1    B2 
    DOCC [     6,    0,    1,    2 ]
    SOCC [     2,    0,    2,    1 ]
    NA   [     8,    0,    3,    3 ]
    NB   [     6,    0,    1,    2 ]

  @DF-UKS Final Energy:  -563.85817330973748

   => Energetics <=

    Nuclear Repulsion Energy =             47.6259489603000077
    One-Electron Energy =                -860.0412261483770635
    Two-Electron Energy =                 277.7539150966785542
    DFT Exchange-Correlation Energy =     -29.1968112183388513
    Empirical Dispersion Energy =           0.0000000000000000
    VV10 Nonlocal Energy =                  0.0000000000000000
    Total Energy =                       -563.8581733097374808

  UHF NO Occupations:
  HONO-2 :    2 B1 1.0000000
  HONO-1 :    3 B1 1.0000000
  HONO-0 :    8 A1 1.0000000
  LUNO+0 :    4 B2 0.0006186
  LUNO+1 :    9 A1 0.0005253
  LUNO+2 :   10 A1 0.0002919
  LUNO+3 :   11 A1 0.0000005


Computation Completed


Properties will be evaluated at   0.000000,   0.000000,   0.000000 [a0]

Properties computed using the SCF density matrix


 Multipole Moments:

 ------------------------------------------------------------------------------------
     Multipole            Electronic (a.u.)      Nuclear  (a.u.)        Total (a.u.)
 ------------------------------------------------------------------------------------

 L = 1.  Multiply by 2.5417464519 to convert [e a0] to [Debye]
 Dipole X            :          0.0000000            0.0000000            0.0000000
 Dipole Y            :          0.0000000            0.0000000            0.0000000
 Dipole Z            :         -0.5655477            1.0375255            0.4719778
 Magnitude           :                                                    0.4719778

 ------------------------------------------------------------------------------------

*** tstop() called on Joses-MacBook-Pro-2.local at Thu Jul 17 13:47:29 2025
Module time:
	user time   =       3.44 seconds =       0.06 minutes
	system time =       5.29 seconds =       0.09 minutes
	total time  =          1 seconds =       0.02 minutes
Total time:
	user time   =       3.44 seconds =       0.06 minutes
	system time =       5.29 seconds =       0.09 minutes
	total time  =          1 seconds =       0.02 minutes

*** tstart() called on Joses-MacBook-Pro-2.local
*** at Thu Jul 17 13:47:29 2025


         ------------------------------------------------------------
                                   SCF GRAD                          
                          Rob Parrish, Justin Turney,                
                       Andy Simmonett, and Alex Sokolov              
         ------------------------------------------------------------

  ==> Geometry <==

    Molecular point group: c2v
    Full point group: C_inf_v

    Geometry (in Angstrom), charge = 1, multiplicity = 6:

       Center              X                  Y                   Z               Mass       
    ------------   -----------------  -----------------  -----------------  -----------------
         C            0.000000000000     0.000000000000     0.922876451495    12.000000000000
         AR           0.000000000000     0.000000000000    -0.277123548505    39.962383123700

  Nuclear repulsion =   47.625948960300008

  ==> Basis Set <==

  Basis Set: CC-PVDZ
    Blend: CC-PVDZ
    Number of shells: 14
    Number of basis functions: 32
    Number of Cartesian functions: 34
    Spherical Harmonics?: true
    Max angular momentum: 2

  ==> DFJKGrad: Density-Fitted SCF Gradients <==

    Gradient:                    1
    J tasked:                  Yes
    K tasked:                  Yes
    wK tasked:                  No
    OpenMP threads:              1
    Integrals threads:           1
    Memory [MiB]:              375
    Schwarz Cutoff:          1E-12
    Fitting Condition:       1E-10

   => Auxiliary Basis Set <=

  Basis Set: (CC-PVDZ AUX)
    Blend: CC-PVDZ-JKFIT
    Number of shells: 60
    Number of basis functions: 182
    Number of Cartesian functions: 211
    Spherical Harmonics?: true
    Max angular momentum: 3

  ==> DFT Potential <==

   => LibXC <=

    Version 6.2.2
    S. Lehtola, C. Steigemann, M. J.T. Oliveira, and M. A.L. Marques.,  SoftwareX 7, 1–5 (2018) (10.1016/j.softx.2017.11.002)

   => Composite Functional: B3LYP <= 

    B3LYP Hyb-GGA Exchange-Correlation Functional

    P. J. Stephens, F. J. Devlin, C. F. Chabalowski, and M. J. Frisch.,  J. Phys. Chem. 98, 11623 (1994) (10.1021/j100096a001)

    Deriv               =              1
    GGA                 =           TRUE
    Meta                =          FALSE

    Exchange Hybrid     =           TRUE
    MP2 Hybrid          =          FALSE

   => Exchange Functionals <=

    0.0800   Slater exchange
    0.7200         Becke 88

   => Exact (HF) Exchange <=

    0.2000               HF 

   => Correlation Functionals <=

    0.1900   Vosko, Wilk & Nusair (VWN5_RPA)
    0.8100   Lee, Yang & Parr

   => LibXC Density Thresholds  <==

    XC_HYB_GGA_XC_B3LYP:  1.00E-15 

   => Molecular Quadrature <=

    Radial Scheme          =       TREUTLER
    Pruning Scheme         =           NONE
    Nuclear Scheme         =       TREUTLER

    Blocking Scheme        =         OCTREE
    BS radius alpha        =              1
    Pruning alpha          =              1
    Radial Points          =             75
    Spherical Points       =            302
    Total Points           =          41025
    Total Blocks           =            368
    Max Points             =            256
    Max Functions          =             32
    Weights Tolerance      =       1.00E-15


  -Total Gradient:
     Atom            X                  Y                   Z
    ------   -----------------  -----------------  -----------------
       1        0.000000000000    -0.000000000000    -1.396013153151
       2       -0.000000000000     0.000000000000     1.395996601722


*** tstop() called on Joses-MacBook-Pro-2.local at Thu Jul 17 13:47:29 2025
Module time:
	user time   =       0.71 seconds =       0.01 minutes
	system time =       1.74 seconds =       0.03 minutes
	total time  =          0 seconds =       0.00 minutes
Total time:
	user time   =       4.15 seconds =       0.07 minutes
	system time =       7.04 seconds =       0.12 minutes
	total time  =          1 seconds =       0.02 minutes

    			-----------------------------------------

    			 OPTKING 3.0: for geometry optimizations 

    			     By R.A. King, Bethel University     

    			        with contributions from          

    			    A.V. Copan, J. Cayton, A. Heide      

    			-----------------------------------------

    
	                            ===> Fragment 1 <== 

	 Z (Atomic Numbers)          Masses                          Geom                  
	       6.000000            12.000000          0.00000000  0.00000000  1.74398374   
	      18.000000            39.962383          0.00000000  0.00000000 -0.52368761   

	 - Coordinate -           - BOHR/RAD -       - ANG/DEG -
	 R(1,2)           =         2.267671           1.200000


	        --- Internal Coordinate Step in ANG or DEG, aJ/ANG or AJ/DEG ---
	-------------------------------------------------------------------------------
	           Coordinate      Previous         Force          Change          New 
	           ----------      --------        ------          ------        ------
	               R(1,2)       1.20000       11.50130        0.16041       1.36041
	-------------------------------------------------------------------------------

	                                 ==> Convergence Check <==                                  
    
	Measures of convergence in internal coordinates in au.
    
	Criteria marked as inactive (o), active & met (*), and active & unmet ( ).

	----------------------------------------------------------------------------------------------
	   Step    Total Energy     Delta E     Max Force     RMS Force      Max Disp      RMS Disp   
	----------------------------------------------------------------------------------------------
	  Convergence Criteria     1.00e-06 *    3.00e-04 *             o    1.20e-03 *             o
	----------------------------------------------------------------------------------------------
	     1    -563.85817331   -5.64e+02      1.40e+00      1.40e+00 o    3.03e-01      3.03e-01 o  ~
	----------------------------------------------------------------------------------------------

Next Geometry in Ang 
	Fragment 1 (Ang)

	    C   0.0000000000   0.0000000000   1.0030797834
	   Ar   0.0000000000   0.0000000000  -0.3573268804


    Structure for next step:
    Molecular point group: c2v
    Full point group: C_inf_v

    Geometry (in Angstrom), charge = 1, multiplicity = 6:

    C            0.000000000000     0.000000000000     1.046239395429
    AR           0.000000000000     0.000000000000    -0.314167268410


Scratch directory: /tmp/
gradient() will perform analytic gradient computation.
   => Libint2 <=

    Primary   basis highest AM E, G, H:  6, 6, 3
    Auxiliary basis highest AM E, G, H:  7, 7, 4
    Onebody   basis highest AM E, G, H:  -, -, -
    Solid Harmonics ordering:            Gaussian

*** tstart() called on Joses-MacBook-Pro-2.local
*** at Thu Jul 17 13:47:29 2025

   => Loading Basis Set <=

    Name: CC-PVDZ
    Role: ORBITAL
    Keyword: BASIS
    atoms 1 entry C          line   138 file /Users/joseantoniorodriguesromero/anaconda3/share/psi4/basis/cc-pvdz.gbs 
    atoms 2 entry AR         line   718 file /Users/joseantoniorodriguesromero/anaconda3/share/psi4/basis/cc-pvdz.gbs 


         ---------------------------------------------------------
                                   SCF
               by Justin Turney, Rob Parrish, Andy Simmonett
                          and Daniel G. A. Smith
                              UKS Reference
                        1 Threads,    500 MiB Core
         ---------------------------------------------------------

  ==> Geometry <==

    Molecular point group: c2v
    Full point group: C_inf_v

    Geometry (in Angstrom), charge = 1, multiplicity = 6:

       Center              X                  Y                   Z               Mass       
    ------------   -----------------  -----------------  -----------------  -----------------
         C            0.000000000000     0.000000000000     1.046239395429    12.000000000000
         AR           0.000000000000     0.000000000000    -0.314167268410    39.962383123700

  Running in c2v symmetry.

  Rotational constants: A = ************  B =      0.98700  C =      0.98700 [cm^-1]
  Rotational constants: A = ************  B =  29589.39828  C =  29589.39828 [MHz]
  Nuclear repulsion =   42.010334315094532

  Charge       = 1
  Multiplicity = 6
  Electrons    = 23
  Nalpha       = 14
  Nbeta        = 9

  ==> Algorithm <==

  SCF Algorithm Type is DF.
  DIIS enabled.
  MOM disabled.
  Fractional occupation disabled.
  Guess Type is READ.
  Energy threshold   = 1.00e-08
  Density threshold  = 1.00e-08
  Integral threshold = 1.00e-12

  ==> Primary Basis <==

  Basis Set: CC-PVDZ
    Blend: CC-PVDZ
    Number of shells: 14
    Number of basis functions: 32
    Number of Cartesian functions: 34
    Spherical Harmonics?: true
    Max angular momentum: 2

  ==> DFT Potential <==

   => LibXC <=

    Version 6.2.2
    S. Lehtola, C. Steigemann, M. J.T. Oliveira, and M. A.L. Marques.,  SoftwareX 7, 1–5 (2018) (10.1016/j.softx.2017.11.002)

   => Composite Functional: B3LYP <= 

    B3LYP Hyb-GGA Exchange-Correlation Functional

    P. J. Stephens, F. J. Devlin, C. F. Chabalowski, and M. J. Frisch.,  J. Phys. Chem. 98, 11623 (1994) (10.1021/j100096a001)

    Deriv               =              1
    GGA                 =           TRUE
    Meta                =          FALSE

    Exchange Hybrid     =           TRUE
    MP2 Hybrid          =          FALSE

   => Exchange Functionals <=

    0.0800   Slater exchange
    0.7200         Becke 88

   => Exact (HF) Exchange <=

    0.2000               HF 

   => Correlation Functionals <=

    0.1900   Vosko, Wilk & Nusair (VWN5_RPA)
    0.8100   Lee, Yang & Parr

   => LibXC Density Thresholds  <==

    XC_HYB_GGA_XC_B3LYP:  1.00E-15 

   => Molecular Quadrature <=

    Radial Scheme          =       TREUTLER
    Pruning Scheme         =           NONE
    Nuclear Scheme         =       TREUTLER

    Blocking Scheme        =         OCTREE
    BS radius alpha        =              1
    Pruning alpha          =              1
    Radial Points          =             75
    Spherical Points       =            302
    Total Points           =          41060
    Total Blocks           =            365
    Max Points             =            255
    Max Functions          =             32
    Weights Tolerance      =       1.00E-15

   => Loading Basis Set <=

    Name: (CC-PVDZ AUX)
    Role: JKFIT
    Keyword: DF_BASIS_SCF
    atoms 1 entry C          line   121 file /Users/joseantoniorodriguesromero/anaconda3/share/psi4/basis/cc-pvdz-jkfit.gbs 
    atoms 2 entry AR         line   741 file /Users/joseantoniorodriguesromero/anaconda3/share/psi4/basis/cc-pvdz-jkfit.gbs 

   => Loading Basis Set <=

    Name: CC-PVDZ
    Role: ORBITAL
    Keyword: BASIS
    atoms 1 entry C          line   138 file /Users/joseantoniorodriguesromero/anaconda3/share/psi4/basis/cc-pvdz.gbs 
    atoms 2 entry AR         line   718 file /Users/joseantoniorodriguesromero/anaconda3/share/psi4/basis/cc-pvdz.gbs 

  Reading orbitals from file /tmp/sextet_CAr.default.74425.180.npy, no projection.

  ==> Integral Setup <==

  DFHelper Memory: AOs need 0.002 GiB; user supplied 0.329 GiB. 
  Using in-core AOs.

  ==> MemDFJK: Density-Fitted J/K Matrices <==

    J tasked:                   Yes
    K tasked:                   Yes
    wK tasked:                   No
    OpenMP threads:               1
    Memory [MiB]:               336
    Algorithm:                 Core
    Schwarz Cutoff:           1E-12
    Mask sparsity (%):       0.0000
    Fitting Condition:        1E-10

   => Auxiliary Basis Set <=

  Basis Set: (CC-PVDZ AUX)
    Blend: CC-PVDZ-JKFIT
    Number of shells: 60
    Number of basis functions: 182
    Number of Cartesian functions: 211
    Spherical Harmonics?: true
    Max angular momentum: 3

  Cached 100.0% of DFT collocation blocks in 0.038 [GiB].

  Minimum eigenvalue in the overlap matrix is 1.3163174262E-02.
  Reciprocal condition number of the overlap matrix is 4.3560217403E-03.
    Using symmetric orthogonalization.

  ==> Pre-Iterations <==

  SCF Guess: Orbitals guess was supplied from a previous computation.

   -------------------------------------------------------
    Irrep   Nso     Nmo     Nalpha   Nbeta   Ndocc  Nsocc
   -------------------------------------------------------
     A1        16      16       8       6       6       2
     A2         2       2       0       0       0       0
     B1         7       7       3       1       1       2
     B2         7       7       3       2       2       1
   -------------------------------------------------------
    Total      32      32      14       9       9       5
   -------------------------------------------------------

  ==> Iterations <==

                           Total Energy        Delta E     RMS |[F,P]|

   @DF-UKS iter   0:  -564.23513773896320   -5.64235e+02   7.88361e-02 
   @DF-UKS iter   1:  -564.17477739450396    6.03603e-02   3.18135e-03 DIIS/ADIIS
   @DF-UKS iter   2:  -564.17753653216528   -2.75914e-03   1.70643e-03 DIIS/ADIIS/DAMP=1%
   @DF-UKS iter   3:  -564.17998824722736   -2.45172e-03   2.90280e-04 DIIS/ADIIS/DAMP=1%
   @DF-UKS iter   4:  -564.17802323162255    1.96502e-03   1.15459e-04 DIIS/ADIIS/DAMP=1%
   @DF-UKS iter   5:  -564.17810273921589   -7.95076e-05   3.03652e-05 DIIS/DAMP=1%
   @DF-UKS iter   6:  -564.17814273367344   -3.99945e-05   6.06816e-06 DIIS/DAMP=1%
   @DF-UKS iter   7:  -564.17812788736410    1.48463e-05   5.65622e-07 DIIS/DAMP=1%
   @DF-UKS iter   8:  -564.17813040165140   -2.51429e-06   6.60873e-08 DIIS/DAMP=1%
   @DF-UKS iter   9:  -564.17813038483962    1.68118e-08   5.15762e-09 DIIS/DAMP=1%
   @DF-UKS iter  10:  -564.17813041371812   -2.88785e-08   5.63099e-10 DIIS/DAMP=1%
   @DF-UKS iter  11:  -564.17813041600994   -2.29181e-09   7.88240e-11 DIIS/DAMP=1%
  Energy and wave function converged.


  ==> Post-Iterations <==

   Electrons on quadrature grid:
      Nalpha   =   14.0000002737 ; deviation = 2.737e-07
      Nbeta    =    9.0000003033 ; deviation = 3.033e-07
      Ntotal   =   23.0000005769 ; deviation = 5.769e-07 

   @Spin Contamination Metric:   3.017129901E-03
   @S^2 Expected:                8.750000000E+00
   @S^2 Observed:                8.753017130E+00
   @S   Expected:                2.500000000E+00
   @S   Observed:                2.500000000E+00

    Orbital Energies [Eh]
    ---------------------

    Alpha Occupied:                                                       

       1A1  -115.703748     2A1   -11.714382     3A1   -10.531096  
       1B1    -9.283088     4A1    -9.266055     1B2    -9.256210  
       5A1    -1.612609     6A1    -1.121330     2B1    -1.012192  
       2B2    -0.954755     7A1    -0.748060     3B1    -0.567802  
       3B2    -0.549295     8A1    -0.269851  

    Alpha Virtual:                                                        

       9A1    -0.018706     4B1     0.107064     4B2     0.127211  
      10A1     0.205639     5B1     0.238248     5B2     0.256588  
      11A1     0.257404     1A2     0.269360    12A1     0.271014  
       6B1     0.342639     6B2     0.374785    13A1     0.747570  
       2A2     0.809641    14A1     0.809770    15A1     1.071917  
       7B1     1.202995     7B2     1.223616    16A1     1.546879  

    Beta Occupied:                                                        

       1A1  -115.690746     2A1   -11.701027     3A1   -10.467139  
       4A1    -9.254168     1B1    -9.250637     1B2    -9.245304  
       5A1    -1.509785     6A1    -1.011149     2B2    -0.891338  

    Beta Virtual:                                                         

       2B1    -0.784326     7A1    -0.450093     3B2    -0.321801  
       3B1    -0.314502     8A1    -0.076588     9A1     0.024634  
       4B2     0.166628     4B1     0.170007    10A1     0.273187  
       5B2     0.335956     5B1     0.338552     1A2     0.367279  
      11A1     0.372786    12A1     0.389394     6B2     0.449631  
       6B1     0.455968    13A1     0.816878     2A2     0.962051  
      14A1     0.963656    15A1     1.179120     7B2     1.348063  
       7B1     1.351379    16A1     1.681766  

    Final Occupation by Irrep:
             A1    A2    B1    B2 
    DOCC [     6,    0,    1,    2 ]
    SOCC [     2,    0,    2,    1 ]
    NA   [     8,    0,    3,    3 ]
    NB   [     6,    0,    1,    2 ]

  @DF-UKS Final Energy:  -564.17813041600994

   => Energetics <=

    Nuclear Repulsion Energy =             42.0103343150945321
    One-Electron Energy =                -850.0760460315996170
    Two-Electron Energy =                 272.9840769457173337
    DFT Exchange-Correlation Energy =     -29.0964956452221948
    Empirical Dispersion Energy =           0.0000000000000000
    VV10 Nonlocal Energy =                  0.0000000000000000
    Total Energy =                       -564.1781304160099353

  UHF NO Occupations:
  HONO-2 :    3 B2 1.0000000
  HONO-1 :    3 B1 1.0000000
  HONO-0 :    8 A1 1.0000000
  LUNO+0 :    9 A1 0.0006681
  LUNO+1 :    4 B2 0.0004383
  LUNO+2 :   10 A1 0.0004018
  LUNO+3 :   11 A1 0.0000006


Computation Completed


Properties will be evaluated at   0.000000,   0.000000,   0.000000 [a0]

Properties computed using the SCF density matrix


 Multipole Moments:

 ------------------------------------------------------------------------------------
     Multipole            Electronic (a.u.)      Nuclear  (a.u.)        Total (a.u.)
 ------------------------------------------------------------------------------------

 L = 1.  Multiply by 2.5417464519 to convert [e a0] to [Debye]
 Dipole X            :          0.0000000            0.0000000            0.0000000
 Dipole Y            :          0.0000000            0.0000000            0.0000000
 Dipole Z            :         -1.2243035            1.1762138           -0.0480897
 Magnitude           :                                                    0.0480897

 ------------------------------------------------------------------------------------

*** tstop() called on Joses-MacBook-Pro-2.local at Thu Jul 17 13:47:30 2025
Module time:
	user time   =       2.85 seconds =       0.05 minutes
	system time =       5.58 seconds =       0.09 minutes
	total time  =          1 seconds =       0.02 minutes
Total time:
	user time   =       7.04 seconds =       0.12 minutes
	system time =      12.85 seconds =       0.21 minutes
	total time  =          2 seconds =       0.03 minutes

*** tstart() called on Joses-MacBook-Pro-2.local
*** at Thu Jul 17 13:47:30 2025


         ------------------------------------------------------------
                                   SCF GRAD                          
                          Rob Parrish, Justin Turney,                
                       Andy Simmonett, and Alex Sokolov              
         ------------------------------------------------------------

  ==> Geometry <==

    Molecular point group: c2v
    Full point group: C_inf_v

    Geometry (in Angstrom), charge = 1, multiplicity = 6:

       Center              X                  Y                   Z               Mass       
    ------------   -----------------  -----------------  -----------------  -----------------
         C            0.000000000000     0.000000000000     1.046239395429    12.000000000000
         AR           0.000000000000     0.000000000000    -0.314167268410    39.962383123700

  Nuclear repulsion =   42.010334315094532

  ==> Basis Set <==

  Basis Set: CC-PVDZ
    Blend: CC-PVDZ
    Number of shells: 14
    Number of basis functions: 32
    Number of Cartesian functions: 34
    Spherical Harmonics?: true
    Max angular momentum: 2

  ==> DFJKGrad: Density-Fitted SCF Gradients <==

    Gradient:                    1
    J tasked:                  Yes
    K tasked:                  Yes
    wK tasked:                  No
    OpenMP threads:              1
    Integrals threads:           1
    Memory [MiB]:              375
    Schwarz Cutoff:          1E-12
    Fitting Condition:       1E-10

   => Auxiliary Basis Set <=

  Basis Set: (CC-PVDZ AUX)
    Blend: CC-PVDZ-JKFIT
    Number of shells: 60
    Number of basis functions: 182
    Number of Cartesian functions: 211
    Spherical Harmonics?: true
    Max angular momentum: 3

  ==> DFT Potential <==

   => LibXC <=

    Version 6.2.2
    S. Lehtola, C. Steigemann, M. J.T. Oliveira, and M. A.L. Marques.,  SoftwareX 7, 1–5 (2018) (10.1016/j.softx.2017.11.002)

   => Composite Functional: B3LYP <= 

    B3LYP Hyb-GGA Exchange-Correlation Functional

    P. J. Stephens, F. J. Devlin, C. F. Chabalowski, and M. J. Frisch.,  J. Phys. Chem. 98, 11623 (1994) (10.1021/j100096a001)

    Deriv               =              1
    GGA                 =           TRUE
    Meta                =          FALSE

    Exchange Hybrid     =           TRUE
    MP2 Hybrid          =          FALSE

   => Exchange Functionals <=

    0.0800   Slater exchange
    0.7200         Becke 88

   => Exact (HF) Exchange <=

    0.2000               HF 

   => Correlation Functionals <=

    0.1900   Vosko, Wilk & Nusair (VWN5_RPA)
    0.8100   Lee, Yang & Parr

   => LibXC Density Thresholds  <==

    XC_HYB_GGA_XC_B3LYP:  1.00E-15 

   => Molecular Quadrature <=

    Radial Scheme          =       TREUTLER
    Pruning Scheme         =           NONE
    Nuclear Scheme         =       TREUTLER

    Blocking Scheme        =         OCTREE
    BS radius alpha        =              1
    Pruning alpha          =              1
    Radial Points          =             75
    Spherical Points       =            302
    Total Points           =          41060
    Total Blocks           =            365
    Max Points             =            255
    Max Functions          =             32
    Weights Tolerance      =       1.00E-15


  -Total Gradient:
     Atom            X                  Y                   Z
    ------   -----------------  -----------------  -----------------
       1        0.000000000000    -0.000000000000    -0.786224166082
       2        0.000000000000     0.000000000000     0.786204234490


*** tstop() called on Joses-MacBook-Pro-2.local at Thu Jul 17 13:47:30 2025
Module time:
	user time   =       0.48 seconds =       0.01 minutes
	system time =       1.80 seconds =       0.03 minutes
	total time  =          0 seconds =       0.00 minutes
Total time:
	user time   =       7.52 seconds =       0.13 minutes
	system time =      14.65 seconds =       0.24 minutes
	total time  =          2 seconds =       0.03 minutes

    			-----------------------------------------

    			 OPTKING 3.0: for geometry optimizations 

    			     By R.A. King, Bethel University     

    			        with contributions from          

    			    A.V. Copan, J. Cayton, A. Heide      

    			-----------------------------------------

    
	                            ===> Fragment 1 <== 

	 Z (Atomic Numbers)          Masses                          Geom                  
	       6.000000            12.000000          0.00000000  0.00000000  1.97710592   
	      18.000000            39.962383          0.00000000  0.00000000 -0.59369009   

	 - Coordinate -           - BOHR/RAD -       - ANG/DEG -
	 R(1,2)           =         2.570796           1.360407


	        --- Internal Coordinate Step in ANG or DEG, aJ/ANG or AJ/DEG ---
	-------------------------------------------------------------------------------
	           Coordinate      Previous         Force          Change          New 
	           ----------      --------        ------          ------        ------
	               R(1,2)       1.36041        6.47740        0.17676       1.53717
	-------------------------------------------------------------------------------

	                                 ==> Convergence Check <==                                  
    
	Measures of convergence in internal coordinates in au.
    
	Criteria marked as inactive (o), active & met (*), and active & unmet ( ).

	----------------------------------------------------------------------------------------------
	   Step    Total Energy     Delta E     Max Force     RMS Force      Max Disp      RMS Disp   
	----------------------------------------------------------------------------------------------
	  Convergence Criteria     1.00e-06 *    3.00e-04 *             o    1.20e-03 *             o
	----------------------------------------------------------------------------------------------
	     2    -564.17813042   -3.20e-01      7.86e-01      7.86e-01 o    3.34e-01      3.34e-01 o  ~
	----------------------------------------------------------------------------------------------

Next Geometry in Ang 
	Fragment 1 (Ang)

	    C   0.0000000000   0.0000000000   1.1346197560
	   Ar   0.0000000000   0.0000000000  -0.4025476290


    Structure for next step:
    Molecular point group: c2v
    Full point group: C_inf_v

    Geometry (in Angstrom), charge = 1, multiplicity = 6:

    C            0.000000000000     0.000000000000     1.182179651297
    AR           0.000000000000     0.000000000000    -0.354987733631


Scratch directory: /tmp/
gradient() will perform analytic gradient computation.
   => Libint2 <=

    Primary   basis highest AM E, G, H:  6, 6, 3
    Auxiliary basis highest AM E, G, H:  7, 7, 4
    Onebody   basis highest AM E, G, H:  -, -, -
    Solid Harmonics ordering:            Gaussian

*** tstart() called on Joses-MacBook-Pro-2.local
*** at Thu Jul 17 13:47:30 2025

   => Loading Basis Set <=

    Name: CC-PVDZ
    Role: ORBITAL
    Keyword: BASIS
    atoms 1 entry C          line   138 file /Users/joseantoniorodriguesromero/anaconda3/share/psi4/basis/cc-pvdz.gbs 
    atoms 2 entry AR         line   718 file /Users/joseantoniorodriguesromero/anaconda3/share/psi4/basis/cc-pvdz.gbs 


         ---------------------------------------------------------
                                   SCF
               by Justin Turney, Rob Parrish, Andy Simmonett
                          and Daniel G. A. Smith
                              UKS Reference
                        1 Threads,    500 MiB Core
         ---------------------------------------------------------

  ==> Geometry <==

    Molecular point group: c2v
    Full point group: C_inf_v

    Geometry (in Angstrom), charge = 1, multiplicity = 6:

       Center              X                  Y                   Z               Mass       
    ------------   -----------------  -----------------  -----------------  -----------------
         C            0.000000000000     0.000000000000     1.182179651297    12.000000000000
         AR           0.000000000000     0.000000000000    -0.354987733631    39.962383123700

  Running in c2v symmetry.

  Rotational constants: A = ************  B =      0.77306  C =      0.77306 [cm^-1]
  Rotational constants: A = ************  B =  23175.61739  C =  23175.61739 [MHz]
  Nuclear repulsion =   37.179515590004058

  Charge       = 1
  Multiplicity = 6
  Electrons    = 23
  Nalpha       = 14
  Nbeta        = 9

  ==> Algorithm <==

  SCF Algorithm Type is DF.
  DIIS enabled.
  MOM disabled.
  Fractional occupation disabled.
  Guess Type is READ.
  Energy threshold   = 1.00e-08
  Density threshold  = 1.00e-08
  Integral threshold = 1.00e-12

  ==> Primary Basis <==

  Basis Set: CC-PVDZ
    Blend: CC-PVDZ
    Number of shells: 14
    Number of basis functions: 32
    Number of Cartesian functions: 34
    Spherical Harmonics?: true
    Max angular momentum: 2

  ==> DFT Potential <==

   => LibXC <=

    Version 6.2.2
    S. Lehtola, C. Steigemann, M. J.T. Oliveira, and M. A.L. Marques.,  SoftwareX 7, 1–5 (2018) (10.1016/j.softx.2017.11.002)

   => Composite Functional: B3LYP <= 

    B3LYP Hyb-GGA Exchange-Correlation Functional

    P. J. Stephens, F. J. Devlin, C. F. Chabalowski, and M. J. Frisch.,  J. Phys. Chem. 98, 11623 (1994) (10.1021/j100096a001)

    Deriv               =              1
    GGA                 =           TRUE
    Meta                =          FALSE

    Exchange Hybrid     =           TRUE
    MP2 Hybrid          =          FALSE

   => Exchange Functionals <=

    0.0800   Slater exchange
    0.7200         Becke 88

   => Exact (HF) Exchange <=

    0.2000               HF 

   => Correlation Functionals <=

    0.1900   Vosko, Wilk & Nusair (VWN5_RPA)
    0.8100   Lee, Yang & Parr

   => LibXC Density Thresholds  <==

    XC_HYB_GGA_XC_B3LYP:  1.00E-15 

   => Molecular Quadrature <=

    Radial Scheme          =       TREUTLER
    Pruning Scheme         =           NONE
    Nuclear Scheme         =       TREUTLER

    Blocking Scheme        =         OCTREE
    BS radius alpha        =              1
    Pruning alpha          =              1
    Radial Points          =             75
    Spherical Points       =            302
    Total Points           =          41096
    Total Blocks           =            365
    Max Points             =            255
    Max Functions          =             32
    Weights Tolerance      =       1.00E-15

   => Loading Basis Set <=

    Name: (CC-PVDZ AUX)
    Role: JKFIT
    Keyword: DF_BASIS_SCF
    atoms 1 entry C          line   121 file /Users/joseantoniorodriguesromero/anaconda3/share/psi4/basis/cc-pvdz-jkfit.gbs 
    atoms 2 entry AR         line   741 file /Users/joseantoniorodriguesromero/anaconda3/share/psi4/basis/cc-pvdz-jkfit.gbs 

   => Loading Basis Set <=

    Name: CC-PVDZ
    Role: ORBITAL
    Keyword: BASIS
    atoms 1 entry C          line   138 file /Users/joseantoniorodriguesromero/anaconda3/share/psi4/basis/cc-pvdz.gbs 
    atoms 2 entry AR         line   718 file /Users/joseantoniorodriguesromero/anaconda3/share/psi4/basis/cc-pvdz.gbs 

  Reading orbitals from file /tmp/sextet_CAr.default.74425.180.npy, no projection.

  ==> Integral Setup <==

  DFHelper Memory: AOs need 0.002 GiB; user supplied 0.329 GiB. 
  Using in-core AOs.

  ==> MemDFJK: Density-Fitted J/K Matrices <==

    J tasked:                   Yes
    K tasked:                   Yes
    wK tasked:                   No
    OpenMP threads:               1
    Memory [MiB]:               336
    Algorithm:                 Core
    Schwarz Cutoff:           1E-12
    Mask sparsity (%):       0.0000
    Fitting Condition:        1E-10

   => Auxiliary Basis Set <=

  Basis Set: (CC-PVDZ AUX)
    Blend: CC-PVDZ-JKFIT
    Number of shells: 60
    Number of basis functions: 182
    Number of Cartesian functions: 211
    Spherical Harmonics?: true
    Max angular momentum: 3

  Cached 100.0% of DFT collocation blocks in 0.038 [GiB].

  Minimum eigenvalue in the overlap matrix is 1.7870788669E-02.
  Reciprocal condition number of the overlap matrix is 6.1528181673E-03.
    Using symmetric orthogonalization.

  ==> Pre-Iterations <==

  SCF Guess: Orbitals guess was supplied from a previous computation.

   -------------------------------------------------------
    Irrep   Nso     Nmo     Nalpha   Nbeta   Ndocc  Nsocc
   -------------------------------------------------------
     A1        16      16       8       6       6       2
     A2         2       2       0       0       0       0
     B1         7       7       3       1       1       2
     B2         7       7       3       2       2       1
   -------------------------------------------------------
    Total      32      32      14       9       9       5
   -------------------------------------------------------

  ==> Iterations <==

                           Total Energy        Delta E     RMS |[F,P]|

   @DF-UKS iter   0:  -564.44492782447867   -5.64445e+02   7.86592e-02 
   @DF-UKS iter   1:  -564.37374148681522    7.11863e-02   3.63420e-03 DIIS/ADIIS
   @DF-UKS iter   2:  -564.37637680873263   -2.63532e-03   2.06413e-03 DIIS/ADIIS/DAMP=1%
   @DF-UKS iter   3:  -564.37937298022746   -2.99617e-03   2.51404e-04 DIIS/ADIIS/DAMP=1%
   @DF-UKS iter   4:  -564.37727373018538    2.09925e-03   1.12613e-04 DIIS/ADIIS/DAMP=1%
   @DF-UKS iter   5:  -564.37722362385568    5.01063e-05   2.42028e-05 DIIS/DAMP=1%
   @DF-UKS iter   6:  -564.37726421907382   -4.05952e-05   2.73271e-06 DIIS/DAMP=1%
   @DF-UKS iter   7:  -564.37725443462136    9.78445e-06   3.67775e-07 DIIS/DAMP=1%
   @DF-UKS iter   8:  -564.37725556476585   -1.13014e-06   3.51703e-08 DIIS/DAMP=1%
   @DF-UKS iter   9:  -564.37725550171444    6.30514e-08   3.60468e-09 DIIS/DAMP=1%
   @DF-UKS iter  10:  -564.37725550528546   -3.57102e-09   2.92829e-10 DIIS/DAMP=1%
  Energy and wave function converged.


  ==> Post-Iterations <==

   Electrons on quadrature grid:
      Nalpha   =   14.0000001186 ; deviation = 1.186e-07
      Nbeta    =    9.0000002725 ; deviation = 2.725e-07
      Ntotal   =   23.0000003912 ; deviation = 3.912e-07 

   @Spin Contamination Metric:   3.042738519E-03
   @S^2 Expected:                8.750000000E+00
   @S^2 Observed:                8.753042739E+00
   @S   Expected:                2.500000000E+00
   @S   Observed:                2.500000000E+00

    Orbital Energies [Eh]
    ---------------------

    Alpha Occupied:                                                       

       1A1  -115.682869     2A1   -11.700744     3A1   -10.501349  
       1B1    -9.270450     4A1    -9.250864     1B2    -9.241918  
       5A1    -1.551357     6A1    -1.087483     2B1    -0.984949  
       2B2    -0.923645     7A1    -0.739091     3B1    -0.544215  
       3B2    -0.532547     8A1    -0.347344  

    Alpha Virtual:                                                        

       9A1     0.046342     4B1     0.149879    10A1     0.173503  
       4B2     0.173806     5B1     0.223465     5B2     0.242631  
      11A1     0.276207     1A2     0.291926    12A1     0.293411  
       6B1     0.314265     6B2     0.344818    13A1     0.620811  
       2A2     0.825695    14A1     0.825718    15A1     0.930288  
       7B1     1.104087     7B2     1.121822    16A1     1.477662  

    Beta Occupied:                                                        

       1A1  -115.669507     2A1   -11.687288     3A1   -10.435283  
       1B1    -9.238186     4A1    -9.236905     1B2    -9.232048  
       5A1    -1.455457     6A1    -0.982364     2B2    -0.875127  

    Beta Virtual:                                                         

       2B1    -0.768484     7A1    -0.444063     3B2    -0.290933  
       3B1    -0.288424     8A1    -0.130819     9A1     0.095921  
       4B2     0.206742     4B1     0.210145    10A1     0.229556  
       5B2     0.346989     5B1     0.347161     1A2     0.380049  
      11A1     0.386139     6B2     0.398812     6B1     0.403956  
      12A1     0.407610    13A1     0.699162     2A2     0.991470  
      14A1     0.991948    15A1     1.019878     7B1     1.258272  
       7B2     1.258600    16A1     1.622615  

    Final Occupation by Irrep:
             A1    A2    B1    B2 
    DOCC [     6,    0,    1,    2 ]
    SOCC [     2,    0,    2,    1 ]
    NA   [     8,    0,    3,    3 ]
    NB   [     6,    0,    1,    2 ]

  @DF-UKS Final Energy:  -564.37725550528546

   => Energetics <=

    Nuclear Repulsion Energy =             37.1795155900040584
    One-Electron Energy =                -841.3036920594070125
    Two-Electron Energy =                 268.7694635550070643
    DFT Exchange-Correlation Energy =     -29.0225425908895431
    Empirical Dispersion Energy =           0.0000000000000000
    VV10 Nonlocal Energy =                  0.0000000000000000
    Total Energy =                       -564.3772555052854614

  UHF NO Occupations:
  HONO-2 :    3 B1 1.0000000
  HONO-1 :    3 B2 1.0000000
  HONO-0 :    8 A1 1.0000000
  LUNO+0 :    9 A1 0.0008219
  LUNO+1 :   10 A1 0.0004414
  LUNO+2 :    4 B2 0.0002579
  LUNO+3 :   11 A1 0.0000006


Computation Completed


Properties will be evaluated at   0.000000,   0.000000,   0.000000 [a0]

Properties computed using the SCF density matrix


 Multipole Moments:

 ------------------------------------------------------------------------------------
     Multipole            Electronic (a.u.)      Nuclear  (a.u.)        Total (a.u.)
 ------------------------------------------------------------------------------------

 L = 1.  Multiply by 2.5417464519 to convert [e a0] to [Debye]
 Dipole X            :          0.0000000            0.0000000            0.0000000
 Dipole Y            :          0.0000000            0.0000000            0.0000000
 Dipole Z            :         -1.8811314            1.3290419           -0.5520894
 Magnitude           :                                                    0.5520894

 ------------------------------------------------------------------------------------

*** tstop() called on Joses-MacBook-Pro-2.local at Thu Jul 17 13:47:31 2025
Module time:
	user time   =       3.03 seconds =       0.05 minutes
	system time =       4.17 seconds =       0.07 minutes
	total time  =          1 seconds =       0.02 minutes
Total time:
	user time   =      10.59 seconds =       0.18 minutes
	system time =      19.04 seconds =       0.32 minutes
	total time  =          3 seconds =       0.05 minutes

*** tstart() called on Joses-MacBook-Pro-2.local
*** at Thu Jul 17 13:47:31 2025


         ------------------------------------------------------------
                                   SCF GRAD                          
                          Rob Parrish, Justin Turney,                
                       Andy Simmonett, and Alex Sokolov              
         ------------------------------------------------------------

  ==> Geometry <==

    Molecular point group: c2v
    Full point group: C_inf_v

    Geometry (in Angstrom), charge = 1, multiplicity = 6:

       Center              X                  Y                   Z               Mass       
    ------------   -----------------  -----------------  -----------------  -----------------
         C            0.000000000000     0.000000000000     1.182179651297    12.000000000000
         AR           0.000000000000     0.000000000000    -0.354987733631    39.962383123700

  Nuclear repulsion =   37.179515590004058

  ==> Basis Set <==

  Basis Set: CC-PVDZ
    Blend: CC-PVDZ
    Number of shells: 14
    Number of basis functions: 32
    Number of Cartesian functions: 34
    Spherical Harmonics?: true
    Max angular momentum: 2

  ==> DFJKGrad: Density-Fitted SCF Gradients <==

    Gradient:                    1
    J tasked:                  Yes
    K tasked:                  Yes
    wK tasked:                  No
    OpenMP threads:              1
    Integrals threads:           1
    Memory [MiB]:              375
    Schwarz Cutoff:          1E-12
    Fitting Condition:       1E-10

   => Auxiliary Basis Set <=

  Basis Set: (CC-PVDZ AUX)
    Blend: CC-PVDZ-JKFIT
    Number of shells: 60
    Number of basis functions: 182
    Number of Cartesian functions: 211
    Spherical Harmonics?: true
    Max angular momentum: 3

  ==> DFT Potential <==

   => LibXC <=

    Version 6.2.2
    S. Lehtola, C. Steigemann, M. J.T. Oliveira, and M. A.L. Marques.,  SoftwareX 7, 1–5 (2018) (10.1016/j.softx.2017.11.002)

   => Composite Functional: B3LYP <= 

    B3LYP Hyb-GGA Exchange-Correlation Functional

    P. J. Stephens, F. J. Devlin, C. F. Chabalowski, and M. J. Frisch.,  J. Phys. Chem. 98, 11623 (1994) (10.1021/j100096a001)

    Deriv               =              1
    GGA                 =           TRUE
    Meta                =          FALSE

    Exchange Hybrid     =           TRUE
    MP2 Hybrid          =          FALSE

   => Exchange Functionals <=

    0.0800   Slater exchange
    0.7200         Becke 88

   => Exact (HF) Exchange <=

    0.2000               HF 

   => Correlation Functionals <=

    0.1900   Vosko, Wilk & Nusair (VWN5_RPA)
    0.8100   Lee, Yang & Parr

   => LibXC Density Thresholds  <==

    XC_HYB_GGA_XC_B3LYP:  1.00E-15 

   => Molecular Quadrature <=

    Radial Scheme          =       TREUTLER
    Pruning Scheme         =           NONE
    Nuclear Scheme         =       TREUTLER

    Blocking Scheme        =         OCTREE
    BS radius alpha        =              1
    Pruning alpha          =              1
    Radial Points          =             75
    Spherical Points       =            302
    Total Points           =          41096
    Total Blocks           =            365
    Max Points             =            255
    Max Functions          =             32
    Weights Tolerance      =       1.00E-15


  -Total Gradient:
     Atom            X                  Y                   Z
    ------   -----------------  -----------------  -----------------
       1        0.000000000000     0.000000000000    -0.441740785160
       2       -0.000000000000     0.000000000000     0.441724886159


*** tstop() called on Joses-MacBook-Pro-2.local at Thu Jul 17 13:47:31 2025
Module time:
	user time   =       1.09 seconds =       0.02 minutes
	system time =       1.34 seconds =       0.02 minutes
	total time  =          0 seconds =       0.00 minutes
Total time:
	user time   =      11.68 seconds =       0.19 minutes
	system time =      20.38 seconds =       0.34 minutes
	total time  =          3 seconds =       0.05 minutes

    			-----------------------------------------

    			 OPTKING 3.0: for geometry optimizations 

    			     By R.A. King, Bethel University     

    			        with contributions from          

    			    A.V. Copan, J. Cayton, A. Heide      

    			-----------------------------------------

    
	                            ===> Fragment 1 <== 

	 Z (Atomic Numbers)          Masses                          Geom                  
	       6.000000            12.000000          0.00000000  0.00000000  2.23399577   
	      18.000000            39.962383          0.00000000  0.00000000 -0.67082959   

	 - Coordinate -           - BOHR/RAD -       - ANG/DEG -
	 R(1,2)           =         2.904825           1.537167


	        --- Internal Coordinate Step in ANG or DEG, aJ/ANG or AJ/DEG ---
	-------------------------------------------------------------------------------
	           Coordinate      Previous         Force          Change          New 
	           ----------      --------        ------          ------        ------
	               R(1,2)       1.53717        3.63931        0.19364       1.73080
	-------------------------------------------------------------------------------

	                                 ==> Convergence Check <==                                  
    
	Measures of convergence in internal coordinates in au.
    
	Criteria marked as inactive (o), active & met (*), and active & unmet ( ).

	----------------------------------------------------------------------------------------------
	   Step    Total Energy     Delta E     Max Force     RMS Force      Max Disp      RMS Disp   
	----------------------------------------------------------------------------------------------
	  Convergence Criteria     1.00e-06 *    3.00e-04 *             o    1.20e-03 *             o
	----------------------------------------------------------------------------------------------
	     3    -564.37725551   -1.99e-01      4.42e-01      4.42e-01 o    3.66e-01      3.66e-01 o  ~
	----------------------------------------------------------------------------------------------

Next Geometry in Ang 
	Fragment 1 (Ang)

	    C   0.0000000000   0.0000000000   1.2789972540
	   Ar   0.0000000000   0.0000000000  -0.4518053363


    Structure for next step:
    Molecular point group: c2v
    Full point group: C_inf_v

    Geometry (in Angstrom), charge = 1, multiplicity = 6:

    C            0.000000000000     0.000000000000     1.331097460632
    AR           0.000000000000     0.000000000000    -0.399705129650


Scratch directory: /tmp/
gradient() will perform analytic gradient computation.
   => Libint2 <=

    Primary   basis highest AM E, G, H:  6, 6, 3
    Auxiliary basis highest AM E, G, H:  7, 7, 4
    Onebody   basis highest AM E, G, H:  -, -, -
    Solid Harmonics ordering:            Gaussian

*** tstart() called on Joses-MacBook-Pro-2.local
*** at Thu Jul 17 13:47:31 2025

   => Loading Basis Set <=

    Name: CC-PVDZ
    Role: ORBITAL
    Keyword: BASIS
    atoms 1 entry C          line   138 file /Users/joseantoniorodriguesromero/anaconda3/share/psi4/basis/cc-pvdz.gbs 
    atoms 2 entry AR         line   718 file /Users/joseantoniorodriguesromero/anaconda3/share/psi4/basis/cc-pvdz.gbs 


         ---------------------------------------------------------
                                   SCF
               by Justin Turney, Rob Parrish, Andy Simmonett
                          and Daniel G. A. Smith
                              UKS Reference
                        1 Threads,    500 MiB Core
         ---------------------------------------------------------

  ==> Geometry <==

    Molecular point group: c2v
    Full point group: C_inf_v

    Geometry (in Angstrom), charge = 1, multiplicity = 6:

       Center              X                  Y                   Z               Mass       
    ------------   -----------------  -----------------  -----------------  -----------------
         C            0.000000000000     0.000000000000     1.331097460632    12.000000000000
         AR           0.000000000000     0.000000000000    -0.399705129650    39.962383123700

  Running in c2v symmetry.

  Rotational constants: A = ************  B =      0.60976  C =      0.60976 [cm^-1]
  Rotational constants: A = ************  B =  18280.09978  C =  18280.09978 [MHz]
  Nuclear repulsion =   33.020021505202244

  Charge       = 1
  Multiplicity = 6
  Electrons    = 23
  Nalpha       = 14
  Nbeta        = 9

  ==> Algorithm <==

  SCF Algorithm Type is DF.
  DIIS enabled.
  MOM disabled.
  Fractional occupation disabled.
  Guess Type is READ.
  Energy threshold   = 1.00e-08
  Density threshold  = 1.00e-08
  Integral threshold = 1.00e-12

  ==> Primary Basis <==

  Basis Set: CC-PVDZ
    Blend: CC-PVDZ
    Number of shells: 14
    Number of basis functions: 32
    Number of Cartesian functions: 34
    Spherical Harmonics?: true
    Max angular momentum: 2

  ==> DFT Potential <==

   => LibXC <=

    Version 6.2.2
    S. Lehtola, C. Steigemann, M. J.T. Oliveira, and M. A.L. Marques.,  SoftwareX 7, 1–5 (2018) (10.1016/j.softx.2017.11.002)

   => Composite Functional: B3LYP <= 

    B3LYP Hyb-GGA Exchange-Correlation Functional

    P. J. Stephens, F. J. Devlin, C. F. Chabalowski, and M. J. Frisch.,  J. Phys. Chem. 98, 11623 (1994) (10.1021/j100096a001)

    Deriv               =              1
    GGA                 =           TRUE
    Meta                =          FALSE

    Exchange Hybrid     =           TRUE
    MP2 Hybrid          =          FALSE

   => Exchange Functionals <=

    0.0800   Slater exchange
    0.7200         Becke 88

   => Exact (HF) Exchange <=

    0.2000               HF 

   => Correlation Functionals <=

    0.1900   Vosko, Wilk & Nusair (VWN5_RPA)
    0.8100   Lee, Yang & Parr

   => LibXC Density Thresholds  <==

    XC_HYB_GGA_XC_B3LYP:  1.00E-15 

   => Molecular Quadrature <=

    Radial Scheme          =       TREUTLER
    Pruning Scheme         =           NONE
    Nuclear Scheme         =       TREUTLER

    Blocking Scheme        =         OCTREE
    BS radius alpha        =              1
    Pruning alpha          =              1
    Radial Points          =             75
    Spherical Points       =            302
    Total Points           =          41107
    Total Blocks           =            366
    Max Points             =            255
    Max Functions          =             32
    Weights Tolerance      =       1.00E-15

   => Loading Basis Set <=

    Name: (CC-PVDZ AUX)
    Role: JKFIT
    Keyword: DF_BASIS_SCF
    atoms 1 entry C          line   121 file /Users/joseantoniorodriguesromero/anaconda3/share/psi4/basis/cc-pvdz-jkfit.gbs 
    atoms 2 entry AR         line   741 file /Users/joseantoniorodriguesromero/anaconda3/share/psi4/basis/cc-pvdz-jkfit.gbs 

   => Loading Basis Set <=

    Name: CC-PVDZ
    Role: ORBITAL
    Keyword: BASIS
    atoms 1 entry C          line   138 file /Users/joseantoniorodriguesromero/anaconda3/share/psi4/basis/cc-pvdz.gbs 
    atoms 2 entry AR         line   718 file /Users/joseantoniorodriguesromero/anaconda3/share/psi4/basis/cc-pvdz.gbs 

  Reading orbitals from file /tmp/sextet_CAr.default.74425.180.npy, no projection.

  ==> Integral Setup <==

  DFHelper Memory: AOs need 0.002 GiB; user supplied 0.329 GiB. 
  Using in-core AOs.

  ==> MemDFJK: Density-Fitted J/K Matrices <==

    J tasked:                   Yes
    K tasked:                   Yes
    wK tasked:                   No
    OpenMP threads:               1
    Memory [MiB]:               336
    Algorithm:                 Core
    Schwarz Cutoff:           1E-12
    Mask sparsity (%):       0.0000
    Fitting Condition:        1E-10

   => Auxiliary Basis Set <=

  Basis Set: (CC-PVDZ AUX)
    Blend: CC-PVDZ-JKFIT
    Number of shells: 60
    Number of basis functions: 182
    Number of Cartesian functions: 211
    Spherical Harmonics?: true
    Max angular momentum: 3

  Cached 100.0% of DFT collocation blocks in 0.037 [GiB].

  Minimum eigenvalue in the overlap matrix is 2.5398617798E-02.
  Reciprocal condition number of the overlap matrix is 9.2187466787E-03.
    Using symmetric orthogonalization.

  ==> Pre-Iterations <==

  SCF Guess: Orbitals guess was supplied from a previous computation.

   -------------------------------------------------------
    Irrep   Nso     Nmo     Nalpha   Nbeta   Ndocc  Nsocc
   -------------------------------------------------------
     A1        16      16       8       6       6       2
     A2         2       2       0       0       0       0
     B1         7       7       3       1       1       2
     B2         7       7       3       2       2       1
   -------------------------------------------------------
    Total      32      32      14       9       9       5
   -------------------------------------------------------

  ==> Iterations <==

                           Total Energy        Delta E     RMS |[F,P]|

   @DF-UKS iter   0:  -564.55624605343394   -5.64556e+02   6.03782e-02 
   @DF-UKS iter   1:  -564.49352629599889    6.27198e-02   4.04170e-03 DIIS/ADIIS
   @DF-UKS iter   2:  -564.49615277447924   -2.62648e-03   2.56443e-03 DIIS/ADIIS/DAMP=1%
   @DF-UKS iter   3:  -564.49915775409545   -3.00498e-03   3.51145e-04 DIIS/ADIIS/DAMP=1%
   @DF-UKS iter   4:  -564.49784064758273    1.31711e-03   6.84093e-05 DIIS/DAMP=1%
   @DF-UKS iter   5:  -564.49757953321875    2.61114e-04   1.76396e-05 DIIS/DAMP=1%
   @DF-UKS iter   6:  -564.49763989799692   -6.03648e-05   2.79938e-06 DIIS/DAMP=1%
   @DF-UKS iter   7:  -564.49762975318254    1.01448e-05   3.92591e-07 DIIS/DAMP=1%
   @DF-UKS iter   8:  -564.49763126293601   -1.50975e-06   3.28770e-08 DIIS/DAMP=1%
   @DF-UKS iter   9:  -564.49763120493640    5.79996e-08   3.39545e-09 DIIS/DAMP=1%
   @DF-UKS iter  10:  -564.49763119750662    7.42978e-09   2.00442e-10 DIIS/DAMP=1%
  Energy and wave function converged.


  ==> Post-Iterations <==

   Electrons on quadrature grid:
      Nalpha   =   13.9999991539 ; deviation = -8.461e-07
      Nbeta    =    8.9999998258 ; deviation = -1.742e-07
      Ntotal   =   22.9999989796 ; deviation = -1.020e-06 

   @Spin Contamination Metric:   3.033843451E-03
   @S^2 Expected:                8.750000000E+00
   @S^2 Observed:                8.753033843E+00
   @S   Expected:                2.500000000E+00
   @S   Observed:                2.500000000E+00

    Orbital Energies [Eh]
    ---------------------

    Alpha Occupied:                                                       

       1A1  -115.669063     2A1   -11.691597     3A1   -10.491534  
       1B1    -9.262195     4A1    -9.239916     1B2    -9.232736  
       5A1    -1.514016     6A1    -1.039187     2B1    -0.968829  
       2B2    -0.904944     7A1    -0.750062     3B1    -0.521853  
       3B2    -0.514998     8A1    -0.410317  

    Alpha Virtual:                                                        

       9A1     0.124174    10A1     0.160841     4B1     0.173249  
       4B2     0.196012     5B1     0.210382     5B2     0.237540  
      11A1     0.293030     1A2     0.306253    12A1     0.307725  
       6B1     0.323152     6B2     0.349921    13A1     0.516257  
      14A1     0.787647     2A2     0.845976    15A1     0.846069  
       7B1     1.015554     7B2     1.029320    16A1     1.446790  

    Beta Occupied:                                                        

       1A1  -115.656185     2A1   -11.678868     3A1   -10.424181  
       1B1    -9.230639     4A1    -9.226094     1B2    -9.224001  
       5A1    -1.426649     6A1    -0.941004     2B2    -0.867594  

    Beta Virtual:                                                         

       2B1    -0.761007     7A1    -0.458991     3B2    -0.261053  
       3B1    -0.261006     8A1    -0.166275     9A1     0.179960  
      10A1     0.206225     4B2     0.228201     4B1     0.231330  
       5B2     0.333938     5B1     0.335982     1A2     0.386483  
      11A1     0.392836     6B2     0.406927     6B1     0.409242  
      12A1     0.419524    13A1     0.602520    14A1     0.868056  
       2A2     1.024494    15A1     1.024622     7B1     1.178043  
       7B2     1.179832    16A1     1.590093  

    Final Occupation by Irrep:
             A1    A2    B1    B2 
    DOCC [     6,    0,    1,    2 ]
    SOCC [     2,    0,    2,    1 ]
    NA   [     8,    0,    3,    3 ]
    NB   [     6,    0,    1,    2 ]

  @DF-UKS Final Energy:  -564.49763119750662

   => Energetics <=

    Nuclear Repulsion Energy =             33.0200215052022443
    One-Electron Energy =                -833.5491431047867081
    Two-Electron Energy =                 264.9962317753481784
    DFT Exchange-Correlation Energy =     -28.9647413732704564
    Empirical Dispersion Energy =           0.0000000000000000
    VV10 Nonlocal Energy =                  0.0000000000000000
    Total Energy =                       -564.4976311975067347

  UHF NO Occupations:
  HONO-2 :    3 B1 1.0000000
  HONO-1 :    7 A1 1.0000000
  HONO-0 :    8 A1 1.0000000
  LUNO+0 :    9 A1 0.0009215
  LUNO+1 :   10 A1 0.0004395
  LUNO+2 :    4 B2 0.0001558
  LUNO+3 :   11 A1 0.0000006


Computation Completed


Properties will be evaluated at   0.000000,   0.000000,   0.000000 [a0]

Properties computed using the SCF density matrix


 Multipole Moments:

 ------------------------------------------------------------------------------------
     Multipole            Electronic (a.u.)      Nuclear  (a.u.)        Total (a.u.)
 ------------------------------------------------------------------------------------

 L = 1.  Multiply by 2.5417464519 to convert [e a0] to [Debye]
 Dipole X            :          0.0000000            0.0000000            0.0000000
 Dipole Y            :          0.0000000            0.0000000            0.0000000
 Dipole Z            :         -2.3436132            1.4964598           -0.8471534
 Magnitude           :                                                    0.8471534

 ------------------------------------------------------------------------------------

*** tstop() called on Joses-MacBook-Pro-2.local at Thu Jul 17 13:47:32 2025
Module time:
	user time   =       3.45 seconds =       0.06 minutes
	system time =       4.10 seconds =       0.07 minutes
	total time  =          1 seconds =       0.02 minutes
Total time:
	user time   =      15.17 seconds =       0.25 minutes
	system time =      24.70 seconds =       0.41 minutes
	total time  =          4 seconds =       0.07 minutes

*** tstart() called on Joses-MacBook-Pro-2.local
*** at Thu Jul 17 13:47:32 2025


         ------------------------------------------------------------
                                   SCF GRAD                          
                          Rob Parrish, Justin Turney,                
                       Andy Simmonett, and Alex Sokolov              
         ------------------------------------------------------------

  ==> Geometry <==

    Molecular point group: c2v
    Full point group: C_inf_v

    Geometry (in Angstrom), charge = 1, multiplicity = 6:

       Center              X                  Y                   Z               Mass       
    ------------   -----------------  -----------------  -----------------  -----------------
         C            0.000000000000     0.000000000000     1.331097460632    12.000000000000
         AR           0.000000000000     0.000000000000    -0.399705129650    39.962383123700

  Nuclear repulsion =   33.020021505202244

  ==> Basis Set <==

  Basis Set: CC-PVDZ
    Blend: CC-PVDZ
    Number of shells: 14
    Number of basis functions: 32
    Number of Cartesian functions: 34
    Spherical Harmonics?: true
    Max angular momentum: 2

  ==> DFJKGrad: Density-Fitted SCF Gradients <==

    Gradient:                    1
    J tasked:                  Yes
    K tasked:                  Yes
    wK tasked:                  No
    OpenMP threads:              1
    Integrals threads:           1
    Memory [MiB]:              375
    Schwarz Cutoff:          1E-12
    Fitting Condition:       1E-10

   => Auxiliary Basis Set <=

  Basis Set: (CC-PVDZ AUX)
    Blend: CC-PVDZ-JKFIT
    Number of shells: 60
    Number of basis functions: 182
    Number of Cartesian functions: 211
    Spherical Harmonics?: true
    Max angular momentum: 3

  ==> DFT Potential <==

   => LibXC <=

    Version 6.2.2
    S. Lehtola, C. Steigemann, M. J.T. Oliveira, and M. A.L. Marques.,  SoftwareX 7, 1–5 (2018) (10.1016/j.softx.2017.11.002)

   => Composite Functional: B3LYP <= 

    B3LYP Hyb-GGA Exchange-Correlation Functional

    P. J. Stephens, F. J. Devlin, C. F. Chabalowski, and M. J. Frisch.,  J. Phys. Chem. 98, 11623 (1994) (10.1021/j100096a001)

    Deriv               =              1
    GGA                 =           TRUE
    Meta                =          FALSE

    Exchange Hybrid     =           TRUE
    MP2 Hybrid          =          FALSE

   => Exchange Functionals <=

    0.0800   Slater exchange
    0.7200         Becke 88

   => Exact (HF) Exchange <=

    0.2000               HF 

   => Correlation Functionals <=

    0.1900   Vosko, Wilk & Nusair (VWN5_RPA)
    0.8100   Lee, Yang & Parr

   => LibXC Density Thresholds  <==

    XC_HYB_GGA_XC_B3LYP:  1.00E-15 

   => Molecular Quadrature <=

    Radial Scheme          =       TREUTLER
    Pruning Scheme         =           NONE
    Nuclear Scheme         =       TREUTLER

    Blocking Scheme        =         OCTREE
    BS radius alpha        =              1
    Pruning alpha          =              1
    Radial Points          =             75
    Spherical Points       =            302
    Total Points           =          41107
    Total Blocks           =            366
    Max Points             =            255
    Max Functions          =             32
    Weights Tolerance      =       1.00E-15


  -Total Gradient:
     Atom            X                  Y                   Z
    ------   -----------------  -----------------  -----------------
       1        0.000000000000    -0.000000000000    -0.237158496638
       2        0.000000000000    -0.000000000000     0.237152114228


*** tstop() called on Joses-MacBook-Pro-2.local at Thu Jul 17 13:47:32 2025
Module time:
	user time   =       0.97 seconds =       0.02 minutes
	system time =       1.55 seconds =       0.03 minutes
	total time  =          0 seconds =       0.00 minutes
Total time:
	user time   =      16.15 seconds =       0.27 minutes
	system time =      26.25 seconds =       0.44 minutes
	total time  =          4 seconds =       0.07 minutes

    			-----------------------------------------

    			 OPTKING 3.0: for geometry optimizations 

    			     By R.A. King, Bethel University     

    			        with contributions from          

    			    A.V. Copan, J. Cayton, A. Heide      

    			-----------------------------------------

    
	                            ===> Fragment 1 <== 

	 Z (Atomic Numbers)          Masses                          Geom                  
	       6.000000            12.000000          0.00000000  0.00000000  2.51540965   
	      18.000000            39.962383          0.00000000  0.00000000 -0.75533323   

	 - Coordinate -           - BOHR/RAD -       - ANG/DEG -
	 R(1,2)           =         3.270743           1.730803


	        --- Internal Coordinate Step in ANG or DEG, aJ/ANG or AJ/DEG ---
	-------------------------------------------------------------------------------
	           Coordinate      Previous         Force          Change          New 
	           ----------      --------        ------          ------        ------
	               R(1,2)       1.73080        1.95386        0.19423       1.92503
	-------------------------------------------------------------------------------

	                                 ==> Convergence Check <==                                  
    
	Measures of convergence in internal coordinates in au.
    
	Criteria marked as inactive (o), active & met (*), and active & unmet ( ).

	----------------------------------------------------------------------------------------------
	   Step    Total Energy     Delta E     Max Force     RMS Force      Max Disp      RMS Disp   
	----------------------------------------------------------------------------------------------
	  Convergence Criteria     1.00e-06 *    3.00e-04 *             o    1.20e-03 *             o
	----------------------------------------------------------------------------------------------
	     4    -564.49763120   -1.20e-01      2.37e-01      2.37e-01 o    3.67e-01      3.67e-01 o  ~
	----------------------------------------------------------------------------------------------

Next Geometry in Ang 
	Fragment 1 (Ang)

	    C   0.0000000000   0.0000000000   1.4282124363
	   Ar   0.0000000000   0.0000000000  -0.4968201053


    Structure for next step:
    Molecular point group: c2v
    Full point group: C_inf_v

    Geometry (in Angstrom), charge = 1, multiplicity = 6:

    C            0.000000000000     0.000000000000     1.480472667451
    AR           0.000000000000     0.000000000000    -0.444559874080


Scratch directory: /tmp/
gradient() will perform analytic gradient computation.
   => Libint2 <=

    Primary   basis highest AM E, G, H:  6, 6, 3
    Auxiliary basis highest AM E, G, H:  7, 7, 4
    Onebody   basis highest AM E, G, H:  -, -, -
    Solid Harmonics ordering:            Gaussian

*** tstart() called on Joses-MacBook-Pro-2.local
*** at Thu Jul 17 13:47:32 2025

   => Loading Basis Set <=

    Name: CC-PVDZ
    Role: ORBITAL
    Keyword: BASIS
    atoms 1 entry C          line   138 file /Users/joseantoniorodriguesromero/anaconda3/share/psi4/basis/cc-pvdz.gbs 
    atoms 2 entry AR         line   718 file /Users/joseantoniorodriguesromero/anaconda3/share/psi4/basis/cc-pvdz.gbs 


         ---------------------------------------------------------
                                   SCF
               by Justin Turney, Rob Parrish, Andy Simmonett
                          and Daniel G. A. Smith
                              UKS Reference
                        1 Threads,    500 MiB Core
         ---------------------------------------------------------

  ==> Geometry <==

    Molecular point group: c2v
    Full point group: C_inf_v

    Geometry (in Angstrom), charge = 1, multiplicity = 6:

       Center              X                  Y                   Z               Mass       
    ------------   -----------------  -----------------  -----------------  -----------------
         C            0.000000000000     0.000000000000     1.480472667451    12.000000000000
         AR           0.000000000000     0.000000000000    -0.444559874080    39.962383123700

  Running in c2v symmetry.

  Rotational constants: A = ************  B =      0.49292  C =      0.49292 [cm^-1]
  Rotational constants: A = ************  B =  14777.38145  C =  14777.38145 [MHz]
  Nuclear repulsion =   29.688401374713841

  Charge       = 1
  Multiplicity = 6
  Electrons    = 23
  Nalpha       = 14
  Nbeta        = 9

  ==> Algorithm <==

  SCF Algorithm Type is DF.
  DIIS enabled.
  MOM disabled.
  Fractional occupation disabled.
  Guess Type is READ.
  Energy threshold   = 1.00e-08
  Density threshold  = 1.00e-08
  Integral threshold = 1.00e-12

  ==> Primary Basis <==

  Basis Set: CC-PVDZ
    Blend: CC-PVDZ
    Number of shells: 14
    Number of basis functions: 32
    Number of Cartesian functions: 34
    Spherical Harmonics?: true
    Max angular momentum: 2

  ==> DFT Potential <==

   => LibXC <=

    Version 6.2.2
    S. Lehtola, C. Steigemann, M. J.T. Oliveira, and M. A.L. Marques.,  SoftwareX 7, 1–5 (2018) (10.1016/j.softx.2017.11.002)

   => Composite Functional: B3LYP <= 

    B3LYP Hyb-GGA Exchange-Correlation Functional

    P. J. Stephens, F. J. Devlin, C. F. Chabalowski, and M. J. Frisch.,  J. Phys. Chem. 98, 11623 (1994) (10.1021/j100096a001)

[...]
	               R(1,2)       3.51340        0.00033        0.00849       3.52188
	-------------------------------------------------------------------------------

	                                 ==> Convergence Check <==                                  
    
	Measures of convergence in internal coordinates in au.
    
	Criteria marked as inactive (o), active & met (*), and active & unmet ( ).

	----------------------------------------------------------------------------------------------
	   Step    Total Energy     Delta E     Max Force     RMS Force      Max Disp      RMS Disp   
	----------------------------------------------------------------------------------------------
	  Convergence Criteria     1.00e-06 *    3.00e-04 *             o    1.20e-03 *             o
	----------------------------------------------------------------------------------------------
	    16    -564.64228801   -2.51e-06      4.05e-05 *    4.05e-05 o    1.60e-02      1.60e-02 o  ~
	----------------------------------------------------------------------------------------------

Next Geometry in Ang 
	Fragment 1 (Ang)

	    C   0.0000000000   0.0000000000   2.7062704018
	   Ar   0.0000000000   0.0000000000  -0.8156141186


    Structure for next step:
    Molecular point group: c2v
    Full point group: C_inf_v

    Geometry (in Angstrom), charge = 1, multiplicity = 6:

    C            0.000000000000     0.000000000000     2.708553573966
    AR           0.000000000000     0.000000000000    -0.813330946430


Scratch directory: /tmp/
gradient() will perform analytic gradient computation.
   => Libint2 <=

    Primary   basis highest AM E, G, H:  6, 6, 3
    Auxiliary basis highest AM E, G, H:  7, 7, 4
    Onebody   basis highest AM E, G, H:  -, -, -
    Solid Harmonics ordering:            Gaussian

*** tstart() called on Joses-MacBook-Pro-2.local
*** at Thu Jul 17 13:47:43 2025

   => Loading Basis Set <=

    Name: CC-PVDZ
    Role: ORBITAL
    Keyword: BASIS
    atoms 1 entry C          line   138 file /Users/joseantoniorodriguesromero/anaconda3/share/psi4/basis/cc-pvdz.gbs 
    atoms 2 entry AR         line   718 file /Users/joseantoniorodriguesromero/anaconda3/share/psi4/basis/cc-pvdz.gbs 


         ---------------------------------------------------------
                                   SCF
               by Justin Turney, Rob Parrish, Andy Simmonett
                          and Daniel G. A. Smith
                              UKS Reference
                        1 Threads,    500 MiB Core
         ---------------------------------------------------------

  ==> Geometry <==

    Molecular point group: c2v
    Full point group: C_inf_v

    Geometry (in Angstrom), charge = 1, multiplicity = 6:

       Center              X                  Y                   Z               Mass       
    ------------   -----------------  -----------------  -----------------  -----------------
         C            0.000000000000     0.000000000000     2.708553573966    12.000000000000
         AR           0.000000000000     0.000000000000    -0.813330946430    39.962383123700

  Running in c2v symmetry.

  Rotational constants: A = ************  B =      0.14727  C =      0.14727 [cm^-1]
  Rotational constants: A = ************  B =   4414.92583  C =   4414.92583 [MHz]
  Nuclear repulsion =   16.227431200936504

  Charge       = 1
  Multiplicity = 6
  Electrons    = 23
  Nalpha       = 14
  Nbeta        = 9

  ==> Algorithm <==

  SCF Algorithm Type is DF.
  DIIS enabled.
  MOM disabled.
  Fractional occupation disabled.
  Guess Type is READ.
  Energy threshold   = 1.00e-08
  Density threshold  = 1.00e-08
  Integral threshold = 1.00e-12

  ==> Primary Basis <==

  Basis Set: CC-PVDZ
    Blend: CC-PVDZ
    Number of shells: 14
    Number of basis functions: 32
    Number of Cartesian functions: 34
    Spherical Harmonics?: true
    Max angular momentum: 2

  ==> DFT Potential <==

   => LibXC <=

    Version 6.2.2
    S. Lehtola, C. Steigemann, M. J.T. Oliveira, and M. A.L. Marques.,  SoftwareX 7, 1–5 (2018) (10.1016/j.softx.2017.11.002)

   => Composite Functional: B3LYP <= 

    B3LYP Hyb-GGA Exchange-Correlation Functional

    P. J. Stephens, F. J. Devlin, C. F. Chabalowski, and M. J. Frisch.,  J. Phys. Chem. 98, 11623 (1994) (10.1021/j100096a001)

    Deriv               =              1
    GGA                 =           TRUE
    Meta                =          FALSE

    Exchange Hybrid     =           TRUE
    MP2 Hybrid          =          FALSE

   => Exchange Functionals <=

    0.0800   Slater exchange
    0.7200         Becke 88

   => Exact (HF) Exchange <=

    0.2000               HF 

   => Correlation Functionals <=

    0.1900   Vosko, Wilk & Nusair (VWN5_RPA)
    0.8100   Lee, Yang & Parr

   => LibXC Density Thresholds  <==

    XC_HYB_GGA_XC_B3LYP:  1.00E-15 

   => Molecular Quadrature <=

    Radial Scheme          =       TREUTLER
    Pruning Scheme         =           NONE
    Nuclear Scheme         =       TREUTLER

    Blocking Scheme        =         OCTREE
    BS radius alpha        =              1
    Pruning alpha          =              1
    Radial Points          =             75
    Spherical Points       =            302
    Total Points           =          41293
    Total Blocks           =            380
    Max Points             =            256
    Max Functions          =             32
    Weights Tolerance      =       1.00E-15

   => Loading Basis Set <=

    Name: (CC-PVDZ AUX)
    Role: JKFIT
    Keyword: DF_BASIS_SCF
    atoms 1 entry C          line   121 file /Users/joseantoniorodriguesromero/anaconda3/share/psi4/basis/cc-pvdz-jkfit.gbs 
    atoms 2 entry AR         line   741 file /Users/joseantoniorodriguesromero/anaconda3/share/psi4/basis/cc-pvdz-jkfit.gbs 

   => Loading Basis Set <=

    Name: CC-PVDZ
    Role: ORBITAL
    Keyword: BASIS
    atoms 1 entry C          line   138 file /Users/joseantoniorodriguesromero/anaconda3/share/psi4/basis/cc-pvdz.gbs 
    atoms 2 entry AR         line   718 file /Users/joseantoniorodriguesromero/anaconda3/share/psi4/basis/cc-pvdz.gbs 

  Reading orbitals from file /tmp/sextet_CAr.default.74425.180.npy, no projection.

  ==> Integral Setup <==

  DFHelper Memory: AOs need 0.002 GiB; user supplied 0.333 GiB. 
  Using in-core AOs.

  ==> MemDFJK: Density-Fitted J/K Matrices <==

    J tasked:                   Yes
    K tasked:                   Yes
    wK tasked:                   No
    OpenMP threads:               1
    Memory [MiB]:               341
    Algorithm:                 Core
    Schwarz Cutoff:           1E-12
    Mask sparsity (%):       0.0000
    Fitting Condition:        1E-10

   => Auxiliary Basis Set <=

  Basis Set: (CC-PVDZ AUX)
    Blend: CC-PVDZ-JKFIT
    Number of shells: 60
    Number of basis functions: 182
    Number of Cartesian functions: 211
    Spherical Harmonics?: true
    Max angular momentum: 3

  Cached 100.0% of DFT collocation blocks in 0.033 [GiB].

  Minimum eigenvalue in the overlap matrix is 1.0883417336E-01.
  Reciprocal condition number of the overlap matrix is 6.2448168460E-02.
    Using symmetric orthogonalization.

  ==> Pre-Iterations <==

  SCF Guess: Orbitals guess was supplied from a previous computation.

   -------------------------------------------------------
    Irrep   Nso     Nmo     Nalpha   Nbeta   Ndocc  Nsocc
   -------------------------------------------------------
     A1        16      16       8       6       6       2
     A2         2       2       0       0       0       0
     B1         7       7       3       1       1       2
     B2         7       7       3       2       2       1
   -------------------------------------------------------
    Total      32      32      14       9       9       5
   -------------------------------------------------------

  ==> Iterations <==

                           Total Energy        Delta E     RMS |[F,P]|

   @DF-UKS iter   0:  -564.64226761958219   -5.64642e+02   3.60574e-05 
   @DF-UKS iter   1:  -564.64228850761731   -2.08880e-05   1.17087e-06 DIIS
   @DF-UKS iter   2:  -564.64228850803306   -4.15753e-10   3.30100e-07 DIIS/DAMP=1%
   @DF-UKS iter   3:  -564.64228883683768   -3.28805e-07   8.55125e-08 DIIS/DAMP=1%
   @DF-UKS iter   4:  -564.64228843583487    4.01003e-07   1.10880e-08 DIIS/DAMP=1%
   @DF-UKS iter   5:  -564.64228851517612   -7.93412e-08   9.15857e-10 DIIS/DAMP=1%
   @DF-UKS iter   6:  -564.64228850787083    7.30529e-09   3.08435e-10 DIIS/DAMP=1%
  Energy and wave function converged.


  ==> Post-Iterations <==

   Electrons on quadrature grid:
      Nalpha   =   14.0000035239 ; deviation = 3.524e-06
      Nbeta    =    9.0000000028 ; deviation = 2.803e-09
      Ntotal   =   23.0000035267 ; deviation = 3.527e-06 

   @Spin Contamination Metric:   1.766467834E-03
   @S^2 Expected:                8.750000000E+00
   @S^2 Observed:                8.751766468E+00
   @S   Expected:                2.500000000E+00
   @S   Observed:                2.500000000E+00

    Orbital Energies [Eh]
    ---------------------

    Alpha Occupied:                                                       

       1A1  -115.629736     2A1   -11.655945     3A1   -10.460883  
       1B1    -9.228820     4A1    -9.198594     1B2    -9.198553  
       5A1    -1.451624     2B1    -0.929635     6A1    -0.863782  
       2B2    -0.863410     7A1    -0.782464     8A1    -0.439466  
       3B1    -0.434353     3B2    -0.434182  

    Alpha Virtual:                                                        

       9A1     0.158911     4B1     0.186135     4B2     0.217296  
      10A1     0.285407     5B1     0.297364     5B2     0.300150  
      11A1     0.328504     1A2     0.341027     6B1     0.342434  
      12A1     0.364357    13A1     0.388506     6B2     0.392845  
      14A1     0.461804     7B1     0.933926     7B2     0.934088  
      15A1     0.936774    16A1     0.937779     2A2     0.937779  

    Beta Occupied:                                                        

       1A1  -115.620761     2A1   -11.647378     3A1   -10.391867  
       1B1    -9.200501     1B2    -9.193387     4A1    -9.193299  
       5A1    -1.388538     6A1    -0.843673     2B2    -0.843634  

    Beta Virtual:                                                         

       2B1    -0.737505     7A1    -0.414131     8A1    -0.136189  
       3B1    -0.124416     3B2    -0.124300     9A1     0.209989  
       4B2     0.227532     4B1     0.230854    10A1     0.323024  
      11A1     0.396829     5B2     0.401152     5B1     0.406680  
       1A2     0.408181    12A1     0.416621     6B2     0.438217  
       6B1     0.438345    13A1     0.501865    14A1     0.565027  
      15A1     1.173052     2A2     1.173076     7B1     1.173781  
       7B2     1.173944    16A1     1.174347  

    Final Occupation by Irrep:
             A1    A2    B1    B2 
    DOCC [     6,    0,    1,    2 ]
    SOCC [     2,    0,    2,    1 ]
    NA   [     8,    0,    3,    3 ]
    NB   [     6,    0,    1,    2 ]

  @DF-UKS Final Energy:  -564.64228850787083

   => Energetics <=

    Nuclear Repulsion Energy =             16.2274312009365040
    One-Electron Energy =                -801.3178190131872043
    Two-Electron Energy =                 249.3057996533278242
    DFT Exchange-Correlation Energy =     -28.8577003489479793
    Empirical Dispersion Energy =           0.0000000000000000
    VV10 Nonlocal Energy =                  0.0000000000000000
    Total Energy =                       -564.6422885078708305

  UHF NO Occupations:
  HONO-2 :    8 A1 1.0000000
  HONO-1 :    3 B1 1.0000000
  HONO-0 :    3 B2 1.0000000
  LUNO+0 :    9 A1 0.0008193
  LUNO+1 :   10 A1 0.0000377
  LUNO+2 :    4 B2 0.0000254
  LUNO+3 :   11 A1 0.0000012


Computation Completed


Properties will be evaluated at   0.000000,   0.000000,   0.000000 [a0]

Properties computed using the SCF density matrix


 Multipole Moments:

 ------------------------------------------------------------------------------------
     Multipole            Electronic (a.u.)      Nuclear  (a.u.)        Total (a.u.)
 ------------------------------------------------------------------------------------

 L = 1.  Multiply by 2.5417464519 to convert [e a0] to [Debye]
 Dipole X            :          0.0000000            0.0000000            0.0000000
 Dipole Y            :          0.0000000            0.0000000            0.0000000
 Dipole Z            :         -4.4952967            3.0450374           -1.4502593
 Magnitude           :                                                    1.4502593

 ------------------------------------------------------------------------------------

*** tstop() called on Joses-MacBook-Pro-2.local at Thu Jul 17 13:47:43 2025
Module time:
	user time   =       2.25 seconds =       0.04 minutes
	system time =       2.49 seconds =       0.04 minutes
	total time  =          0 seconds =       0.00 minutes
Total time:
	user time   =      59.82 seconds =       1.00 minutes
	system time =      96.70 seconds =       1.61 minutes
	total time  =         15 seconds =       0.25 minutes

*** tstart() called on Joses-MacBook-Pro-2.local
*** at Thu Jul 17 13:47:43 2025


         ------------------------------------------------------------
                                   SCF GRAD                          
                          Rob Parrish, Justin Turney,                
                       Andy Simmonett, and Alex Sokolov              
         ------------------------------------------------------------

  ==> Geometry <==

    Molecular point group: c2v
    Full point group: C_inf_v

    Geometry (in Angstrom), charge = 1, multiplicity = 6:

       Center              X                  Y                   Z               Mass       
    ------------   -----------------  -----------------  -----------------  -----------------
         C            0.000000000000     0.000000000000     2.708553573966    12.000000000000
         AR           0.000000000000     0.000000000000    -0.813330946430    39.962383123700

  Nuclear repulsion =   16.227431200936504

  ==> Basis Set <==

  Basis Set: CC-PVDZ
    Blend: CC-PVDZ
    Number of shells: 14
    Number of basis functions: 32
    Number of Cartesian functions: 34
    Spherical Harmonics?: true
    Max angular momentum: 2

  ==> DFJKGrad: Density-Fitted SCF Gradients <==

    Gradient:                    1
    J tasked:                  Yes
    K tasked:                  Yes
    wK tasked:                  No
    OpenMP threads:              1
    Integrals threads:           1
    Memory [MiB]:              375
    Schwarz Cutoff:          1E-12
    Fitting Condition:       1E-10

   => Auxiliary Basis Set <=

  Basis Set: (CC-PVDZ AUX)
    Blend: CC-PVDZ-JKFIT
    Number of shells: 60
    Number of basis functions: 182
    Number of Cartesian functions: 211
    Spherical Harmonics?: true
    Max angular momentum: 3

  ==> DFT Potential <==

   => LibXC <=

    Version 6.2.2
    S. Lehtola, C. Steigemann, M. J.T. Oliveira, and M. A.L. Marques.,  SoftwareX 7, 1–5 (2018) (10.1016/j.softx.2017.11.002)

   => Composite Functional: B3LYP <= 

    B3LYP Hyb-GGA Exchange-Correlation Functional

    P. J. Stephens, F. J. Devlin, C. F. Chabalowski, and M. J. Frisch.,  J. Phys. Chem. 98, 11623 (1994) (10.1021/j100096a001)

    Deriv               =              1
    GGA                 =           TRUE
    Meta                =          FALSE

    Exchange Hybrid     =           TRUE
    MP2 Hybrid          =          FALSE

   => Exchange Functionals <=

    0.0800   Slater exchange
    0.7200         Becke 88

   => Exact (HF) Exchange <=

    0.2000               HF 

   => Correlation Functionals <=

    0.1900   Vosko, Wilk & Nusair (VWN5_RPA)
    0.8100   Lee, Yang & Parr

   => LibXC Density Thresholds  <==

    XC_HYB_GGA_XC_B3LYP:  1.00E-15 

   => Molecular Quadrature <=

    Radial Scheme          =       TREUTLER
    Pruning Scheme         =           NONE
    Nuclear Scheme         =       TREUTLER

    Blocking Scheme        =         OCTREE
    BS radius alpha        =              1
    Pruning alpha          =              1
    Radial Points          =             75
    Spherical Points       =            302
    Total Points           =          41293
    Total Blocks           =            380
    Max Points             =            256
    Max Functions          =             32
    Weights Tolerance      =       1.00E-15


  -Total Gradient:
     Atom            X                  Y                   Z
    ------   -----------------  -----------------  -----------------
       1        0.000000000000     0.000000000000    -0.000014537802
       2        0.000000000000    -0.000000000000     0.000021392197


*** tstop() called on Joses-MacBook-Pro-2.local at Thu Jul 17 13:47:43 2025
Module time:
	user time   =       0.65 seconds =       0.01 minutes
	system time =       1.61 seconds =       0.03 minutes
	total time  =          0 seconds =       0.00 minutes
Total time:
	user time   =      60.47 seconds =       1.01 minutes
	system time =      98.31 seconds =       1.64 minutes
	total time  =         15 seconds =       0.25 minutes

    			-----------------------------------------

    			 OPTKING 3.0: for geometry optimizations 

    			     By R.A. King, Bethel University     

    			        with contributions from          

    			    A.V. Copan, J. Cayton, A. Heide      

    			-----------------------------------------

    
	                            ===> Fragment 1 <== 

	 Z (Atomic Numbers)          Masses                          Geom                  
	       6.000000            12.000000          0.00000000  0.00000000  5.11842445   
	      18.000000            39.962383          0.00000000  0.00000000 -1.53697274   

	 - Coordinate -           - BOHR/RAD -       - ANG/DEG -
	 R(1,2)           =         6.655397           3.521885


	        --- Internal Coordinate Step in ANG or DEG, aJ/ANG or AJ/DEG ---
	-------------------------------------------------------------------------------
	           Coordinate      Previous         Force          Change          New 
	           ----------      --------        ------          ------        ------
	               R(1,2)       3.52188        0.00015        0.00502       3.52691
	-------------------------------------------------------------------------------

	                                 ==> Convergence Check <==                                  
    
	Measures of convergence in internal coordinates in au.
    
	Criteria marked as inactive (o), active & met (*), and active & unmet ( ).

	----------------------------------------------------------------------------------------------
	   Step    Total Energy     Delta E     Max Force     RMS Force      Max Disp      RMS Disp   
	----------------------------------------------------------------------------------------------
	  Convergence Criteria     1.00e-06 *    3.00e-04 *             o    1.20e-03 *             o
	----------------------------------------------------------------------------------------------
	    17    -564.64228851   -4.97e-07 *    1.80e-05 *    1.80e-05 o    9.49e-03      9.49e-03 o  ~
	----------------------------------------------------------------------------------------------

Next Geometry in Ang 
	Fragment 1 (Ang)

	    C   0.0000000000   0.0000000000   2.7110643401
	   Ar   0.0000000000   0.0000000000  -0.8158417125


    Final optimized geometry and variables:
    Molecular point group: c2v
    Full point group: C_inf_v

    Geometry (in Angstrom), charge = 1, multiplicity = 6:

    C            0.000000000000     0.000000000000     2.708553573966
    AR           0.000000000000     0.000000000000    -0.813330946430


    Psi4 stopped on: Thursday, 17 July 2025 01:47PM
    Psi4 wall time for execution: 0:00:15.64

*** Psi4 exiting successfully. Buy a developer a beer!
