
    -----------------------------------------------------------------------
          Psi4: An Open-Source Ab Initio Electronic Structure Package
                               Psi4 1.9.1 release

                         Git: Rev {} zzzzzzz 


    D. G. A. Smith, L. A. Burns, A. C. Simmonett, R. M. Parrish,
    M. C. Schieber, R. Galvelis, P. Kraus, H. Kruse, R. Di Remigio,
    A. Alenaizan, A. M. James, S. Lehtola, J. P. Misiewicz, M. Scheurer,
    R. A. Shaw, J. B. Schriber, Y. Xie, Z. L. Glick, D. A. Sirianni,
    J. S. O'Brien, J. M. Waldrop, A. Kumar, E. G. Hohenstein,
    B. P. Pritchard, B. R. Brooks, H. F. Schaefer III, A. Yu. Sokolov,
    K. Patkowski, A. E. DePrince III, U. Bozkaya, R. A. King,
    F. A. Evangelista, J. M. Turney, T. D. Crawford, C. D. Sherrill,
    J. Chem. Phys. 152(18) 184108 (2020). https://doi.org/10.1063/5.0006002

                            Additional Code Authors
    E. T. Seidl, C. L. Janssen, E. F. Valeev, M. L. Leininger,
    J. F. Gonthier, R. M. Richard, H. R. McAlexander, M. Saitow, X. Wang,
    P. Verma, M. H. Lechner, A. Jiang, S. Behnle, A. G. Heide,
    M. F. Herbst, and D. L. Poole

             Previous Authors, Complete List of Code Contributors,
                       and Citations for Specific Modules
    https://github.com/psi4/psi4/blob/master/codemeta.json
    https://github.com/psi4/psi4/graphs/contributors
    http://psicode.org/psi4manual/master/introduction.html#citing-psifour

    -----------------------------------------------------------------------


    Psi4 started on: Thursday, 17 July 2025 03:19PM

    Process ID: 75274
    Host:       Joses-MacBook-Pro-2.local
    PSIDATADIR: /Users/joseantoniorodriguesromero/anaconda3/share/psi4
    Memory:     500.0 MiB
    Threads:    1
    
  ==> Input File <==

--------------------------------------------------------------------------
molecule { 
1 1
Al   0.00000        0.60000        0.00000
S   0.00000       -0.60000        0.00000
}

set { 
basis              cc-pvdz
reference          uks
maxiter            500
geom_maxiter       500
DAMPING_PERCENTAGE 1
guess              SAP
}

optimize('b3lyp')
--------------------------------------------------------------------------

Scratch directory: /tmp/
gradient() will perform analytic gradient computation.
   => Libint2 <=

    Primary   basis highest AM E, G, H:  6, 6, 3
    Auxiliary basis highest AM E, G, H:  7, 7, 4
    Onebody   basis highest AM E, G, H:  -, -, -
    Solid Harmonics ordering:            Gaussian

*** tstart() called on Joses-MacBook-Pro-2.local
*** at Thu Jul 17 15:19:23 2025

   => Loading Basis Set <=

    Name: CC-PVDZ
    Role: ORBITAL
    Keyword: BASIS
    atoms 1 entry AL         line   418 file /Users/joseantoniorodriguesromero/anaconda3/share/psi4/basis/cc-pvdz.gbs 
    atoms 2 entry S          line   598 file /Users/joseantoniorodriguesromero/anaconda3/share/psi4/basis/cc-pvdz.gbs 


         ---------------------------------------------------------
                                   SCF
               by Justin Turney, Rob Parrish, Andy Simmonett
                          and Daniel G. A. Smith
                              UKS Reference
                        1 Threads,    500 MiB Core
         ---------------------------------------------------------

  ==> Geometry <==

    Molecular point group: c2v
    Full point group: C_inf_v

    Geometry (in Angstrom), charge = 1, multiplicity = 1:

       Center              X                  Y                   Z               Mass       
    ------------   -----------------  -----------------  -----------------  -----------------
         AL           0.000000000000     0.000000000000     0.650791115280    26.981538530000
         S            0.000000000000     0.000000000000    -0.549208884720    31.972071174400

  Running in c2v symmetry.

  Rotational constants: A = ************  B =      0.80003  C =      0.80003 [cm^-1]
  Rotational constants: A = ************  B =  23984.33204  C =  23984.33204 [MHz]
  Nuclear repulsion =   91.724049849466681

  Charge       = 1
  Multiplicity = 1
  Electrons    = 28
  Nalpha       = 14
  Nbeta        = 14

  ==> Algorithm <==

  SCF Algorithm Type is DF.
  DIIS enabled.
  MOM disabled.
  Fractional occupation disabled.
  Guess Type is SAP.
  Energy threshold   = 1.00e-08
  Density threshold  = 1.00e-08
  Integral threshold = 1.00e-12

  ==> Primary Basis <==

  Basis Set: CC-PVDZ
    Blend: CC-PVDZ
    Number of shells: 16
    Number of basis functions: 36
    Number of Cartesian functions: 38
    Spherical Harmonics?: true
    Max angular momentum: 2

  ==> DFT Potential <==

   => LibXC <=

    Version 6.2.2
    S. Lehtola, C. Steigemann, M. J.T. Oliveira, and M. A.L. Marques.,  SoftwareX 7, 1–5 (2018) (10.1016/j.softx.2017.11.002)

   => Composite Functional: B3LYP <= 

    B3LYP Hyb-GGA Exchange-Correlation Functional

    P. J. Stephens, F. J. Devlin, C. F. Chabalowski, and M. J. Frisch.,  J. Phys. Chem. 98, 11623 (1994) (10.1021/j100096a001)

    Deriv               =              1
    GGA                 =           TRUE
    Meta                =          FALSE

    Exchange Hybrid     =           TRUE
    MP2 Hybrid          =          FALSE

   => Exchange Functionals <=

    0.0800   Slater exchange
    0.7200         Becke 88

   => Exact (HF) Exchange <=

    0.2000               HF 

   => Correlation Functionals <=

    0.1900   Vosko, Wilk & Nusair (VWN5_RPA)
    0.8100   Lee, Yang & Parr

   => LibXC Density Thresholds  <==

    XC_HYB_GGA_XC_B3LYP:  1.00E-15 

   => Molecular Quadrature <=

    Radial Scheme          =       TREUTLER
    Pruning Scheme         =           NONE
    Nuclear Scheme         =       TREUTLER

    Blocking Scheme        =         OCTREE
    BS radius alpha        =              1
    Pruning alpha          =              1
    Radial Points          =             75
    Spherical Points       =            302
    Total Points           =          42559
    Total Blocks           =            402
    Max Points             =            253
    Max Functions          =             36
    Weights Tolerance      =       1.00E-15

   => Loading Basis Set <=

    Name: (CC-PVDZ AUX)
    Role: JKFIT
    Keyword: DF_BASIS_SCF
    atoms 1 entry AL         line   371 file /Users/joseantoniorodriguesromero/anaconda3/share/psi4/basis/cc-pvdz-jkfit.gbs 
    atoms 2 entry S          line   593 file /Users/joseantoniorodriguesromero/anaconda3/share/psi4/basis/cc-pvdz-jkfit.gbs 

  ==> Integral Setup <==

  DFHelper Memory: AOs need 0.003 GiB; user supplied 0.323 GiB. 
  Using in-core AOs.

  ==> MemDFJK: Density-Fitted J/K Matrices <==

    J tasked:                   Yes
    K tasked:                   Yes
    wK tasked:                   No
    OpenMP threads:               1
    Memory [MiB]:               330
    Algorithm:                 Core
    Schwarz Cutoff:           1E-12
    Mask sparsity (%):       0.0000
    Fitting Condition:        1E-10

   => Auxiliary Basis Set <=

  Basis Set: (CC-PVDZ AUX)
    Blend: CC-PVDZ-JKFIT
    Number of shells: 72
    Number of basis functions: 224
    Number of Cartesian functions: 260
    Spherical Harmonics?: true
    Max angular momentum: 3

  Cached 100.0% of DFT collocation blocks in 0.043 [GiB].

  Minimum eigenvalue in the overlap matrix is 3.9512212618E-03.
  Reciprocal condition number of the overlap matrix is 1.2526511433E-03.
    Using symmetric orthogonalization.

  ==> Pre-Iterations <==

  SCF Guess: Superposition of Atomic Potentials (doi:10.1021/acs.jctc.8b01089).

  ==> SAP guess <==

   => Molecular Quadrature <=

    Radial Scheme          =       TREUTLER
    Pruning Scheme         =           NONE
    Nuclear Scheme         =       TREUTLER

    Blocking Scheme        =         OCTREE
    BS radius alpha        =              1
    Pruning alpha          =              1
    Radial Points          =             75
    Spherical Points       =            302
    Total Points           =          42559
    Total Blocks           =            402
    Max Points             =            253
    Max Functions          =             36
    Weights Tolerance      =       1.00E-15

   -------------------------------------------------------
    Irrep   Nso     Nmo     Nalpha   Nbeta   Ndocc  Nsocc
   -------------------------------------------------------
     A1        18      18       8       8       8       0
     A2         2       2       0       0       0       0
     B1         8       8       3       3       3       0
     B2         8       8       3       3       3       0
   -------------------------------------------------------
    Total      36      36      14      14      14       0
   -------------------------------------------------------

  ==> Iterations <==

                           Total Energy        Delta E     RMS |[F,P]|

   @DF-UKS iter   1:  -638.97622321959852   -6.38976e+02   2.76874e-02 ADIIS/DIIS
   @DF-UKS iter   2:  -638.51524077097395    4.60982e-01   4.57140e-02 ADIIS/DIIS/DAMP=1%
   @DF-UKS iter   3:  -639.17577053159960   -6.60530e-01   6.85975e-03 ADIIS/DIIS/DAMP=1%
   @DF-UKS iter   4:  -639.24036803575143   -6.45975e-02   3.92597e-03 ADIIS/DIIS/DAMP=1%
   @DF-UKS iter   5:  -639.24845494028148   -8.08690e-03   5.78350e-04 ADIIS/DIIS/DAMP=1%
   @DF-UKS iter   6:  -639.24917718071333   -7.22240e-04   8.00871e-05 DIIS/DAMP=1%
   @DF-UKS iter   7:  -639.24970172455846   -5.24544e-04   1.57805e-06 DIIS/DAMP=1%
   @DF-UKS iter   8:  -639.24978874474232   -8.70202e-05   3.97566e-07 DIIS/DAMP=1%
   @DF-UKS iter   9:  -639.24978808164269    6.63100e-07   6.14542e-08 DIIS/DAMP=1%
   @DF-UKS iter  10:  -639.24978859606972   -5.14427e-07   1.00921e-08 DIIS/DAMP=1%
   @DF-UKS iter  11:  -639.24978850504772    9.10220e-08   1.12789e-09 DIIS/DAMP=1%
   @DF-UKS iter  12:  -639.24978851737148   -1.23238e-08   2.26273e-11 DIIS/DAMP=1%
   @DF-UKS iter  13:  -639.24978851612173    1.24976e-09   9.93979e-12 DIIS/DAMP=1%
  Energy and wave function converged.


  ==> Post-Iterations <==

   Electrons on quadrature grid:
      Nalpha   =   13.9999981743 ; deviation = -1.826e-06
      Nbeta    =   13.9999981743 ; deviation = -1.826e-06
      Ntotal   =   27.9999963486 ; deviation = -3.651e-06 

   @Spin Contamination Metric:  -3.552713679E-15
   @S^2 Expected:                0.000000000E+00
   @S^2 Observed:               -3.552713679E-15
   @S   Expected:                0.000000000E+00
   @S   Observed:                0.000000000E+00

    Orbital Energies [Eh]
    ---------------------

    Alpha Occupied:                                                       

       1A1   -89.181557     2A1   -56.450685     3A1    -8.306066  
       4A1    -6.286626     1B2    -6.241630     1B1    -6.241630  
       5A1    -4.624388     6A1    -3.215768     2B1    -3.135274  
       2B2    -3.135274     7A1    -1.003365     3B1    -0.636526  
       3B2    -0.636526     8A1    -0.582726  

    Alpha Virtual:                                                        

       9A1    -0.375964     4B1    -0.228369     4B2    -0.228369  
      10A1    -0.138449     5B2    -0.046996     5B1    -0.046996  
       1A2    -0.044049    11A1    -0.044048    12A1    -0.041942  
      13A1     0.085890     6B2     0.097755     6B1     0.097755  
      14A1     0.192525     7B2     0.335545     7B1     0.335545  
       2A2     0.422306    15A1     0.422308    16A1     0.474784  
       8B2     0.659624     8B1     0.659624    17A1     0.817491  
      18A1     1.319685  

    Beta Occupied:                                                        

       1A1   -89.181557     2A1   -56.450685     3A1    -8.306066  
       4A1    -6.286626     1B2    -6.241630     1B1    -6.241630  
       5A1    -4.624388     6A1    -3.215768     2B1    -3.135274  
       2B2    -3.135274     7A1    -1.003365     3B1    -0.636526  
       3B2    -0.636526     8A1    -0.582726  

    Beta Virtual:                                                         

       9A1    -0.375964     4B1    -0.228369     4B2    -0.228369  
      10A1    -0.138449     5B2    -0.046996     5B1    -0.046996  
       1A2    -0.044049    11A1    -0.044048    12A1    -0.041942  
      13A1     0.085890     6B2     0.097755     6B1     0.097755  
      14A1     0.192525     7B2     0.335545     7B1     0.335545  
       2A2     0.422306    15A1     0.422308    16A1     0.474784  
       8B2     0.659624     8B1     0.659624    17A1     0.817491  
      18A1     1.319685  

    Final Occupation by Irrep:
             A1    A2    B1    B2 
    DOCC [     8,    0,    3,    3 ]
    SOCC [     0,    0,    0,    0 ]
    NA   [     8,    0,    3,    3 ]
    NB   [     8,    0,    3,    3 ]

  @DF-UKS Final Energy:  -639.24978851612173

   => Energetics <=

    Nuclear Repulsion Energy =             91.7240498494666809
    One-Electron Energy =               -1057.0273933826165376
    Two-Electron Energy =                 361.9707835742894417
    DFT Exchange-Correlation Energy =     -35.9172285572614101
    Empirical Dispersion Energy =           0.0000000000000000
    VV10 Nonlocal Energy =                  0.0000000000000000
    Total Energy =                       -639.2497885161218392

  UHF NO Occupations:
  HONO-2 :    2 B1 2.0000000
  HONO-1 :    3 B1 2.0000000
  HONO-0 :    8 A1 2.0000000
  LUNO+0 :    9 A1 0.0000000
  LUNO+1 :    4 B1 0.0000000
  LUNO+2 :   10 A1 0.0000000
  LUNO+3 :   11 A1 0.0000000


Computation Completed


Properties will be evaluated at   0.000000,   0.000000,   0.000000 [a0]

Properties computed using the SCF density matrix


 Multipole Moments:

 ------------------------------------------------------------------------------------
     Multipole            Electronic (a.u.)      Nuclear  (a.u.)        Total (a.u.)
 ------------------------------------------------------------------------------------

 L = 1.  Multiply by 2.5417464519 to convert [e a0] to [Debye]
 Dipole X            :          0.0000000            0.0000000            0.0000000
 Dipole Y            :          0.0000000            0.0000000            0.0000000
 Dipole Z            :          2.0490334           -0.6180494            1.4309840
 Magnitude           :                                                    1.4309840

 ------------------------------------------------------------------------------------

*** tstop() called on Joses-MacBook-Pro-2.local at Thu Jul 17 15:19:25 2025
Module time:
	user time   =      17.04 seconds =       0.28 minutes
	system time =       1.51 seconds =       0.03 minutes
	total time  =          2 seconds =       0.03 minutes
Total time:
	user time   =      17.04 seconds =       0.28 minutes
	system time =       1.51 seconds =       0.03 minutes
	total time  =          2 seconds =       0.03 minutes

*** tstart() called on Joses-MacBook-Pro-2.local
*** at Thu Jul 17 15:19:25 2025


         ------------------------------------------------------------
                                   SCF GRAD                          
                          Rob Parrish, Justin Turney,                
                       Andy Simmonett, and Alex Sokolov              
         ------------------------------------------------------------

  ==> Geometry <==

    Molecular point group: c2v
    Full point group: C_inf_v

    Geometry (in Angstrom), charge = 1, multiplicity = 1:

       Center              X                  Y                   Z               Mass       
    ------------   -----------------  -----------------  -----------------  -----------------
         AL           0.000000000000     0.000000000000     0.650791115280    26.981538530000
         S            0.000000000000     0.000000000000    -0.549208884720    31.972071174400

  Nuclear repulsion =   91.724049849466681

  ==> Basis Set <==

  Basis Set: CC-PVDZ
    Blend: CC-PVDZ
    Number of shells: 16
    Number of basis functions: 36
    Number of Cartesian functions: 38
    Spherical Harmonics?: true
    Max angular momentum: 2

  ==> DFJKGrad: Density-Fitted SCF Gradients <==

    Gradient:                    1
    J tasked:                  Yes
    K tasked:                  Yes
    wK tasked:                  No
    OpenMP threads:              1
    Integrals threads:           1
    Memory [MiB]:              375
    Schwarz Cutoff:          1E-12
    Fitting Condition:       1E-10

   => Auxiliary Basis Set <=

  Basis Set: (CC-PVDZ AUX)
    Blend: CC-PVDZ-JKFIT
    Number of shells: 72
    Number of basis functions: 224
    Number of Cartesian functions: 260
    Spherical Harmonics?: true
    Max angular momentum: 3

  ==> DFT Potential <==

   => LibXC <=

    Version 6.2.2
    S. Lehtola, C. Steigemann, M. J.T. Oliveira, and M. A.L. Marques.,  SoftwareX 7, 1–5 (2018) (10.1016/j.softx.2017.11.002)

   => Composite Functional: B3LYP <= 

    B3LYP Hyb-GGA Exchange-Correlation Functional

    P. J. Stephens, F. J. Devlin, C. F. Chabalowski, and M. J. Frisch.,  J. Phys. Chem. 98, 11623 (1994) (10.1021/j100096a001)

    Deriv               =              1
    GGA                 =           TRUE
    Meta                =          FALSE

    Exchange Hybrid     =           TRUE
    MP2 Hybrid          =          FALSE

   => Exchange Functionals <=

    0.0800   Slater exchange
    0.7200         Becke 88

   => Exact (HF) Exchange <=

    0.2000               HF 

   => Correlation Functionals <=

    0.1900   Vosko, Wilk & Nusair (VWN5_RPA)
    0.8100   Lee, Yang & Parr

   => LibXC Density Thresholds  <==

    XC_HYB_GGA_XC_B3LYP:  1.00E-15 

   => Molecular Quadrature <=

    Radial Scheme          =       TREUTLER
    Pruning Scheme         =           NONE
    Nuclear Scheme         =       TREUTLER

    Blocking Scheme        =         OCTREE
    BS radius alpha        =              1
    Pruning alpha          =              1
    Radial Points          =             75
    Spherical Points       =            302
    Total Points           =          42559
    Total Blocks           =            402
    Max Points             =            253
    Max Functions          =             36
    Weights Tolerance      =       1.00E-15


  -Total Gradient:
     Atom            X                  Y                   Z
    ------   -----------------  -----------------  -----------------
       1        0.000000000000    -0.000000000000    -2.265879902509
       2       -0.000000000000     0.000000000000     2.265970445089


*** tstop() called on Joses-MacBook-Pro-2.local at Thu Jul 17 15:19:26 2025
Module time:
	user time   =       2.35 seconds =       0.04 minutes
	system time =       1.49 seconds =       0.02 minutes
	total time  =          1 seconds =       0.02 minutes
Total time:
	user time   =      19.39 seconds =       0.32 minutes
	system time =       3.00 seconds =       0.05 minutes
	total time  =          3 seconds =       0.05 minutes

    			-----------------------------------------

    			 OPTKING 3.0: for geometry optimizations 

    			     By R.A. King, Bethel University     

    			        with contributions from          

    			    A.V. Copan, J. Cayton, A. Heide      

    			-----------------------------------------

    
	                            ===> Fragment 1 <== 

	 Z (Atomic Numbers)          Masses                          Geom                  
	      13.000000            26.981539          0.00000000  0.00000000  1.22981697   
	      16.000000            31.972071          0.00000000  0.00000000 -1.03785438   

	 - Coordinate -           - BOHR/RAD -       - ANG/DEG -
	 R(1,2)           =         2.267671           1.200000


	        --- Internal Coordinate Step in ANG or DEG, aJ/ANG or AJ/DEG ---
	-------------------------------------------------------------------------------
	           Coordinate      Previous         Force          Change          New 
	           ----------      --------        ------          ------        ------
	               R(1,2)       1.20000       18.66833        0.00550       1.20550
	-------------------------------------------------------------------------------

	                                 ==> Convergence Check <==                                  
    
	Measures of convergence in internal coordinates in au.
    
	Criteria marked as inactive (o), active & met (*), and active & unmet ( ).

	----------------------------------------------------------------------------------------------
	   Step    Total Energy     Delta E     Max Force     RMS Force      Max Disp      RMS Disp   
	----------------------------------------------------------------------------------------------
	  Convergence Criteria     1.00e-06 *    3.00e-04 *             o    1.20e-03 *             o
	----------------------------------------------------------------------------------------------
	     1    -639.24978852   -6.39e+02      2.27e+00      2.27e+00 o    1.04e-02      1.04e-02 o  ~
	----------------------------------------------------------------------------------------------

Next Geometry in Ang 
	Fragment 1 (Ang)

	   Al   0.0000000000   0.0000000000   0.6535432386
	    S   0.0000000000   0.0000000000  -0.5519610080


    Structure for next step:
    Molecular point group: c2v
    Full point group: C_inf_v

    Geometry (in Angstrom), charge = 1, multiplicity = 1:

    AL           0.000000000000     0.000000000000     0.653776210918
    S            0.000000000000     0.000000000000    -0.551728035656


Scratch directory: /tmp/
gradient() will perform analytic gradient computation.
   => Libint2 <=

    Primary   basis highest AM E, G, H:  6, 6, 3
    Auxiliary basis highest AM E, G, H:  7, 7, 4
    Onebody   basis highest AM E, G, H:  -, -, -
    Solid Harmonics ordering:            Gaussian

*** tstart() called on Joses-MacBook-Pro-2.local
*** at Thu Jul 17 15:19:26 2025

   => Loading Basis Set <=

    Name: CC-PVDZ
    Role: ORBITAL
    Keyword: BASIS
    atoms 1 entry AL         line   418 file /Users/joseantoniorodriguesromero/anaconda3/share/psi4/basis/cc-pvdz.gbs 
    atoms 2 entry S          line   598 file /Users/joseantoniorodriguesromero/anaconda3/share/psi4/basis/cc-pvdz.gbs 


         ---------------------------------------------------------
                                   SCF
               by Justin Turney, Rob Parrish, Andy Simmonett
                          and Daniel G. A. Smith
                              UKS Reference
                        1 Threads,    500 MiB Core
         ---------------------------------------------------------

  ==> Geometry <==

    Molecular point group: c2v
    Full point group: C_inf_v

    Geometry (in Angstrom), charge = 1, multiplicity = 1:

       Center              X                  Y                   Z               Mass       
    ------------   -----------------  -----------------  -----------------  -----------------
         AL           0.000000000000     0.000000000000     0.653776210918    26.981538530000
         S            0.000000000000     0.000000000000    -0.551728035656    31.972071174400

  Running in c2v symmetry.

  Rotational constants: A = ************  B =      0.79274  C =      0.79274 [cm^-1]
  Rotational constants: A = ************  B =  23765.81055  C =  23765.81055 [MHz]
  Nuclear repulsion =   91.305244367391296

  Charge       = 1
  Multiplicity = 1
  Electrons    = 28
  Nalpha       = 14
  Nbeta        = 14

  ==> Algorithm <==

  SCF Algorithm Type is DF.
  DIIS enabled.
  MOM disabled.
  Fractional occupation disabled.
  Guess Type is READ.
  Energy threshold   = 1.00e-08
  Density threshold  = 1.00e-08
  Integral threshold = 1.00e-12

  ==> Primary Basis <==

  Basis Set: CC-PVDZ
    Blend: CC-PVDZ
    Number of shells: 16
    Number of basis functions: 36
    Number of Cartesian functions: 38
    Spherical Harmonics?: true
    Max angular momentum: 2

  ==> DFT Potential <==

   => LibXC <=

    Version 6.2.2
    S. Lehtola, C. Steigemann, M. J.T. Oliveira, and M. A.L. Marques.,  SoftwareX 7, 1–5 (2018) (10.1016/j.softx.2017.11.002)

   => Composite Functional: B3LYP <= 

    B3LYP Hyb-GGA Exchange-Correlation Functional

    P. J. Stephens, F. J. Devlin, C. F. Chabalowski, and M. J. Frisch.,  J. Phys. Chem. 98, 11623 (1994) (10.1021/j100096a001)

    Deriv               =              1
    GGA                 =           TRUE
    Meta                =          FALSE

    Exchange Hybrid     =           TRUE
    MP2 Hybrid          =          FALSE

   => Exchange Functionals <=

    0.0800   Slater exchange
    0.7200         Becke 88

   => Exact (HF) Exchange <=

    0.2000               HF 

   => Correlation Functionals <=

    0.1900   Vosko, Wilk & Nusair (VWN5_RPA)
    0.8100   Lee, Yang & Parr

   => LibXC Density Thresholds  <==

    XC_HYB_GGA_XC_B3LYP:  1.00E-15 

   => Molecular Quadrature <=

    Radial Scheme          =       TREUTLER
    Pruning Scheme         =           NONE
    Nuclear Scheme         =       TREUTLER

    Blocking Scheme        =         OCTREE
    BS radius alpha        =              1
    Pruning alpha          =              1
    Radial Points          =             75
    Spherical Points       =            302
    Total Points           =          42559
    Total Blocks           =            402
    Max Points             =            253
    Max Functions          =             36
    Weights Tolerance      =       1.00E-15

   => Loading Basis Set <=

    Name: (CC-PVDZ AUX)
    Role: JKFIT
    Keyword: DF_BASIS_SCF
    atoms 1 entry AL         line   371 file /Users/joseantoniorodriguesromero/anaconda3/share/psi4/basis/cc-pvdz-jkfit.gbs 
    atoms 2 entry S          line   593 file /Users/joseantoniorodriguesromero/anaconda3/share/psi4/basis/cc-pvdz-jkfit.gbs 

   => Loading Basis Set <=

    Name: CC-PVDZ
    Role: ORBITAL
    Keyword: BASIS
    atoms 1 entry AL         line   418 file /Users/joseantoniorodriguesromero/anaconda3/share/psi4/basis/cc-pvdz.gbs 
    atoms 2 entry S          line   598 file /Users/joseantoniorodriguesromero/anaconda3/share/psi4/basis/cc-pvdz.gbs 

  Reading orbitals from file /tmp/singlet_AlS.default.75274.180.npy, no projection.

  ==> Integral Setup <==

  DFHelper Memory: AOs need 0.003 GiB; user supplied 0.323 GiB. 
  Using in-core AOs.

  ==> MemDFJK: Density-Fitted J/K Matrices <==

    J tasked:                   Yes
    K tasked:                   Yes
    wK tasked:                   No
    OpenMP threads:               1
    Memory [MiB]:               330
    Algorithm:                 Core
    Schwarz Cutoff:           1E-12
    Mask sparsity (%):       0.0000
    Fitting Condition:        1E-10

   => Auxiliary Basis Set <=

  Basis Set: (CC-PVDZ AUX)
    Blend: CC-PVDZ-JKFIT
    Number of shells: 72
    Number of basis functions: 224
    Number of Cartesian functions: 260
    Spherical Harmonics?: true
    Max angular momentum: 3

  Cached 100.0% of DFT collocation blocks in 0.043 [GiB].

  Minimum eigenvalue in the overlap matrix is 4.0050683934E-03.
  Reciprocal condition number of the overlap matrix is 1.2698125962E-03.
    Using symmetric orthogonalization.

  ==> Pre-Iterations <==

  SCF Guess: Orbitals guess was supplied from a previous computation.

   -------------------------------------------------------
    Irrep   Nso     Nmo     Nalpha   Nbeta   Ndocc  Nsocc
   -------------------------------------------------------
     A1        18      18       8       8       8       0
     A2         2       2       0       0       0       0
     B1         8       8       3       3       3       0
     B2         8       8       3       3       3       0
   -------------------------------------------------------
    Total      36      36      14      14      14       0
   -------------------------------------------------------

  ==> Iterations <==

                           Total Energy        Delta E     RMS |[F,P]|

   @DF-UKS iter   0:  -639.26921955708860   -6.39269e+02   1.76682e-03 
   @DF-UKS iter   1:  -639.27314148913160   -3.92193e-03   8.33306e-05 DIIS
   @DF-UKS iter   2:  -639.27314008646260    1.40267e-06   9.87413e-05 DIIS/DAMP=1%
   @DF-UKS iter   3:  -639.27329367207494   -1.53586e-04   2.98153e-05 DIIS/DAMP=1%
   @DF-UKS iter   4:  -639.27312921718544    1.64455e-04   3.32468e-06 DIIS/DAMP=1%
   @DF-UKS iter   5:  -639.27314074093556   -1.15238e-05   3.70885e-07 DIIS/DAMP=1%
   @DF-UKS iter   6:  -639.27314370543775   -2.96450e-06   1.76237e-08 DIIS/DAMP=1%
   @DF-UKS iter   7:  -639.27314320632695    4.99111e-07   3.09431e-09 DIIS/DAMP=1%
   @DF-UKS iter   8:  -639.27314321709389   -1.07669e-08   7.34938e-11 DIIS/DAMP=1%
   @DF-UKS iter   9:  -639.27314321303083    4.06305e-09   3.95287e-12 DIIS/DAMP=1%
  Energy and wave function converged.


  ==> Post-Iterations <==

   Electrons on quadrature grid:
      Nalpha   =   13.9999982567 ; deviation = -1.743e-06
      Nbeta    =   13.9999982567 ; deviation = -1.743e-06
      Ntotal   =   27.9999965135 ; deviation = -3.487e-06 

   @Spin Contamination Metric:   3.907985047E-14
   @S^2 Expected:                0.000000000E+00
   @S^2 Observed:                3.907985047E-14
   @S   Expected:                0.000000000E+00
   @S   Observed:                0.000000000E+00

    Orbital Energies [Eh]
    ---------------------

    Alpha Occupied:                                                       

       1A1   -89.178225     2A1   -56.446980     3A1    -8.301995  
       4A1    -6.282219     1B1    -6.238074     1B2    -6.238074  
       5A1    -4.619508     6A1    -3.210856     2B1    -3.131404  
       2B2    -3.131404     7A1    -1.003085     3B2    -0.634695  
       3B1    -0.634695     8A1    -0.583004  

    Alpha Virtual:                                                        

       9A1    -0.377109     4B1    -0.228638     4B2    -0.228638  
      10A1    -0.138721     5B1    -0.046634     5B2    -0.046634  
       1A2    -0.043203    11A1    -0.043202    12A1    -0.042085  
      13A1     0.085051     6B1     0.097417     6B2     0.097417  
      14A1     0.190888     7B1     0.335619     7B2     0.335619  
       2A2     0.422484    15A1     0.422486    16A1     0.474154  
       8B1     0.660000     8B2     0.660000    17A1     0.815268  
      18A1     1.306056  

    Beta Occupied:                                                        

       1A1   -89.178225     2A1   -56.446980     3A1    -8.301995  
       4A1    -6.282219     1B1    -6.238074     1B2    -6.238074  
       5A1    -4.619508     6A1    -3.210856     2B1    -3.131404  
       2B2    -3.131404     7A1    -1.003085     3B2    -0.634695  
       3B1    -0.634695     8A1    -0.583004  

    Beta Virtual:                                                         

       9A1    -0.377109     4B1    -0.228638     4B2    -0.228638  
      10A1    -0.138721     5B1    -0.046634     5B2    -0.046634  
       1A2    -0.043203    11A1    -0.043202    12A1    -0.042085  
      13A1     0.085051     6B1     0.097417     6B2     0.097417  
      14A1     0.190888     7B1     0.335619     7B2     0.335619  
       2A2     0.422484    15A1     0.422486    16A1     0.474154  
       8B1     0.660000     8B2     0.660000    17A1     0.815268  
      18A1     1.306056  

    Final Occupation by Irrep:
             A1    A2    B1    B2 
    DOCC [     8,    0,    3,    3 ]
    SOCC [     0,    0,    0,    0 ]
    NA   [     8,    0,    3,    3 ]
    NB   [     8,    0,    3,    3 ]

  @DF-UKS Final Energy:  -639.27314321303083

   => Energetics <=

    Nuclear Repulsion Energy =             91.3052443673912961
    One-Electron Energy =               -1056.3264399281924852
    Two-Electron Energy =                 361.6618997987462762
    DFT Exchange-Correlation Energy =     -35.9138474509759007
    Empirical Dispersion Energy =           0.0000000000000000
    VV10 Nonlocal Energy =                  0.0000000000000000
    Total Energy =                       -639.2731432130308349

  UHF NO Occupations:
  HONO-2 :    6 A1 2.0000000
  HONO-1 :    7 A1 2.0000000
  HONO-0 :    8 A1 2.0000000
  LUNO+0 :    9 A1 0.0000000
  LUNO+1 :    4 B1 0.0000000
  LUNO+2 :   10 A1 0.0000000
  LUNO+3 :   11 A1 0.0000000


Computation Completed


Properties will be evaluated at   0.000000,   0.000000,   0.000000 [a0]

Properties computed using the SCF density matrix


 Multipole Moments:

 ------------------------------------------------------------------------------------
     Multipole            Electronic (a.u.)      Nuclear  (a.u.)        Total (a.u.)
 ------------------------------------------------------------------------------------

 L = 1.  Multiply by 2.5417464519 to convert [e a0] to [Debye]
 Dipole X            :          0.0000000            0.0000000            0.0000000
 Dipole Y            :          0.0000000            0.0000000            0.0000000
 Dipole Z            :          2.0678552           -0.6208843            1.4469709
 Magnitude           :                                                    1.4469709

 ------------------------------------------------------------------------------------

*** tstop() called on Joses-MacBook-Pro-2.local at Thu Jul 17 15:19:26 2025
Module time:
	user time   =       8.24 seconds =       0.14 minutes
	system time =       1.65 seconds =       0.03 minutes
	total time  =          0 seconds =       0.00 minutes
Total time:
	user time   =      27.78 seconds =       0.46 minutes
	system time =       4.83 seconds =       0.08 minutes
	total time  =          3 seconds =       0.05 minutes

*** tstart() called on Joses-MacBook-Pro-2.local
*** at Thu Jul 17 15:19:26 2025


         ------------------------------------------------------------
                                   SCF GRAD                          
                          Rob Parrish, Justin Turney,                
                       Andy Simmonett, and Alex Sokolov              
         ------------------------------------------------------------

  ==> Geometry <==

    Molecular point group: c2v
    Full point group: C_inf_v

    Geometry (in Angstrom), charge = 1, multiplicity = 1:

       Center              X                  Y                   Z               Mass       
    ------------   -----------------  -----------------  -----------------  -----------------
         AL           0.000000000000     0.000000000000     0.653776210918    26.981538530000
         S            0.000000000000     0.000000000000    -0.551728035656    31.972071174400

  Nuclear repulsion =   91.305244367391296

  ==> Basis Set <==

  Basis Set: CC-PVDZ
    Blend: CC-PVDZ
    Number of shells: 16
    Number of basis functions: 36
    Number of Cartesian functions: 38
    Spherical Harmonics?: true
    Max angular momentum: 2

  ==> DFJKGrad: Density-Fitted SCF Gradients <==

    Gradient:                    1
    J tasked:                  Yes
    K tasked:                  Yes
    wK tasked:                  No
    OpenMP threads:              1
    Integrals threads:           1
    Memory [MiB]:              375
    Schwarz Cutoff:          1E-12
    Fitting Condition:       1E-10

   => Auxiliary Basis Set <=

  Basis Set: (CC-PVDZ AUX)
    Blend: CC-PVDZ-JKFIT
    Number of shells: 72
    Number of basis functions: 224
    Number of Cartesian functions: 260
    Spherical Harmonics?: true
    Max angular momentum: 3

  ==> DFT Potential <==

   => LibXC <=

    Version 6.2.2
    S. Lehtola, C. Steigemann, M. J.T. Oliveira, and M. A.L. Marques.,  SoftwareX 7, 1–5 (2018) (10.1016/j.softx.2017.11.002)

   => Composite Functional: B3LYP <= 

    B3LYP Hyb-GGA Exchange-Correlation Functional

    P. J. Stephens, F. J. Devlin, C. F. Chabalowski, and M. J. Frisch.,  J. Phys. Chem. 98, 11623 (1994) (10.1021/j100096a001)

    Deriv               =              1
    GGA                 =           TRUE
    Meta                =          FALSE

    Exchange Hybrid     =           TRUE
    MP2 Hybrid          =          FALSE

   => Exchange Functionals <=

    0.0800   Slater exchange
    0.7200         Becke 88

   => Exact (HF) Exchange <=

    0.2000               HF 

   => Correlation Functionals <=

    0.1900   Vosko, Wilk & Nusair (VWN5_RPA)
    0.8100   Lee, Yang & Parr

   => LibXC Density Thresholds  <==

    XC_HYB_GGA_XC_B3LYP:  1.00E-15 

   => Molecular Quadrature <=

    Radial Scheme          =       TREUTLER
    Pruning Scheme         =           NONE
    Nuclear Scheme         =       TREUTLER

    Blocking Scheme        =         OCTREE
    BS radius alpha        =              1
    Pruning alpha          =              1
    Radial Points          =             75
    Spherical Points       =            302
    Total Points           =          42559
    Total Blocks           =            402
    Max Points             =            253
    Max Functions          =             36
    Weights Tolerance      =       1.00E-15


  -Total Gradient:
     Atom            X                  Y                   Z
    ------   -----------------  -----------------  -----------------
       1        0.000000000000     0.000000000000    -2.224716019697
       2        0.000000000000     0.000000000000     2.224802072712


*** tstop() called on Joses-MacBook-Pro-2.local at Thu Jul 17 15:19:27 2025
Module time:
	user time   =       2.55 seconds =       0.04 minutes
	system time =       0.87 seconds =       0.01 minutes
	total time  =          1 seconds =       0.02 minutes
Total time:
	user time   =      30.34 seconds =       0.51 minutes
	system time =       5.70 seconds =       0.09 minutes
	total time  =          4 seconds =       0.07 minutes

    			-----------------------------------------

    			 OPTKING 3.0: for geometry optimizations 

    			     By R.A. King, Bethel University     

    			        with contributions from          

    			    A.V. Copan, J. Cayton, A. Heide      

    			-----------------------------------------

    
	                            ===> Fragment 1 <== 

	 Z (Atomic Numbers)          Masses                          Geom                  
	      13.000000            26.981539          0.00000000  0.00000000  1.23545799   
	      16.000000            31.972071          0.00000000  0.00000000 -1.04261488   

	 - Coordinate -           - BOHR/RAD -       - ANG/DEG -
	 R(1,2)           =         2.278073           1.205504


	        --- Internal Coordinate Step in ANG or DEG, aJ/ANG or AJ/DEG ---
	-------------------------------------------------------------------------------
	           Coordinate      Previous         Force          Change          New 
	           ----------      --------        ------          ------        ------
	               R(1,2)       1.20550       18.32917        0.01081       1.21631
	-------------------------------------------------------------------------------

	                                 ==> Convergence Check <==                                  
    
	Measures of convergence in internal coordinates in au.
    
	Criteria marked as inactive (o), active & met (*), and active & unmet ( ).

	----------------------------------------------------------------------------------------------
	   Step    Total Energy     Delta E     Max Force     RMS Force      Max Disp      RMS Disp   
	----------------------------------------------------------------------------------------------
	  Convergence Criteria     1.00e-06 *    3.00e-04 *             o    1.20e-03 *             o
	----------------------------------------------------------------------------------------------
	     2    -639.27314321   -2.34e-02      2.22e+00      2.22e+00 o    2.04e-02      2.04e-02 o  ~
	----------------------------------------------------------------------------------------------

Next Geometry in Ang 
	Fragment 1 (Ang)

	   Al   0.0000000000   0.0000000000   0.6591787906
	    S   0.0000000000   0.0000000000  -0.5571306153


    Structure for next step:
    Molecular point group: c2v
    Full point group: C_inf_v

    Geometry (in Angstrom), charge = 1, multiplicity = 1:

    AL           0.000000000000     0.000000000000     0.659636129006
    S            0.000000000000     0.000000000000    -0.556673276919


Scratch directory: /tmp/
gradient() will perform analytic gradient computation.
   => Libint2 <=

    Primary   basis highest AM E, G, H:  6, 6, 3
    Auxiliary basis highest AM E, G, H:  7, 7, 4
    Onebody   basis highest AM E, G, H:  -, -, -
    Solid Harmonics ordering:            Gaussian

*** tstart() called on Joses-MacBook-Pro-2.local
*** at Thu Jul 17 15:19:27 2025

   => Loading Basis Set <=

    Name: CC-PVDZ
    Role: ORBITAL
    Keyword: BASIS
    atoms 1 entry AL         line   418 file /Users/joseantoniorodriguesromero/anaconda3/share/psi4/basis/cc-pvdz.gbs 
    atoms 2 entry S          line   598 file /Users/joseantoniorodriguesromero/anaconda3/share/psi4/basis/cc-pvdz.gbs 


         ---------------------------------------------------------
                                   SCF
               by Justin Turney, Rob Parrish, Andy Simmonett
                          and Daniel G. A. Smith
                              UKS Reference
                        1 Threads,    500 MiB Core
         ---------------------------------------------------------

  ==> Geometry <==

    Molecular point group: c2v
    Full point group: C_inf_v

    Geometry (in Angstrom), charge = 1, multiplicity = 1:

       Center              X                  Y                   Z               Mass       
    ------------   -----------------  -----------------  -----------------  -----------------
         AL           0.000000000000     0.000000000000     0.659636129006    26.981538530000
         S            0.000000000000     0.000000000000    -0.556673276919    31.972071174400

  Running in c2v symmetry.

  Rotational constants: A = ************  B =      0.77872  C =      0.77872 [cm^-1]
  Rotational constants: A = ************  B =  23345.43601  C =  23345.43601 [MHz]
  Nuclear repulsion =   90.494128618213537

  Charge       = 1
  Multiplicity = 1
  Electrons    = 28
  Nalpha       = 14
  Nbeta        = 14

  ==> Algorithm <==

  SCF Algorithm Type is DF.
  DIIS enabled.
  MOM disabled.
  Fractional occupation disabled.
  Guess Type is READ.
  Energy threshold   = 1.00e-08
  Density threshold  = 1.00e-08
  Integral threshold = 1.00e-12

  ==> Primary Basis <==

  Basis Set: CC-PVDZ
    Blend: CC-PVDZ
    Number of shells: 16
    Number of basis functions: 36
    Number of Cartesian functions: 38
    Spherical Harmonics?: true
    Max angular momentum: 2

  ==> DFT Potential <==

   => LibXC <=

    Version 6.2.2
    S. Lehtola, C. Steigemann, M. J.T. Oliveira, and M. A.L. Marques.,  SoftwareX 7, 1–5 (2018) (10.1016/j.softx.2017.11.002)

   => Composite Functional: B3LYP <= 

    B3LYP Hyb-GGA Exchange-Correlation Functional

    P. J. Stephens, F. J. Devlin, C. F. Chabalowski, and M. J. Frisch.,  J. Phys. Chem. 98, 11623 (1994) (10.1021/j100096a001)

    Deriv               =              1
    GGA                 =           TRUE
    Meta                =          FALSE

    Exchange Hybrid     =           TRUE
    MP2 Hybrid          =          FALSE

   => Exchange Functionals <=

    0.0800   Slater exchange
    0.7200         Becke 88

   => Exact (HF) Exchange <=

    0.2000               HF 

   => Correlation Functionals <=

    0.1900   Vosko, Wilk & Nusair (VWN5_RPA)
    0.8100   Lee, Yang & Parr

   => LibXC Density Thresholds  <==

    XC_HYB_GGA_XC_B3LYP:  1.00E-15 

   => Molecular Quadrature <=

    Radial Scheme          =       TREUTLER
    Pruning Scheme         =           NONE
    Nuclear Scheme         =       TREUTLER

    Blocking Scheme        =         OCTREE
    BS radius alpha        =              1
    Pruning alpha          =              1
    Radial Points          =             75
    Spherical Points       =            302
    Total Points           =          42559
    Total Blocks           =            402
    Max Points             =            253
    Max Functions          =             36
    Weights Tolerance      =       1.00E-15

   => Loading Basis Set <=

    Name: (CC-PVDZ AUX)
    Role: JKFIT
    Keyword: DF_BASIS_SCF
    atoms 1 entry AL         line   371 file /Users/joseantoniorodriguesromero/anaconda3/share/psi4/basis/cc-pvdz-jkfit.gbs 
    atoms 2 entry S          line   593 file /Users/joseantoniorodriguesromero/anaconda3/share/psi4/basis/cc-pvdz-jkfit.gbs 

   => Loading Basis Set <=

    Name: CC-PVDZ
    Role: ORBITAL
    Keyword: BASIS
    atoms 1 entry AL         line   418 file /Users/joseantoniorodriguesromero/anaconda3/share/psi4/basis/cc-pvdz.gbs 
    atoms 2 entry S          line   598 file /Users/joseantoniorodriguesromero/anaconda3/share/psi4/basis/cc-pvdz.gbs 

  Reading orbitals from file /tmp/singlet_AlS.default.75274.180.npy, no projection.

  ==> Integral Setup <==

  DFHelper Memory: AOs need 0.003 GiB; user supplied 0.323 GiB. 
  Using in-core AOs.

  ==> MemDFJK: Density-Fitted J/K Matrices <==

    J tasked:                   Yes
    K tasked:                   Yes
    wK tasked:                   No
    OpenMP threads:               1
    Memory [MiB]:               330
    Algorithm:                 Core
    Schwarz Cutoff:           1E-12
    Mask sparsity (%):       0.0000
    Fitting Condition:        1E-10

   => Auxiliary Basis Set <=

  Basis Set: (CC-PVDZ AUX)
    Blend: CC-PVDZ-JKFIT
    Number of shells: 72
    Number of basis functions: 224
    Number of Cartesian functions: 260
    Spherical Harmonics?: true
    Max angular momentum: 3

  Cached 100.0% of DFT collocation blocks in 0.043 [GiB].

  Minimum eigenvalue in the overlap matrix is 4.1128084527E-03.
  Reciprocal condition number of the overlap matrix is 1.3041612947E-03.
    Using symmetric orthogonalization.

  ==> Pre-Iterations <==

  SCF Guess: Orbitals guess was supplied from a previous computation.

   -------------------------------------------------------
    Irrep   Nso     Nmo     Nalpha   Nbeta   Ndocc  Nsocc
   -------------------------------------------------------
     A1        18      18       8       8       8       0
     A2         2       2       0       0       0       0
     B1         8       8       3       3       3       0
     B2         8       8       3       3       3       0
   -------------------------------------------------------
    Total      36      36      14      14      14       0
   -------------------------------------------------------

  ==> Iterations <==

                           Total Energy        Delta E     RMS |[F,P]|

   @DF-UKS iter   0:  -639.31021588093756   -6.39310e+02   3.44150e-03 
   @DF-UKS iter   1:  -639.31775505461189   -7.53917e-03   1.62391e-04 ADIIS/DIIS
   @DF-UKS iter   2:  -639.31774961092833    5.44368e-06   1.93255e-04 ADIIS/DIIS/DAMP=1%
   @DF-UKS iter   3:  -639.31805629090240   -3.06680e-04   5.89740e-05 DIIS/DAMP=1%
   @DF-UKS iter   4:  -639.31773337637662    3.22915e-04   6.50885e-06 DIIS/DAMP=1%
   @DF-UKS iter   5:  -639.31775676320035   -2.33868e-05   7.23239e-07 DIIS/DAMP=1%
   @DF-UKS iter   6:  -639.31776255207262   -5.78887e-06   3.41078e-08 DIIS/DAMP=1%
   @DF-UKS iter   7:  -639.31776158393473    9.68138e-07   6.45373e-09 DIIS/DAMP=1%
   @DF-UKS iter   8:  -639.31776160553420   -2.15995e-08   1.50558e-10 DIIS/DAMP=1%
   @DF-UKS iter   9:  -639.31776159690560    8.62860e-09   2.24287e-11 DIIS/DAMP=1%
  Energy and wave function converged.


  ==> Post-Iterations <==

   Electrons on quadrature grid:
      Nalpha   =   13.9999984393 ; deviation = -1.561e-06
      Nbeta    =   13.9999984393 ; deviation = -1.561e-06
      Ntotal   =   27.9999968785 ; deviation = -3.121e-06 

   @Spin Contamination Metric:   0.000000000E+00
   @S^2 Expected:                0.000000000E+00
   @S^2 Observed:                0.000000000E+00
   @S   Expected:                0.000000000E+00
   @S   Observed:                0.000000000E+00

    Orbital Energies [Eh]
    ---------------------

    Alpha Occupied:                                                       

       1A1   -89.171906     2A1   -56.440031     3A1    -8.294258  
       4A1    -6.273831     1B1    -6.231312     1B2    -6.231312  
       5A1    -4.610288     6A1    -3.201468     2B2    -3.124101  
       2B1    -3.124101     7A1    -1.002544     3B2    -0.631139  
       3B1    -0.631139     8A1    -0.583560  

    Alpha Virtual:                                                        

       9A1    -0.379328     4B2    -0.229184     4B1    -0.229184  
      10A1    -0.139255     5B2    -0.045928     5B1    -0.045928  
      11A1    -0.042372     1A2    -0.041575    12A1    -0.041574  
      13A1     0.083465     6B2     0.096748     6B1     0.096748  
      14A1     0.187730     7B2     0.335764     7B1     0.335764  
       2A2     0.422815    15A1     0.422817    16A1     0.472951  
       8B2     0.660706     8B1     0.660706    17A1     0.810910  
      18A1     1.280437  

    Beta Occupied:                                                        

       1A1   -89.171906     2A1   -56.440031     3A1    -8.294258  
       4A1    -6.273831     1B1    -6.231312     1B2    -6.231312  
       5A1    -4.610288     6A1    -3.201468     2B2    -3.124101  
       2B1    -3.124101     7A1    -1.002544     3B2    -0.631139  
       3B1    -0.631139     8A1    -0.583560  

    Beta Virtual:                                                         

       9A1    -0.379328     4B2    -0.229184     4B1    -0.229184  
      10A1    -0.139255     5B2    -0.045928     5B1    -0.045928  
      11A1    -0.042372     1A2    -0.041575    12A1    -0.041574  
      13A1     0.083465     6B2     0.096748     6B1     0.096748  
      14A1     0.187730     7B2     0.335764     7B1     0.335764  
       2A2     0.422815    15A1     0.422817    16A1     0.472951  
       8B2     0.660706     8B1     0.660706    17A1     0.810910  
      18A1     1.280437  

    Final Occupation by Irrep:
             A1    A2    B1    B2 
    DOCC [     8,    0,    3,    3 ]
    SOCC [     0,    0,    0,    0 ]
    NA   [     8,    0,    3,    3 ]
    NB   [     8,    0,    3,    3 ]

  @DF-UKS Final Energy:  -639.31776159690560

   => Energetics <=

    Nuclear Repulsion Energy =             90.4941286182135372
    One-Electron Energy =               -1054.9644261588721292
    Two-Electron Energy =                 361.0597489664415889
    DFT Exchange-Correlation Energy =     -35.9072130226885804
    Empirical Dispersion Energy =           0.0000000000000000
    VV10 Nonlocal Energy =                  0.0000000000000000
    Total Energy =                       -639.3177615969055978

  UHF NO Occupations:
  HONO-2 :    6 A1 2.0000000
  HONO-1 :    7 A1 2.0000000
  HONO-0 :    8 A1 2.0000000
  LUNO+0 :    9 A1 0.0000000
  LUNO+1 :   10 A1 0.0000000
  LUNO+2 :    4 B2 0.0000000
  LUNO+3 :   11 A1 0.0000000


Computation Completed


Properties will be evaluated at   0.000000,   0.000000,   0.000000 [a0]

Properties computed using the SCF density matrix


 Multipole Moments:

 ------------------------------------------------------------------------------------
     Multipole            Electronic (a.u.)      Nuclear  (a.u.)        Total (a.u.)
 ------------------------------------------------------------------------------------

 L = 1.  Multiply by 2.5417464519 to convert [e a0] to [Debye]
 Dipole X            :          0.0000000            0.0000000            0.0000000
 Dipole Y            :          0.0000000            0.0000000            0.0000000
 Dipole Z            :          2.1046745           -0.6264494            1.4782251
 Magnitude           :                                                    1.4782251

 ------------------------------------------------------------------------------------

*** tstop() called on Joses-MacBook-Pro-2.local at Thu Jul 17 15:19:28 2025
Module time:
	user time   =       8.38 seconds =       0.14 minutes
	system time =       1.92 seconds =       0.03 minutes
	total time  =          1 seconds =       0.02 minutes
Total time:
	user time   =      38.99 seconds =       0.65 minutes
	system time =       7.62 seconds =       0.13 minutes
	total time  =          5 seconds =       0.08 minutes

*** tstart() called on Joses-MacBook-Pro-2.local
*** at Thu Jul 17 15:19:28 2025


         ------------------------------------------------------------
                                   SCF GRAD                          
                          Rob Parrish, Justin Turney,                
                       Andy Simmonett, and Alex Sokolov              
         ------------------------------------------------------------

  ==> Geometry <==

    Molecular point group: c2v
    Full point group: C_inf_v

    Geometry (in Angstrom), charge = 1, multiplicity = 1:

       Center              X                  Y                   Z               Mass       
    ------------   -----------------  -----------------  -----------------  -----------------
         AL           0.000000000000     0.000000000000     0.659636129006    26.981538530000
         S            0.000000000000     0.000000000000    -0.556673276919    31.972071174400

  Nuclear repulsion =   90.494128618213537

  ==> Basis Set <==

  Basis Set: CC-PVDZ
    Blend: CC-PVDZ
    Number of shells: 16
    Number of basis functions: 36
    Number of Cartesian functions: 38
    Spherical Harmonics?: true
    Max angular momentum: 2

  ==> DFJKGrad: Density-Fitted SCF Gradients <==

    Gradient:                    1
    J tasked:                  Yes
    K tasked:                  Yes
    wK tasked:                  No
    OpenMP threads:              1
    Integrals threads:           1
    Memory [MiB]:              375
    Schwarz Cutoff:          1E-12
    Fitting Condition:       1E-10

   => Auxiliary Basis Set <=

  Basis Set: (CC-PVDZ AUX)
    Blend: CC-PVDZ-JKFIT
    Number of shells: 72
    Number of basis functions: 224
    Number of Cartesian functions: 260
    Spherical Harmonics?: true
    Max angular momentum: 3

  ==> DFT Potential <==

   => LibXC <=

    Version 6.2.2
    S. Lehtola, C. Steigemann, M. J.T. Oliveira, and M. A.L. Marques.,  SoftwareX 7, 1–5 (2018) (10.1016/j.softx.2017.11.002)

   => Composite Functional: B3LYP <= 

    B3LYP Hyb-GGA Exchange-Correlation Functional

    P. J. Stephens, F. J. Devlin, C. F. Chabalowski, and M. J. Frisch.,  J. Phys. Chem. 98, 11623 (1994) (10.1021/j100096a001)

    Deriv               =              1
    GGA                 =           TRUE
    Meta                =          FALSE

    Exchange Hybrid     =           TRUE
    MP2 Hybrid          =          FALSE

   => Exchange Functionals <=

    0.0800   Slater exchange
    0.7200         Becke 88

   => Exact (HF) Exchange <=

    0.2000               HF 

   => Correlation Functionals <=

    0.1900   Vosko, Wilk & Nusair (VWN5_RPA)
    0.8100   Lee, Yang & Parr

   => LibXC Density Thresholds  <==

    XC_HYB_GGA_XC_B3LYP:  1.00E-15 

   => Molecular Quadrature <=

    Radial Scheme          =       TREUTLER
    Pruning Scheme         =           NONE
    Nuclear Scheme         =       TREUTLER

    Blocking Scheme        =         OCTREE
    BS radius alpha        =              1
    Pruning alpha          =              1
    Radial Points          =             75
    Spherical Points       =            302
    Total Points           =          42559
    Total Blocks           =            402
    Max Points             =            253
    Max Functions          =             36
    Weights Tolerance      =       1.00E-15


  -Total Gradient:
     Atom            X                  Y                   Z
    ------   -----------------  -----------------  -----------------
       1       -0.000000000000     0.000000000000    -2.145874047222
       2        0.000000000000     0.000000000000     2.145947159549


*** tstop() called on Joses-MacBook-Pro-2.local at Thu Jul 17 15:19:28 2025
Module time:
	user time   =       2.59 seconds =       0.04 minutes
	system time =       1.06 seconds =       0.02 minutes
	total time  =          0 seconds =       0.00 minutes
Total time:
	user time   =      41.58 seconds =       0.69 minutes
	system time =       8.68 seconds =       0.14 minutes
	total time  =          5 seconds =       0.08 minutes

    			-----------------------------------------

    			 OPTKING 3.0: for geometry optimizations 

    			     By R.A. King, Bethel University     

    			        with contributions from          

    			    A.V. Copan, J. Cayton, A. Heide      

    			-----------------------------------------

    
	                            ===> Fragment 1 <== 

	 Z (Atomic Numbers)          Masses                          Geom                  
	      13.000000            26.981539          0.00000000  0.00000000  1.24653163   
	      16.000000            31.972071          0.00000000  0.00000000 -1.05196003   

	 - Coordinate -           - BOHR/RAD -       - ANG/DEG -
	 R(1,2)           =         2.298492           1.216309


	        --- Internal Coordinate Step in ANG or DEG, aJ/ANG or AJ/DEG ---
	-------------------------------------------------------------------------------
	           Coordinate      Previous         Force          Change          New 
	           ----------      --------        ------          ------        ------
	               R(1,2)       1.21631       17.67956        0.04145       1.25776
	-------------------------------------------------------------------------------

	                                 ==> Convergence Check <==                                  
    
	Measures of convergence in internal coordinates in au.
    
	Criteria marked as inactive (o), active & met (*), and active & unmet ( ).

	----------------------------------------------------------------------------------------------
	   Step    Total Energy     Delta E     Max Force     RMS Force      Max Disp      RMS Disp   
	----------------------------------------------------------------------------------------------
	  Convergence Criteria     1.00e-06 *    3.00e-04 *             o    1.20e-03 *             o
	----------------------------------------------------------------------------------------------
	     3    -639.31776160   -4.46e-02      2.15e+00      2.15e+00 o    7.83e-02      7.83e-02 o  ~
	----------------------------------------------------------------------------------------------

Next Geometry in Ang 
	Fragment 1 (Ang)

	   Al   0.0000000000   0.0000000000   0.6803612978
	    S   0.0000000000   0.0000000000  -0.5773984458


    Structure for next step:
    Molecular point group: c2v
    Full point group: C_inf_v

    Geometry (in Angstrom), charge = 1, multiplicity = 1:

    AL           0.000000000000     0.000000000000     0.682115721902
    S            0.000000000000     0.000000000000    -0.575644021685


Scratch directory: /tmp/
gradient() will perform analytic gradient computation.
   => Libint2 <=

    Primary   basis highest AM E, G, H:  6, 6, 3
    Auxiliary basis highest AM E, G, H:  7, 7, 4
    Onebody   basis highest AM E, G, H:  -, -, -
    Solid Harmonics ordering:            Gaussian

*** tstart() called on Joses-MacBook-Pro-2.local
*** at Thu Jul 17 15:19:28 2025

   => Loading Basis Set <=

    Name: CC-PVDZ
    Role: ORBITAL
    Keyword: BASIS
    atoms 1 entry AL         line   418 file /Users/joseantoniorodriguesromero/anaconda3/share/psi4/basis/cc-pvdz.gbs 
    atoms 2 entry S          line   598 file /Users/joseantoniorodriguesromero/anaconda3/share/psi4/basis/cc-pvdz.gbs 


         ---------------------------------------------------------
                                   SCF
               by Justin Turney, Rob Parrish, Andy Simmonett
                          and Daniel G. A. Smith
                              UKS Reference
                        1 Threads,    500 MiB Core
         ---------------------------------------------------------

  ==> Geometry <==

    Molecular point group: c2v
    Full point group: C_inf_v

    Geometry (in Angstrom), charge = 1, multiplicity = 1:

       Center              X                  Y                   Z               Mass       
    ------------   -----------------  -----------------  -----------------  -----------------
         AL           0.000000000000     0.000000000000     0.682115721902    26.981538530000
         S            0.000000000000     0.000000000000    -0.575644021685    31.972071174400

  Running in c2v symmetry.

  Rotational constants: A = ************  B =      0.72824  C =      0.72824 [cm^-1]
  Rotational constants: A = ************  B =  21832.06115  C =  21832.06115 [MHz]
  Nuclear repulsion =   87.511832351605761

  Charge       = 1
  Multiplicity = 1
  Electrons    = 28
  Nalpha       = 14
  Nbeta        = 14

  ==> Algorithm <==

  SCF Algorithm Type is DF.
  DIIS enabled.
  MOM disabled.
  Fractional occupation disabled.
  Guess Type is READ.
  Energy threshold   = 1.00e-08
  Density threshold  = 1.00e-08
  Integral threshold = 1.00e-12

  ==> Primary Basis <==

  Basis Set: CC-PVDZ
    Blend: CC-PVDZ
    Number of shells: 16
    Number of basis functions: 36
    Number of Cartesian functions: 38
    Spherical Harmonics?: true
    Max angular momentum: 2

  ==> DFT Potential <==

   => LibXC <=

    Version 6.2.2
    S. Lehtola, C. Steigemann, M. J.T. Oliveira, and M. A.L. Marques.,  SoftwareX 7, 1–5 (2018) (10.1016/j.softx.2017.11.002)

   => Composite Functional: B3LYP <= 

    B3LYP Hyb-GGA Exchange-Correlation Functional

    P. J. Stephens, F. J. Devlin, C. F. Chabalowski, and M. J. Frisch.,  J. Phys. Chem. 98, 11623 (1994) (10.1021/j100096a001)

    Deriv               =              1
    GGA                 =           TRUE
    Meta                =          FALSE

    Exchange Hybrid     =           TRUE
    MP2 Hybrid          =          FALSE

   => Exchange Functionals <=

    0.0800   Slater exchange
    0.7200         Becke 88

   => Exact (HF) Exchange <=

    0.2000               HF 

   => Correlation Functionals <=

    0.1900   Vosko, Wilk & Nusair (VWN5_RPA)
    0.8100   Lee, Yang & Parr

   => LibXC Density Thresholds  <==

    XC_HYB_GGA_XC_B3LYP:  1.00E-15 

   => Molecular Quadrature <=

    Radial Scheme          =       TREUTLER
    Pruning Scheme         =           NONE
    Nuclear Scheme         =       TREUTLER

    Blocking Scheme        =         OCTREE
    BS radius alpha        =              1
    Pruning alpha          =              1
    Radial Points          =             75
    Spherical Points       =            302
    Total Points           =          42563
    Total Blocks           =            401
    Max Points             =            256
    Max Functions          =             36
    Weights Tolerance      =       1.00E-15

   => Loading Basis Set <=

    Name: (CC-PVDZ AUX)
    Role: JKFIT
    Keyword: DF_BASIS_SCF
    atoms 1 entry AL         line   371 file /Users/joseantoniorodriguesromero/anaconda3/share/psi4/basis/cc-pvdz-jkfit.gbs 
    atoms 2 entry S          line   593 file /Users/joseantoniorodriguesromero/anaconda3/share/psi4/basis/cc-pvdz-jkfit.gbs 

   => Loading Basis Set <=

    Name: CC-PVDZ
    Role: ORBITAL
    Keyword: BASIS
    atoms 1 entry AL         line   418 file /Users/joseantoniorodriguesromero/anaconda3/share/psi4/basis/cc-pvdz.gbs 
    atoms 2 entry S          line   598 file /Users/joseantoniorodriguesromero/anaconda3/share/psi4/basis/cc-pvdz.gbs 

  Reading orbitals from file /tmp/singlet_AlS.default.75274.180.npy, no projection.

  ==> Integral Setup <==

  DFHelper Memory: AOs need 0.003 GiB; user supplied 0.323 GiB. 
  Using in-core AOs.

  ==> MemDFJK: Density-Fitted J/K Matrices <==

    J tasked:                   Yes
    K tasked:                   Yes
    wK tasked:                   No
    OpenMP threads:               1
    Memory [MiB]:               330
    Algorithm:                 Core
    Schwarz Cutoff:           1E-12
    Mask sparsity (%):       0.0000
    Fitting Condition:        1E-10

   => Auxiliary Basis Set <=

  Basis Set: (CC-PVDZ AUX)
    Blend: CC-PVDZ-JKFIT
    Number of shells: 72
    Number of basis functions: 224
    Number of Cartesian functions: 260
    Spherical Harmonics?: true
    Max angular momentum: 3

  Cached 100.0% of DFT collocation blocks in 0.043 [GiB].

  Minimum eigenvalue in the overlap matrix is 4.5521283406E-03.
  Reciprocal condition number of the overlap matrix is 1.4443826307E-03.
    Using symmetric orthogonalization.

  ==> Pre-Iterations <==

  SCF Guess: Orbitals guess was supplied from a previous computation.

   -------------------------------------------------------
    Irrep   Nso     Nmo     Nalpha   Nbeta   Ndocc  Nsocc
   -------------------------------------------------------
     A1        18      18       8       8       8       0
     A2         2       2       0       0       0       0
     B1         8       8       3       3       3       0
     B2         8       8       3       3       3       0
   -------------------------------------------------------
    Total      36      36      14      14      14       0
   -------------------------------------------------------

  ==> Iterations <==

                           Total Energy        Delta E     RMS |[F,P]|

   @DF-UKS iter   0:  -639.44821533074980   -6.39448e+02   1.27929e-02 
   @DF-UKS iter   1:  -639.47455744621061   -2.63421e-02   6.08937e-04 ADIIS/DIIS
   @DF-UKS iter   2:  -639.47447335988113    8.40863e-05   7.37005e-04 ADIIS/DIIS/DAMP=1%
   @DF-UKS iter   3:  -639.47576128665958   -1.28793e-03   2.33297e-04 ADIIS/DIIS/DAMP=1%
   @DF-UKS iter   4:  -639.47452983619428    1.23145e-03   2.47429e-05 DIIS/DAMP=1%
   @DF-UKS iter   5:  -639.47462946058056   -9.96244e-05   2.65034e-06 DIIS/DAMP=1%
   @DF-UKS iter   6:  -639.47465209832990   -2.26377e-05   1.16350e-07 DIIS/DAMP=1%
   @DF-UKS iter   7:  -639.47464858857995    3.50975e-06   3.35958e-08 DIIS/DAMP=1%
   @DF-UKS iter   8:  -639.47464870193039   -1.13350e-07   3.33819e-09 DIIS/DAMP=1%
   @DF-UKS iter   9:  -639.47464865665677    4.52736e-08   2.04874e-10 DIIS/DAMP=1%
   @DF-UKS iter  10:  -639.47464866009011   -3.43334e-09   1.48097e-11 DIIS/DAMP=1%
  Energy and wave function converged.


  ==> Post-Iterations <==

   Electrons on quadrature grid:
      Nalpha   =   13.9999991062 ; deviation = -8.938e-07
      Nbeta    =   13.9999991062 ; deviation = -8.938e-07
      Ntotal   =   27.9999982124 ; deviation = -1.788e-06 

   @Spin Contamination Metric:  -1.776356839E-15
   @S^2 Expected:                0.000000000E+00
   @S^2 Observed:               -1.776356839E-15
   @S   Expected:                0.000000000E+00
   @S   Observed:                0.000000000E+00

    Orbital Energies [Eh]
    ---------------------

    Alpha Occupied:                                                       

       1A1   -89.150441     2A1   -56.417360     3A1    -8.267670  
       4A1    -6.244830     1B1    -6.208046     1B2    -6.208046  
       5A1    -4.579221     6A1    -3.168663     2B1    -3.099626  
       2B2    -3.099626     7A1    -1.000518     3B1    -0.618012  
       3B2    -0.618012     8A1    -0.585830  

    Alpha Virtual:                                                        

       9A1    -0.387443     4B2    -0.231497     4B1    -0.231497  
      10A1    -0.141256    11A1    -0.043531     5B1    -0.043289  
       5B2    -0.043289     1A2    -0.035742    12A1    -0.035741  
      13A1     0.078077     6B1     0.094098     6B2     0.094098  
      14A1     0.176259     7B2     0.336268     7B1     0.336268  
       2A2     0.423841    15A1     0.423842    16A1     0.468681  
       8B2     0.662904     8B1     0.662904    17A1     0.794029  
      18A1     1.195342  

    Beta Occupied:                                                        

       1A1   -89.150441     2A1   -56.417360     3A1    -8.267670  
       4A1    -6.244830     1B1    -6.208046     1B2    -6.208046  
       5A1    -4.579221     6A1    -3.168663     2B1    -3.099626  
       2B2    -3.099626     7A1    -1.000518     3B1    -0.618012  
       3B2    -0.618012     8A1    -0.585830  

    Beta Virtual:                                                         

       9A1    -0.387443     4B2    -0.231497     4B1    -0.231497  
      10A1    -0.141256    11A1    -0.043531     5B1    -0.043289  
       5B2    -0.043289     1A2    -0.035742    12A1    -0.035741  
      13A1     0.078077     6B1     0.094098     6B2     0.094098  
      14A1     0.176259     7B2     0.336268     7B1     0.336268  
       2A2     0.423841    15A1     0.423842    16A1     0.468681  
       8B2     0.662904     8B1     0.662904    17A1     0.794029  
      18A1     1.195342  

    Final Occupation by Irrep:
             A1    A2    B1    B2 
    DOCC [     8,    0,    3,    3 ]
    SOCC [     0,    0,    0,    0 ]
    NA   [     8,    0,    3,    3 ]
    NB   [     8,    0,    3,    3 ]

  @DF-UKS Final Energy:  -639.47464866009011

   => Energetics <=

    Nuclear Repulsion Energy =             87.5118323516057615
    One-Electron Energy =               -1049.9012905541396776
    Two-Electron Energy =                 358.7963980766433565
    DFT Exchange-Correlation Energy =     -35.8815885341996577
    Empirical Dispersion Energy =           0.0000000000000000
    VV10 Nonlocal Energy =                  0.0000000000000000
    Total Energy =                       -639.4746486600902244

  UHF NO Occupations:
  HONO-2 :    3 B2 2.0000000
  HONO-1 :    7 A1 2.0000000
  HONO-0 :    8 A1 2.0000000
  LUNO+0 :    9 A1 0.0000000
  LUNO+1 :   10 A1 0.0000000
  LUNO+2 :   11 A1 0.0000000
  LUNO+3 :   12 A1 0.0000000


Computation Completed


Properties will be evaluated at   0.000000,   0.000000,   0.000000 [a0]

Properties computed using the SCF density matrix


 Multipole Moments:

 ------------------------------------------------------------------------------------
     Multipole            Electronic (a.u.)      Nuclear  (a.u.)        Total (a.u.)
 ------------------------------------------------------------------------------------

 L = 1.  Multiply by 2.5417464519 to convert [e a0] to [Debye]
 Dipole X            :          0.0000000            0.0000000            0.0000000
 Dipole Y            :          0.0000000            0.0000000            0.0000000
 Dipole Z            :          2.2433455           -0.6477980            1.5955474
 Magnitude           :                                                    1.5955474

 ------------------------------------------------------------------------------------

*** tstop() called on Joses-MacBook-Pro-2.local at Thu Jul 17 15:19:29 2025
Module time:
	user time   =       8.23 seconds =       0.14 minutes
	system time =       1.75 seconds =       0.03 minutes
	total time  =          1 seconds =       0.02 minutes
Total time:
	user time   =      50.02 seconds =       0.83 minutes
	system time =      10.43 seconds =       0.17 minutes
	total time  =          6 seconds =       0.10 minutes

*** tstart() called on Joses-MacBook-Pro-2.local
*** at Thu Jul 17 15:19:29 2025


         ------------------------------------------------------------
                                   SCF GRAD                          
                          Rob Parrish, Justin Turney,                
                       Andy Simmonett, and Alex Sokolov              
         ------------------------------------------------------------

  ==> Geometry <==

    Molecular point group: c2v
    Full point group: C_inf_v

    Geometry (in Angstrom), charge = 1, multiplicity = 1:

       Center              X                  Y                   Z               Mass       
    ------------   -----------------  -----------------  -----------------  -----------------
         AL           0.000000000000     0.000000000000     0.682115721902    26.981538530000
         S            0.000000000000     0.000000000000    -0.575644021685    31.972071174400

  Nuclear repulsion =   87.511832351605761

  ==> Basis Set <==

  Basis Set: CC-PVDZ
    Blend: CC-PVDZ
    Number of shells: 16
    Number of basis functions: 36
    Number of Cartesian functions: 38
    Spherical Harmonics?: true
    Max angular momentum: 2

  ==> DFJKGrad: Density-Fitted SCF Gradients <==

    Gradient:                    1
    J tasked:                  Yes
    K tasked:                  Yes
    wK tasked:                  No
    OpenMP threads:              1
    Integrals threads:           1
    Memory [MiB]:              375
    Schwarz Cutoff:          1E-12
    Fitting Condition:       1E-10

   => Auxiliary Basis Set <=

  Basis Set: (CC-PVDZ AUX)
    Blend: CC-PVDZ-JKFIT
    Number of shells: 72
    Number of basis functions: 224
    Number of Cartesian functions: 260
    Spherical Harmonics?: true
    Max angular momentum: 3

  ==> DFT Potential <==

   => LibXC <=

    Version 6.2.2
    S. Lehtola, C. Steigemann, M. J.T. Oliveira, and M. A.L. Marques.,  SoftwareX 7, 1–5 (2018) (10.1016/j.softx.2017.11.002)

   => Composite Functional: B3LYP <= 

    B3LYP Hyb-GGA Exchange-Correlation Functional

    P. J. Stephens, F. J. Devlin, C. F. Chabalowski, and M. J. Frisch.,  J. Phys. Chem. 98, 11623 (1994) (10.1021/j100096a001)

    Deriv               =              1
    GGA                 =           TRUE
    Meta                =          FALSE

    Exchange Hybrid     =           TRUE
    MP2 Hybrid          =          FALSE

   => Exchange Functionals <=

    0.0800   Slater exchange
    0.7200         Becke 88

   => Exact (HF) Exchange <=

    0.2000               HF 

   => Correlation Functionals <=

    0.1900   Vosko, Wilk & Nusair (VWN5_RPA)
    0.8100   Lee, Yang & Parr

   => LibXC Density Thresholds  <==

    XC_HYB_GGA_XC_B3LYP:  1.00E-15 

   => Molecular Quadrature <=

    Radial Scheme          =       TREUTLER
    Pruning Scheme         =           NONE
    Nuclear Scheme         =       TREUTLER

    Blocking Scheme        =         OCTREE
    BS radius alpha        =              1
    Pruning alpha          =              1
    Radial Points          =             75
    Spherical Points       =            302
    Total Points           =          42563
    Total Blocks           =            401
    Max Points             =            256
    Max Functions          =             36
    Weights Tolerance      =       1.00E-15


  -Total Gradient:
     Atom            X                  Y                   Z
    ------   -----------------  -----------------  -----------------
       1       -0.000000000000     0.000000000000    -1.865291164298
       2        0.000000000000     0.000000000000     1.865322306119


*** tstop() called on Joses-MacBook-Pro-2.local at Thu Jul 17 15:19:29 2025
Module time:
	user time   =       2.47 seconds =       0.04 minutes
	system time =       0.93 seconds =       0.02 minutes
	total time  =          0 seconds =       0.00 minutes
Total time:
	user time   =      52.49 seconds =       0.87 minutes
	system time =      11.36 seconds =       0.19 minutes
	total time  =          6 seconds =       0.10 minutes

    			-----------------------------------------

    			 OPTKING 3.0: for geometry optimizations 

    			     By R.A. King, Bethel University     

    			        with contributions from          

    			    A.V. Copan, J. Cayton, A. Heide      

    			-----------------------------------------

    
	                            ===> Fragment 1 <== 

	 Z (Atomic Numbers)          Masses                          Geom                  
	      13.000000            26.981539          0.00000000  0.00000000  1.28901190   
	      16.000000            31.972071          0.00000000  0.00000000 -1.08780955   

	 - Coordinate -           - BOHR/RAD -       - ANG/DEG -
	 R(1,2)           =         2.376821           1.257760


	        --- Internal Coordinate Step in ANG or DEG, aJ/ANG or AJ/DEG ---
	-------------------------------------------------------------------------------
	           Coordinate      Previous         Force          Change          New 
	           ----------      --------        ------          ------        ------
	               R(1,2)       1.25776       15.36775        0.22172       1.47948
	-------------------------------------------------------------------------------

	                                 ==> Convergence Check <==                                  
    
	Measures of convergence in internal coordinates in au.
    
	Criteria marked as inactive (o), active & met (*), and active & unmet ( ).

	----------------------------------------------------------------------------------------------
	   Step    Total Energy     Delta E     Max Force     RMS Force      Max Disp      RMS Disp   
	----------------------------------------------------------------------------------------------
	  Convergence Criteria     1.00e-06 *    3.00e-04 *             o    1.20e-03 *             o
	----------------------------------------------------------------------------------------------
	     4    -639.47464866   -1.57e-01      1.87e+00      1.87e+00 o    4.19e-01      4.19e-01 o  ~
	----------------------------------------------------------------------------------------------

Next Geometry in Ang 
	Fragment 1 (Ang)

	   Al   0.0000000000   0.0000000000   0.7929761908
	    S   0.0000000000   0.0000000000  -0.6865044906


    Structure for next step:
    Molecular point group: c2v
    Full point group: C_inf_v

    Geometry (in Angstrom), charge = 1, multiplicity = 1:

    AL           0.000000000000     0.000000000000     0.802360735613
    S            0.000000000000     0.000000000000    -0.677119945868


Scratch directory: /tmp/
gradient() will perform analytic gradient computation.
   => Libint2 <=

    Primary   basis highest AM E, G, H:  6, 6, 3
    Auxiliary basis highest AM E, G, H:  7, 7, 4
    Onebody   basis highest AM E, G, H:  -, -, -
    Solid Harmonics ordering:            Gaussian

*** tstart() called on Joses-MacBook-Pro-2.local
*** at Thu Jul 17 15:19:29 2025

   => Loading Basis Set <=

    Name: CC-PVDZ
    Role: ORBITAL
    Keyword: BASIS
    atoms 1 entry AL         line   418 file /Users/joseantoniorodriguesromero/anaconda3/share/psi4/basis/cc-pvdz.gbs 
    atoms 2 entry S          line   598 file /Users/joseantoniorodriguesromero/anaconda3/share/psi4/basis/cc-pvdz.gbs 


         ---------------------------------------------------------
                                   SCF
               by Justin Turney, Rob Parrish, Andy Simmonett
                          and Daniel G. A. Smith
                              UKS Reference
                        1 Threads,    500 MiB Core
         ---------------------------------------------------------

  ==> Geometry <==

    Molecular point group: c2v
    Full point group: C_inf_v

    Geometry (in Angstrom), charge = 1, multiplicity = 1:

       Center              X                  Y                   Z               Mass       
    ------------   -----------------  -----------------  -----------------  -----------------
         AL           0.000000000000     0.000000000000     0.802360735613    26.981538530000
         S            0.000000000000     0.000000000000    -0.677119945868    31.972071174400

  Running in c2v symmetry.

  Rotational constants: A = ************  B =      0.52632  C =      0.52632 [cm^-1]
  Rotational constants: A = ************  B =  15778.71103  C =  15778.71103 [MHz]
  Nuclear repulsion =   74.396956443672380

  Charge       = 1
  Multiplicity = 1
  Electrons    = 28
  Nalpha       = 14
  Nbeta        = 14

  ==> Algorithm <==

  SCF Algorithm Type is DF.
  DIIS enabled.
  MOM disabled.
  Fractional occupation disabled.
  Guess Type is READ.
  Energy threshold   = 1.00e-08
  Density threshold  = 1.00e-08
  Integral threshold = 1.00e-12

  ==> Primary Basis <==

  Basis Set: CC-PVDZ
[...]
	   Step    Total Energy     Delta E     Max Force     RMS Force      Max Disp      RMS Disp   
	----------------------------------------------------------------------------------------------
	  Convergence Criteria     1.00e-06 *    3.00e-04 *             o    1.20e-03 *             o
	----------------------------------------------------------------------------------------------
	    13    -640.29712513   -3.00e-05      1.14e-03      1.14e-03 o    4.73e-03      4.73e-03 o  ~
	----------------------------------------------------------------------------------------------

Next Geometry in Ang 
	Fragment 1 (Ang)

	   Al   0.0000000000   0.0000000000   1.1075727693
	    S   0.0000000000   0.0000000000  -0.9348864710


    Structure for next step:
    Molecular point group: c2v
    Full point group: C_inf_v

    Geometry (in Angstrom), charge = 1, multiplicity = 1:

    AL           0.000000000000     0.000000000000     1.107678605766
    S            0.000000000000     0.000000000000    -0.934780634552


Scratch directory: /tmp/
gradient() will perform analytic gradient computation.
   => Libint2 <=

    Primary   basis highest AM E, G, H:  6, 6, 3
    Auxiliary basis highest AM E, G, H:  7, 7, 4
    Onebody   basis highest AM E, G, H:  -, -, -
    Solid Harmonics ordering:            Gaussian

*** tstart() called on Joses-MacBook-Pro-2.local
*** at Thu Jul 17 15:19:41 2025

   => Loading Basis Set <=

    Name: CC-PVDZ
    Role: ORBITAL
    Keyword: BASIS
    atoms 1 entry AL         line   418 file /Users/joseantoniorodriguesromero/anaconda3/share/psi4/basis/cc-pvdz.gbs 
    atoms 2 entry S          line   598 file /Users/joseantoniorodriguesromero/anaconda3/share/psi4/basis/cc-pvdz.gbs 


         ---------------------------------------------------------
                                   SCF
               by Justin Turney, Rob Parrish, Andy Simmonett
                          and Daniel G. A. Smith
                              UKS Reference
                        1 Threads,    500 MiB Core
         ---------------------------------------------------------

  ==> Geometry <==

    Molecular point group: c2v
    Full point group: C_inf_v

    Geometry (in Angstrom), charge = 1, multiplicity = 1:

       Center              X                  Y                   Z               Mass       
    ------------   -----------------  -----------------  -----------------  -----------------
         AL           0.000000000000     0.000000000000     1.107678605766    26.981538530000
         S            0.000000000000     0.000000000000    -0.934780634552    31.972071174400

  Running in c2v symmetry.

  Rotational constants: A = ************  B =      0.27616  C =      0.27616 [cm^-1]
  Rotational constants: A = ************  B =   8279.10371  C =   8279.10371 [MHz]
  Nuclear repulsion =   53.890358077454430

  Charge       = 1
  Multiplicity = 1
  Electrons    = 28
  Nalpha       = 14
  Nbeta        = 14

  ==> Algorithm <==

  SCF Algorithm Type is DF.
  DIIS enabled.
  MOM disabled.
  Fractional occupation disabled.
  Guess Type is READ.
  Energy threshold   = 1.00e-08
  Density threshold  = 1.00e-08
  Integral threshold = 1.00e-12

  ==> Primary Basis <==

  Basis Set: CC-PVDZ
    Blend: CC-PVDZ
    Number of shells: 16
    Number of basis functions: 36
    Number of Cartesian functions: 38
    Spherical Harmonics?: true
    Max angular momentum: 2

  ==> DFT Potential <==

   => LibXC <=

    Version 6.2.2
    S. Lehtola, C. Steigemann, M. J.T. Oliveira, and M. A.L. Marques.,  SoftwareX 7, 1–5 (2018) (10.1016/j.softx.2017.11.002)

   => Composite Functional: B3LYP <= 

    B3LYP Hyb-GGA Exchange-Correlation Functional

    P. J. Stephens, F. J. Devlin, C. F. Chabalowski, and M. J. Frisch.,  J. Phys. Chem. 98, 11623 (1994) (10.1021/j100096a001)

    Deriv               =              1
    GGA                 =           TRUE
    Meta                =          FALSE

    Exchange Hybrid     =           TRUE
    MP2 Hybrid          =          FALSE

   => Exchange Functionals <=

    0.0800   Slater exchange
    0.7200         Becke 88

   => Exact (HF) Exchange <=

    0.2000               HF 

   => Correlation Functionals <=

    0.1900   Vosko, Wilk & Nusair (VWN5_RPA)
    0.8100   Lee, Yang & Parr

   => LibXC Density Thresholds  <==

    XC_HYB_GGA_XC_B3LYP:  1.00E-15 

   => Molecular Quadrature <=

    Radial Scheme          =       TREUTLER
    Pruning Scheme         =           NONE
    Nuclear Scheme         =       TREUTLER

    Blocking Scheme        =         OCTREE
    BS radius alpha        =              1
    Pruning alpha          =              1
    Radial Points          =             75
    Spherical Points       =            302
    Total Points           =          42645
    Total Blocks           =            401
    Max Points             =            256
    Max Functions          =             36
    Weights Tolerance      =       1.00E-15

   => Loading Basis Set <=

    Name: (CC-PVDZ AUX)
    Role: JKFIT
    Keyword: DF_BASIS_SCF
    atoms 1 entry AL         line   371 file /Users/joseantoniorodriguesromero/anaconda3/share/psi4/basis/cc-pvdz-jkfit.gbs 
    atoms 2 entry S          line   593 file /Users/joseantoniorodriguesromero/anaconda3/share/psi4/basis/cc-pvdz-jkfit.gbs 

   => Loading Basis Set <=

    Name: CC-PVDZ
    Role: ORBITAL
    Keyword: BASIS
    atoms 1 entry AL         line   418 file /Users/joseantoniorodriguesromero/anaconda3/share/psi4/basis/cc-pvdz.gbs 
    atoms 2 entry S          line   598 file /Users/joseantoniorodriguesromero/anaconda3/share/psi4/basis/cc-pvdz.gbs 

  Reading orbitals from file /tmp/singlet_AlS.default.75274.180.npy, no projection.

  ==> Integral Setup <==

  DFHelper Memory: AOs need 0.003 GiB; user supplied 0.323 GiB. 
  Using in-core AOs.

  ==> MemDFJK: Density-Fitted J/K Matrices <==

    J tasked:                   Yes
    K tasked:                   Yes
    wK tasked:                   No
    OpenMP threads:               1
    Memory [MiB]:               330
    Algorithm:                 Core
    Schwarz Cutoff:           1E-12
    Mask sparsity (%):       0.0000
    Fitting Condition:        1E-10

   => Auxiliary Basis Set <=

  Basis Set: (CC-PVDZ AUX)
    Blend: CC-PVDZ-JKFIT
    Number of shells: 72
    Number of basis functions: 224
    Number of Cartesian functions: 260
    Spherical Harmonics?: true
    Max angular momentum: 3

  Cached 100.0% of DFT collocation blocks in 0.043 [GiB].

  Minimum eigenvalue in the overlap matrix is 2.0882573796E-02.
  Reciprocal condition number of the overlap matrix is 7.0245346403E-03.
    Using symmetric orthogonalization.

  ==> Pre-Iterations <==

  SCF Guess: Orbitals guess was supplied from a previous computation.

   -------------------------------------------------------
    Irrep   Nso     Nmo     Nalpha   Nbeta   Ndocc  Nsocc
   -------------------------------------------------------
     A1        18      18       8       8       8       0
     A2         2       2       0       0       0       0
     B1         8       8       3       3       3       0
     B2         8       8       3       3       3       0
   -------------------------------------------------------
    Total      36      36      14      14      14       0
   -------------------------------------------------------

  ==> Iterations <==

                           Total Energy        Delta E     RMS |[F,P]|

   @DF-UKS iter   0:  -640.29561260496746   -6.40296e+02   2.14156e-04 
   @DF-UKS iter   1:  -640.29712769592459   -1.51509e-03   3.98853e-05 DIIS
   @DF-UKS iter   2:  -640.29712382070022    3.87522e-06   1.06737e-04 ADIIS/DIIS/DAMP=1%
   @DF-UKS iter   3:  -640.29702243194663    1.01389e-04   1.59127e-05 DIIS/DAMP=1%
   @DF-UKS iter   4:  -640.29712922009992   -1.06788e-04   1.05657e-06 DIIS/DAMP=1%
   @DF-UKS iter   5:  -640.29712731249390    1.90761e-06   1.00883e-07 DIIS/DAMP=1%
   @DF-UKS iter   6:  -640.29712836892202   -1.05643e-06   3.51227e-08 DIIS/DAMP=1%
   @DF-UKS iter   7:  -640.29712835626674    1.26553e-08   1.81017e-09 DIIS/DAMP=1%
   @DF-UKS iter   8:  -640.29712833582573    2.04410e-08   7.82360e-10 DIIS/DAMP=1%
   @DF-UKS iter   9:  -640.29712833668532   -8.59586e-10   2.69233e-11 DIIS/DAMP=1%
  Energy and wave function converged.


  ==> Post-Iterations <==

   Electrons on quadrature grid:
      Nalpha   =   14.0000002231 ; deviation = 2.231e-07
      Nbeta    =   14.0000002231 ; deviation = 2.231e-07
      Ntotal   =   28.0000004463 ; deviation = 4.463e-07 

   @Spin Contamination Metric:   2.486899575E-14
   @S^2 Expected:                0.000000000E+00
   @S^2 Observed:                2.486899575E-14
   @S   Expected:                0.000000000E+00
   @S   Observed:                0.000000000E+00

    Orbital Energies [Eh]
    ---------------------

    Alpha Occupied:                                                       

       1A1   -89.124624     2A1   -56.428109     3A1    -8.184529  
       4A1    -6.152802     1B1    -6.140031     1B2    -6.140031  
       5A1    -4.500675     6A1    -3.054684     2B1    -3.052009  
       2B2    -3.052009     7A1    -0.919117     8A1    -0.608658  
       3B1    -0.494241     3B2    -0.494241  

    Alpha Virtual:                                                        

       9A1    -0.446812     4B1    -0.290238     4B2    -0.290238  
      10A1    -0.177731    11A1    -0.059447     5B2    -0.013936  
       5B1    -0.013936    12A1    -0.002776     1A2     0.009350  
      13A1     0.009350     6B2     0.034509     6B1     0.034509  
      14A1     0.105821     7B1     0.329399     7B2     0.329399  
      15A1     0.408856     2A2     0.410222    16A1     0.410225  
      17A1     0.464989     8B2     0.543111     8B1     0.543111  
      18A1     0.870996  

    Beta Occupied:                                                        

       1A1   -89.124624     2A1   -56.428109     3A1    -8.184529  
       4A1    -6.152802     1B2    -6.140031     1B1    -6.140031  
       5A1    -4.500675     6A1    -3.054684     2B1    -3.052009  
       2B2    -3.052009     7A1    -0.919117     8A1    -0.608658  
       3B1    -0.494241     3B2    -0.494241  

    Beta Virtual:                                                         

       9A1    -0.446812     4B1    -0.290238     4B2    -0.290238  
      10A1    -0.177731    11A1    -0.059447     5B2    -0.013936  
       5B1    -0.013936    12A1    -0.002776     1A2     0.009350  
      13A1     0.009350     6B2     0.034509     6B1     0.034509  
      14A1     0.105821     7B1     0.329399     7B2     0.329399  
      15A1     0.408856     2A2     0.410222    16A1     0.410225  
      17A1     0.464989     8B2     0.543111     8B1     0.543111  
      18A1     0.870996  

    Final Occupation by Irrep:
             A1    A2    B1    B2 
    DOCC [     8,    0,    3,    3 ]
    SOCC [     0,    0,    0,    0 ]
    NA   [     8,    0,    3,    3 ]
    NB   [     8,    0,    3,    3 ]

  @DF-UKS Final Energy:  -640.29712833668532

   => Energetics <=

    Nuclear Repulsion Energy =             53.8903580774544295
    One-Electron Energy =                -986.4163231534867009
    Two-Electron Energy =                 327.7105831982058248
    DFT Exchange-Correlation Energy =     -35.4817464588589289
    Empirical Dispersion Energy =           0.0000000000000000
    VV10 Nonlocal Energy =                  0.0000000000000000
    Total Energy =                       -640.2971283366853186

  UHF NO Occupations:
  HONO-2 :    8 A1 2.0000000
  HONO-1 :    2 B2 2.0000000
  HONO-0 :    3 B2 2.0000000
  LUNO+0 :    9 A1 0.0000000
  LUNO+1 :    4 B2 0.0000000
  LUNO+2 :    4 B1 0.0000000
  LUNO+3 :   10 A1 0.0000000


Computation Completed


Properties will be evaluated at   0.000000,   0.000000,   0.000000 [a0]

Properties computed using the SCF density matrix


 Multipole Moments:

 ------------------------------------------------------------------------------------
     Multipole            Electronic (a.u.)      Nuclear  (a.u.)        Total (a.u.)
 ------------------------------------------------------------------------------------

 L = 1.  Multiply by 2.5417464519 to convert [e a0] to [Debye]
 Dipole X            :          0.0000000            0.0000000            0.0000000
 Dipole Y            :          0.0000000            0.0000000            0.0000000
 Dipole Z            :          3.6738250           -1.0519506            2.6218744
 Magnitude           :                                                    2.6218744

 ------------------------------------------------------------------------------------

*** tstop() called on Joses-MacBook-Pro-2.local at Thu Jul 17 15:19:42 2025
Module time:
	user time   =       8.19 seconds =       0.14 minutes
	system time =       1.51 seconds =       0.03 minutes
	total time  =          1 seconds =       0.02 minutes
Total time:
	user time   =     161.54 seconds =       2.69 minutes
	system time =      40.57 seconds =       0.68 minutes
	total time  =         19 seconds =       0.32 minutes

*** tstart() called on Joses-MacBook-Pro-2.local
*** at Thu Jul 17 15:19:42 2025


         ------------------------------------------------------------
                                   SCF GRAD                          
                          Rob Parrish, Justin Turney,                
                       Andy Simmonett, and Alex Sokolov              
         ------------------------------------------------------------

  ==> Geometry <==

    Molecular point group: c2v
    Full point group: C_inf_v

    Geometry (in Angstrom), charge = 1, multiplicity = 1:

       Center              X                  Y                   Z               Mass       
    ------------   -----------------  -----------------  -----------------  -----------------
         AL           0.000000000000     0.000000000000     1.107678605766    26.981538530000
         S            0.000000000000     0.000000000000    -0.934780634552    31.972071174400

  Nuclear repulsion =   53.890358077454430

  ==> Basis Set <==

  Basis Set: CC-PVDZ
    Blend: CC-PVDZ
    Number of shells: 16
    Number of basis functions: 36
    Number of Cartesian functions: 38
    Spherical Harmonics?: true
    Max angular momentum: 2

  ==> DFJKGrad: Density-Fitted SCF Gradients <==

    Gradient:                    1
    J tasked:                  Yes
    K tasked:                  Yes
    wK tasked:                  No
    OpenMP threads:              1
    Integrals threads:           1
    Memory [MiB]:              375
    Schwarz Cutoff:          1E-12
    Fitting Condition:       1E-10

   => Auxiliary Basis Set <=

  Basis Set: (CC-PVDZ AUX)
    Blend: CC-PVDZ-JKFIT
    Number of shells: 72
    Number of basis functions: 224
    Number of Cartesian functions: 260
    Spherical Harmonics?: true
    Max angular momentum: 3

  ==> DFT Potential <==

   => LibXC <=

    Version 6.2.2
    S. Lehtola, C. Steigemann, M. J.T. Oliveira, and M. A.L. Marques.,  SoftwareX 7, 1–5 (2018) (10.1016/j.softx.2017.11.002)

   => Composite Functional: B3LYP <= 

    B3LYP Hyb-GGA Exchange-Correlation Functional

    P. J. Stephens, F. J. Devlin, C. F. Chabalowski, and M. J. Frisch.,  J. Phys. Chem. 98, 11623 (1994) (10.1021/j100096a001)

    Deriv               =              1
    GGA                 =           TRUE
    Meta                =          FALSE

    Exchange Hybrid     =           TRUE
    MP2 Hybrid          =          FALSE

   => Exchange Functionals <=

    0.0800   Slater exchange
    0.7200         Becke 88

   => Exact (HF) Exchange <=

    0.2000               HF 

   => Correlation Functionals <=

    0.1900   Vosko, Wilk & Nusair (VWN5_RPA)
    0.8100   Lee, Yang & Parr

   => LibXC Density Thresholds  <==

    XC_HYB_GGA_XC_B3LYP:  1.00E-15 

   => Molecular Quadrature <=

    Radial Scheme          =       TREUTLER
    Pruning Scheme         =           NONE
    Nuclear Scheme         =       TREUTLER

    Blocking Scheme        =         OCTREE
    BS radius alpha        =              1
    Pruning alpha          =              1
    Radial Points          =             75
    Spherical Points       =            302
    Total Points           =          42645
    Total Blocks           =            401
    Max Points             =            256
    Max Functions          =             36
    Weights Tolerance      =       1.00E-15


  -Total Gradient:
     Atom            X                  Y                   Z
    ------   -----------------  -----------------  -----------------
       1        0.000000000000    -0.000000000000    -0.000221777433
       2        0.000000000000    -0.000000000000     0.000244493180


*** tstop() called on Joses-MacBook-Pro-2.local at Thu Jul 17 15:19:43 2025
Module time:
	user time   =       2.69 seconds =       0.04 minutes
	system time =       0.82 seconds =       0.01 minutes
	total time  =          1 seconds =       0.02 minutes
Total time:
	user time   =     164.24 seconds =       2.74 minutes
	system time =      41.39 seconds =       0.69 minutes
	total time  =         20 seconds =       0.33 minutes

    			-----------------------------------------

    			 OPTKING 3.0: for geometry optimizations 

    			     By R.A. King, Bethel University     

    			        with contributions from          

    			    A.V. Copan, J. Cayton, A. Heide      

    			-----------------------------------------

    
	                            ===> Fragment 1 <== 

	 Z (Atomic Numbers)          Masses                          Geom                  
	      13.000000            26.981539          0.00000000  0.00000000  2.09320920   
	      16.000000            31.972071          0.00000000  0.00000000 -1.76647939   

	 - Coordinate -           - BOHR/RAD -       - ANG/DEG -
	 R(1,2)           =         3.859689           2.042459


	        --- Internal Coordinate Step in ANG or DEG, aJ/ANG or AJ/DEG ---
	-------------------------------------------------------------------------------
	           Coordinate      Previous         Force          Change          New 
	           ----------      --------        ------          ------        ------
	               R(1,2)       2.04246        0.00192        0.00058       2.04304
	-------------------------------------------------------------------------------

	                                 ==> Convergence Check <==                                  
    
	Measures of convergence in internal coordinates in au.
    
	Criteria marked as inactive (o), active & met (*), and active & unmet ( ).

	----------------------------------------------------------------------------------------------
	   Step    Total Energy     Delta E     Max Force     RMS Force      Max Disp      RMS Disp   
	----------------------------------------------------------------------------------------------
	  Convergence Criteria     1.00e-06 *    3.00e-04 *             o    1.20e-03 *             o
	----------------------------------------------------------------------------------------------
	    14    -640.29712834   -3.20e-06      2.33e-04 *    2.33e-04 o    1.11e-03 *    1.11e-03 o  ~
	----------------------------------------------------------------------------------------------

Next Geometry in Ang 
	Fragment 1 (Ang)

	   Al   0.0000000000   0.0000000000   1.1079710516
	    S   0.0000000000   0.0000000000  -0.9350730803


    Final optimized geometry and variables:
    Molecular point group: c2v
    Full point group: C_inf_v

    Geometry (in Angstrom), charge = 1, multiplicity = 1:

    AL           0.000000000000     0.000000000000     1.107678605766
    S            0.000000000000     0.000000000000    -0.934780634552


    Psi4 stopped on: Thursday, 17 July 2025 03:19PM
    Psi4 wall time for execution: 0:00:20.02

*** Psi4 exiting successfully. Buy a developer a beer!
