
    -----------------------------------------------------------------------
          Psi4: An Open-Source Ab Initio Electronic Structure Package
                               Psi4 1.9.1 release

                         Git: Rev {} zzzzzzz 


    D. G. A. Smith, L. A. Burns, A. C. Simmonett, R. M. Parrish,
    M. C. Schieber, R. Galvelis, P. Kraus, H. Kruse, R. Di Remigio,
    A. Alenaizan, A. M. James, S. Lehtola, J. P. Misiewicz, M. Scheurer,
    R. A. Shaw, J. B. Schriber, Y. Xie, Z. L. Glick, D. A. Sirianni,
    J. S. O'Brien, J. M. Waldrop, A. Kumar, E. G. Hohenstein,
    B. P. Pritchard, B. R. Brooks, H. F. Schaefer III, A. Yu. Sokolov,
    K. Patkowski, A. E. DePrince III, U. Bozkaya, R. A. King,
    F. A. Evangelista, J. M. Turney, T. D. Crawford, C. D. Sherrill,
    J. Chem. Phys. 152(18) 184108 (2020). https://doi.org/10.1063/5.0006002

                            Additional Code Authors
    E. T. Seidl, C. L. Janssen, E. F. Valeev, M. L. Leininger,
    J. F. Gonthier, R. M. Richard, H. R. McAlexander, M. Saitow, X. Wang,
    P. Verma, M. H. Lechner, A. Jiang, S. Behnle, A. G. Heide,
    M. F. Herbst, and D. L. Poole

             Previous Authors, Complete List of Code Contributors,
                       and Citations for Specific Modules
    https://github.com/psi4/psi4/blob/master/codemeta.json
    https://github.com/psi4/psi4/graphs/contributors
    http://psicode.org/psi4manual/master/introduction.html#citing-psifour

    -----------------------------------------------------------------------


    Psi4 started on: Thursday, 17 July 2025 03:41PM

    Process ID: 75574
    Host:       Joses-MacBook-Pro-2.local
    PSIDATADIR: /Users/joseantoniorodriguesromero/anaconda3/share/psi4
    Memory:     500.0 MiB
    Threads:    1
    
  ==> Input File <==

--------------------------------------------------------------------------
molecule { 
1 1
Si   0.00000        0.60000        0.00000
Cl   0.00000       -0.60000        0.00000
}

set { 
basis              cc-pvdz
reference          uks
maxiter            500
geom_maxiter       500
DAMPING_PERCENTAGE 1
guess              SAP
}

optimize('b3lyp')
--------------------------------------------------------------------------

Scratch directory: /tmp/
gradient() will perform analytic gradient computation.
   => Libint2 <=

    Primary   basis highest AM E, G, H:  6, 6, 3
    Auxiliary basis highest AM E, G, H:  7, 7, 4
    Onebody   basis highest AM E, G, H:  -, -, -
    Solid Harmonics ordering:            Gaussian

*** tstart() called on Joses-MacBook-Pro-2.local
*** at Thu Jul 17 15:41:56 2025

   => Loading Basis Set <=

    Name: CC-PVDZ
    Role: ORBITAL
    Keyword: BASIS
    atoms 1 entry SI         line   478 file /Users/joseantoniorodriguesromero/anaconda3/share/psi4/basis/cc-pvdz.gbs 
    atoms 2 entry CL         line   658 file /Users/joseantoniorodriguesromero/anaconda3/share/psi4/basis/cc-pvdz.gbs 


         ---------------------------------------------------------
                                   SCF
               by Justin Turney, Rob Parrish, Andy Simmonett
                          and Daniel G. A. Smith
                              UKS Reference
                        1 Threads,    500 MiB Core
         ---------------------------------------------------------

  ==> Geometry <==

    Molecular point group: c2v
    Full point group: C_inf_v

    Geometry (in Angstrom), charge = 1, multiplicity = 1:

       Center              X                  Y                   Z               Mass       
    ------------   -----------------  -----------------  -----------------  -----------------
         SI           0.000000000000     0.000000000000     0.666647132510    27.976926534650
         CL           0.000000000000     0.000000000000    -0.533352867490    34.968852682000

  Running in c2v symmetry.

  Rotational constants: A = ************  B =      0.75322  C =      0.75322 [cm^-1]
  Rotational constants: A = ************  B =  22580.83178  C =  22580.83178 [MHz]
  Nuclear repulsion =  104.953480116216681

  Charge       = 1
  Multiplicity = 1
  Electrons    = 30
  Nalpha       = 15
  Nbeta        = 15

  ==> Algorithm <==

  SCF Algorithm Type is DF.
  DIIS enabled.
  MOM disabled.
  Fractional occupation disabled.
  Guess Type is SAP.
  Energy threshold   = 1.00e-08
  Density threshold  = 1.00e-08
  Integral threshold = 1.00e-12

  ==> Primary Basis <==

  Basis Set: CC-PVDZ
    Blend: CC-PVDZ
    Number of shells: 16
    Number of basis functions: 36
    Number of Cartesian functions: 38
    Spherical Harmonics?: true
    Max angular momentum: 2

  ==> DFT Potential <==

   => LibXC <=

    Version 6.2.2
    S. Lehtola, C. Steigemann, M. J.T. Oliveira, and M. A.L. Marques.,  SoftwareX 7, 1–5 (2018) (10.1016/j.softx.2017.11.002)

   => Composite Functional: B3LYP <= 

    B3LYP Hyb-GGA Exchange-Correlation Functional

    P. J. Stephens, F. J. Devlin, C. F. Chabalowski, and M. J. Frisch.,  J. Phys. Chem. 98, 11623 (1994) (10.1021/j100096a001)

    Deriv               =              1
    GGA                 =           TRUE
    Meta                =          FALSE

    Exchange Hybrid     =           TRUE
    MP2 Hybrid          =          FALSE

   => Exchange Functionals <=

    0.0800   Slater exchange
    0.7200         Becke 88

   => Exact (HF) Exchange <=

    0.2000               HF 

   => Correlation Functionals <=

    0.1900   Vosko, Wilk & Nusair (VWN5_RPA)
    0.8100   Lee, Yang & Parr

   => LibXC Density Thresholds  <==

    XC_HYB_GGA_XC_B3LYP:  1.00E-15 

   => Molecular Quadrature <=

    Radial Scheme          =       TREUTLER
    Pruning Scheme         =           NONE
    Nuclear Scheme         =       TREUTLER

    Blocking Scheme        =         OCTREE
    BS radius alpha        =              1
    Pruning alpha          =              1
    Radial Points          =             75
    Spherical Points       =            302
    Total Points           =          41465
    Total Blocks           =            389
    Max Points             =            249
    Max Functions          =             36
    Weights Tolerance      =       1.00E-15

   => Loading Basis Set <=

    Name: (CC-PVDZ AUX)
    Role: JKFIT
    Keyword: DF_BASIS_SCF
    atoms 1 entry SI         line   445 file /Users/joseantoniorodriguesromero/anaconda3/share/psi4/basis/cc-pvdz-jkfit.gbs 
    atoms 2 entry CL         line   667 file /Users/joseantoniorodriguesromero/anaconda3/share/psi4/basis/cc-pvdz-jkfit.gbs 

  ==> Integral Setup <==

  DFHelper Memory: AOs need 0.003 GiB; user supplied 0.324 GiB. 
  Using in-core AOs.

  ==> MemDFJK: Density-Fitted J/K Matrices <==

    J tasked:                   Yes
    K tasked:                   Yes
    wK tasked:                   No
    OpenMP threads:               1
    Memory [MiB]:               331
    Algorithm:                 Core
    Schwarz Cutoff:           1E-12
    Mask sparsity (%):       0.0000
    Fitting Condition:        1E-10

   => Auxiliary Basis Set <=

  Basis Set: (CC-PVDZ AUX)
    Blend: CC-PVDZ-JKFIT
    Number of shells: 72
    Number of basis functions: 224
    Number of Cartesian functions: 260
    Spherical Harmonics?: true
    Max angular momentum: 3

  Cached 100.0% of DFT collocation blocks in 0.042 [GiB].

  Minimum eigenvalue in the overlap matrix is 6.9950548482E-03.
  Reciprocal condition number of the overlap matrix is 2.2289168040E-03.
    Using symmetric orthogonalization.

  ==> Pre-Iterations <==

  SCF Guess: Superposition of Atomic Potentials (doi:10.1021/acs.jctc.8b01089).

  ==> SAP guess <==

   => Molecular Quadrature <=

    Radial Scheme          =       TREUTLER
    Pruning Scheme         =           NONE
    Nuclear Scheme         =       TREUTLER

    Blocking Scheme        =         OCTREE
    BS radius alpha        =              1
    Pruning alpha          =              1
    Radial Points          =             75
    Spherical Points       =            302
    Total Points           =          41465
    Total Blocks           =            389
    Max Points             =            249
    Max Functions          =             36
    Weights Tolerance      =       1.00E-15

   -------------------------------------------------------
    Irrep   Nso     Nmo     Nalpha   Nbeta   Ndocc  Nsocc
   -------------------------------------------------------
     A1        18      18       9       9       9       0
     A2         2       2       0       0       0       0
     B1         8       8       3       3       3       0
     B2         8       8       3       3       3       0
   -------------------------------------------------------
    Total      36      36      15      15      15       0
   -------------------------------------------------------

  ==> Iterations <==

                           Total Energy        Delta E     RMS |[F,P]|

   @DF-UKS iter   1:  -748.09635755552915   -7.48096e+02   2.44407e-02 DIIS/ADIIS
   @DF-UKS iter   2:  -748.17397638617456   -7.76188e-02   1.82632e-02 DIIS/ADIIS/DAMP=1%
   @DF-UKS iter   3:  -748.23052553373634   -5.65491e-02   8.20771e-04 DIIS/ADIIS/DAMP=1%
   @DF-UKS iter   4:  -748.25794680636113   -2.74213e-02   2.84552e-04 DIIS/ADIIS/DAMP=1%
   @DF-UKS iter   5:  -748.25702401880358    9.22788e-04   5.91898e-05 DIIS/DAMP=1%
   @DF-UKS iter   6:  -748.25692488432196    9.91345e-05   4.32525e-06 DIIS/DAMP=1%
   @DF-UKS iter   7:  -748.25699566900255   -7.07847e-05   2.88227e-07 DIIS/DAMP=1%
   @DF-UKS iter   8:  -748.25699843748146   -2.76848e-06   1.82413e-08 DIIS/DAMP=1%
   @DF-UKS iter   9:  -748.25699884441212   -4.06931e-07   1.44652e-09 DIIS/DAMP=1%
   @DF-UKS iter  10:  -748.25699885654160   -1.21295e-08   1.05629e-10 DIIS/DAMP=1%
   @DF-UKS iter  11:  -748.25699885641154    1.30058e-10   8.10572e-12 DIIS/DAMP=1%
  Energy and wave function converged.


  ==> Post-Iterations <==

   Electrons on quadrature grid:
      Nalpha   =   14.9999982774 ; deviation = -1.723e-06
      Nbeta    =   14.9999982774 ; deviation = -1.723e-06
      Ntotal   =   29.9999965549 ; deviation = -3.445e-06 

   @Spin Contamination Metric:  -3.019806627E-14
   @S^2 Expected:                0.000000000E+00
   @S^2 Observed:               -3.019806627E-14
   @S   Expected:                0.000000000E+00
   @S   Observed:                0.000000000E+00

    Orbital Energies [Eh]
    ---------------------

    Alpha Occupied:                                                       

       1A1  -101.865494     2A1   -66.424985     3A1    -9.869938  
       4A1    -7.634790     1B1    -7.607270     1B2    -7.607270  
       5A1    -5.686230     6A1    -4.061228     2B1    -4.012241  
       2B2    -4.012241     7A1    -1.307617     3B2    -0.821514  
       3B1    -0.821514     8A1    -0.795726     9A1    -0.527302  

    Alpha Virtual:                                                        

       4B1    -0.286591     4B2    -0.286591    10A1    -0.161591  
       5B2    -0.052522     5B1    -0.052522    11A1    -0.015122  
       1A2    -0.015122    12A1     0.044052    13A1     0.082500  
       6B1     0.166687     6B2     0.166687    14A1     0.182069  
       7B1     0.332724     7B2     0.332724    15A1     0.459244  
       2A2     0.459245    16A1     0.513809     8B2     0.840003  
       8B1     0.840003    17A1     0.927730    18A1     1.378853  

    Beta Occupied:                                                        

       1A1  -101.865494     2A1   -66.424985     3A1    -9.869938  
       4A1    -7.634790     1B1    -7.607270     1B2    -7.607270  
       5A1    -5.686230     6A1    -4.061228     2B1    -4.012241  
       2B2    -4.012241     7A1    -1.307617     3B2    -0.821514  
       3B1    -0.821514     8A1    -0.795726     9A1    -0.527302  

    Beta Virtual:                                                         

       4B1    -0.286591     4B2    -0.286591    10A1    -0.161591  
       5B2    -0.052522     5B1    -0.052522    11A1    -0.015122  
       1A2    -0.015122    12A1     0.044052    13A1     0.082500  
       6B1     0.166687     6B2     0.166687    14A1     0.182069  
       7B1     0.332724     7B2     0.332724    15A1     0.459244  
       2A2     0.459245    16A1     0.513809     8B2     0.840003  
       8B1     0.840003    17A1     0.927730    18A1     1.378853  

    Final Occupation by Irrep:
             A1    A2    B1    B2 
    DOCC [     9,    0,    3,    3 ]
    SOCC [     0,    0,    0,    0 ]
    NA   [     9,    0,    3,    3 ]
    NB   [     9,    0,    3,    3 ]

  @DF-UKS Final Energy:  -748.25699885641154

   => Energetics <=

    Nuclear Repulsion Energy =            104.9534801162166815
    One-Electron Energy =               -1231.9660888039411475
    Two-Electron Energy =                 418.6202243355497217
    DFT Exchange-Correlation Energy =     -39.8646145042367834
    Empirical Dispersion Energy =           0.0000000000000000
    VV10 Nonlocal Energy =                  0.0000000000000000
    Total Energy =                       -748.2569988564115420

  UHF NO Occupations:
  HONO-2 :    2 B1 2.0000000
  HONO-1 :    9 A1 2.0000000
  HONO-0 :    3 B1 2.0000000
  LUNO+0 :    4 B2 0.0000000
  LUNO+1 :   10 A1 0.0000000
  LUNO+2 :   11 A1 0.0000000
  LUNO+3 :    5 B2 0.0000000


Computation Completed


Properties will be evaluated at   0.000000,   0.000000,   0.000000 [a0]

Properties computed using the SCF density matrix


 Multipole Moments:

 ------------------------------------------------------------------------------------
     Multipole            Electronic (a.u.)      Nuclear  (a.u.)        Total (a.u.)
 ------------------------------------------------------------------------------------

 L = 1.  Multiply by 2.5417464519 to convert [e a0] to [Debye]
 Dipole X            :          0.0000000            0.0000000            0.0000000
 Dipole Y            :          0.0000000            0.0000000            0.0000000
 Dipole Z            :         -0.8189323            0.5027826           -0.3161497
 Magnitude           :                                                    0.3161497

 ------------------------------------------------------------------------------------

*** tstop() called on Joses-MacBook-Pro-2.local at Thu Jul 17 15:41:58 2025
Module time:
	user time   =      17.29 seconds =       0.29 minutes
	system time =       1.99 seconds =       0.03 minutes
	total time  =          2 seconds =       0.03 minutes
Total time:
	user time   =      17.29 seconds =       0.29 minutes
	system time =       1.99 seconds =       0.03 minutes
	total time  =          2 seconds =       0.03 minutes

*** tstart() called on Joses-MacBook-Pro-2.local
*** at Thu Jul 17 15:41:58 2025


         ------------------------------------------------------------
                                   SCF GRAD                          
                          Rob Parrish, Justin Turney,                
                       Andy Simmonett, and Alex Sokolov              
         ------------------------------------------------------------

  ==> Geometry <==

    Molecular point group: c2v
    Full point group: C_inf_v

    Geometry (in Angstrom), charge = 1, multiplicity = 1:

       Center              X                  Y                   Z               Mass       
    ------------   -----------------  -----------------  -----------------  -----------------
         SI           0.000000000000     0.000000000000     0.666647132510    27.976926534650
         CL           0.000000000000     0.000000000000    -0.533352867490    34.968852682000

  Nuclear repulsion =  104.953480116216681

  ==> Basis Set <==

  Basis Set: CC-PVDZ
    Blend: CC-PVDZ
    Number of shells: 16
    Number of basis functions: 36
    Number of Cartesian functions: 38
    Spherical Harmonics?: true
    Max angular momentum: 2

  ==> DFJKGrad: Density-Fitted SCF Gradients <==

    Gradient:                    1
    J tasked:                  Yes
    K tasked:                  Yes
    wK tasked:                  No
    OpenMP threads:              1
    Integrals threads:           1
    Memory [MiB]:              375
    Schwarz Cutoff:          1E-12
    Fitting Condition:       1E-10

   => Auxiliary Basis Set <=

  Basis Set: (CC-PVDZ AUX)
    Blend: CC-PVDZ-JKFIT
    Number of shells: 72
    Number of basis functions: 224
    Number of Cartesian functions: 260
    Spherical Harmonics?: true
    Max angular momentum: 3

  ==> DFT Potential <==

   => LibXC <=

    Version 6.2.2
    S. Lehtola, C. Steigemann, M. J.T. Oliveira, and M. A.L. Marques.,  SoftwareX 7, 1–5 (2018) (10.1016/j.softx.2017.11.002)

   => Composite Functional: B3LYP <= 

    B3LYP Hyb-GGA Exchange-Correlation Functional

    P. J. Stephens, F. J. Devlin, C. F. Chabalowski, and M. J. Frisch.,  J. Phys. Chem. 98, 11623 (1994) (10.1021/j100096a001)

    Deriv               =              1
    GGA                 =           TRUE
    Meta                =          FALSE

    Exchange Hybrid     =           TRUE
    MP2 Hybrid          =          FALSE

   => Exchange Functionals <=

    0.0800   Slater exchange
    0.7200         Becke 88

   => Exact (HF) Exchange <=

    0.2000               HF 

   => Correlation Functionals <=

    0.1900   Vosko, Wilk & Nusair (VWN5_RPA)
    0.8100   Lee, Yang & Parr

   => LibXC Density Thresholds  <==

    XC_HYB_GGA_XC_B3LYP:  1.00E-15 

   => Molecular Quadrature <=

    Radial Scheme          =       TREUTLER
    Pruning Scheme         =           NONE
    Nuclear Scheme         =       TREUTLER

    Blocking Scheme        =         OCTREE
    BS radius alpha        =              1
    Pruning alpha          =              1
    Radial Points          =             75
    Spherical Points       =            302
    Total Points           =          41465
    Total Blocks           =            389
    Max Points             =            249
    Max Functions          =             36
    Weights Tolerance      =       1.00E-15


  -Total Gradient:
     Atom            X                  Y                   Z
    ------   -----------------  -----------------  -----------------
       1        0.000000000000     0.000000000000    -2.877224689979
       2        0.000000000000    -0.000000000000     2.877214391072


*** tstop() called on Joses-MacBook-Pro-2.local at Thu Jul 17 15:41:59 2025
Module time:
	user time   =       2.27 seconds =       0.04 minutes
	system time =       1.36 seconds =       0.02 minutes
	total time  =          1 seconds =       0.02 minutes
Total time:
	user time   =      19.56 seconds =       0.33 minutes
	system time =       3.35 seconds =       0.06 minutes
	total time  =          3 seconds =       0.05 minutes

    			-----------------------------------------

    			 OPTKING 3.0: for geometry optimizations 

    			     By R.A. King, Bethel University     

    			        with contributions from          

    			    A.V. Copan, J. Cayton, A. Heide      

    			-----------------------------------------

    
	                            ===> Fragment 1 <== 

	 Z (Atomic Numbers)          Masses                          Geom                  
	      14.000000            27.976927          0.00000000  0.00000000  1.25978050   
	      17.000000            34.968853          0.00000000  0.00000000 -1.00789085   

	 - Coordinate -           - BOHR/RAD -       - ANG/DEG -
	 R(1,2)           =         2.267671           1.200000


	        --- Internal Coordinate Step in ANG or DEG, aJ/ANG or AJ/DEG ---
	-------------------------------------------------------------------------------
	           Coordinate      Previous         Force          Change          New 
	           ----------      --------        ------          ------        ------
	               R(1,2)       1.20000       23.70462        0.00699       1.20699
	-------------------------------------------------------------------------------

	                                 ==> Convergence Check <==                                  
    
	Measures of convergence in internal coordinates in au.
    
	Criteria marked as inactive (o), active & met (*), and active & unmet ( ).

	----------------------------------------------------------------------------------------------
	   Step    Total Energy     Delta E     Max Force     RMS Force      Max Disp      RMS Disp   
	----------------------------------------------------------------------------------------------
	  Convergence Criteria     1.00e-06 *    3.00e-04 *             o    1.20e-03 *             o
	----------------------------------------------------------------------------------------------
	     1    -748.25699886   -7.48e+02      2.88e+00      2.88e+00 o    1.32e-02      1.32e-02 o  ~
	----------------------------------------------------------------------------------------------

Next Geometry in Ang 
	Fragment 1 (Ang)

	   Si   0.0000000000   0.0000000000   0.6701414837
	   Cl   0.0000000000   0.0000000000  -0.5368472187


    Structure for next step:
    Molecular point group: c2v
    Full point group: C_inf_v

    Geometry (in Angstrom), charge = 1, multiplicity = 1:

    SI           0.000000000000     0.000000000000     0.670529631230
    CL           0.000000000000     0.000000000000    -0.536459071243


Scratch directory: /tmp/
gradient() will perform analytic gradient computation.
   => Libint2 <=

    Primary   basis highest AM E, G, H:  6, 6, 3
    Auxiliary basis highest AM E, G, H:  7, 7, 4
    Onebody   basis highest AM E, G, H:  -, -, -
    Solid Harmonics ordering:            Gaussian

*** tstart() called on Joses-MacBook-Pro-2.local
*** at Thu Jul 17 15:41:59 2025

   => Loading Basis Set <=

    Name: CC-PVDZ
    Role: ORBITAL
    Keyword: BASIS
    atoms 1 entry SI         line   478 file /Users/joseantoniorodriguesromero/anaconda3/share/psi4/basis/cc-pvdz.gbs 
    atoms 2 entry CL         line   658 file /Users/joseantoniorodriguesromero/anaconda3/share/psi4/basis/cc-pvdz.gbs 


         ---------------------------------------------------------
                                   SCF
               by Justin Turney, Rob Parrish, Andy Simmonett
                          and Daniel G. A. Smith
                              UKS Reference
                        1 Threads,    500 MiB Core
         ---------------------------------------------------------

  ==> Geometry <==

    Molecular point group: c2v
    Full point group: C_inf_v

    Geometry (in Angstrom), charge = 1, multiplicity = 1:

       Center              X                  Y                   Z               Mass       
    ------------   -----------------  -----------------  -----------------  -----------------
         SI           0.000000000000     0.000000000000     0.670529631230    27.976926534650
         CL           0.000000000000     0.000000000000    -0.536459071243    34.968852682000

  Running in c2v symmetry.

  Rotational constants: A = ************  B =      0.74452  C =      0.74452 [cm^-1]
  Rotational constants: A = ************  B =  22320.09390  C =  22320.09390 [MHz]
  Nuclear repulsion =  104.345778781065036

  Charge       = 1
  Multiplicity = 1
  Electrons    = 30
  Nalpha       = 15
  Nbeta        = 15

  ==> Algorithm <==

  SCF Algorithm Type is DF.
  DIIS enabled.
  MOM disabled.
  Fractional occupation disabled.
  Guess Type is READ.
  Energy threshold   = 1.00e-08
  Density threshold  = 1.00e-08
  Integral threshold = 1.00e-12

  ==> Primary Basis <==

  Basis Set: CC-PVDZ
    Blend: CC-PVDZ
    Number of shells: 16
    Number of basis functions: 36
    Number of Cartesian functions: 38
    Spherical Harmonics?: true
    Max angular momentum: 2

  ==> DFT Potential <==

   => LibXC <=

    Version 6.2.2
    S. Lehtola, C. Steigemann, M. J.T. Oliveira, and M. A.L. Marques.,  SoftwareX 7, 1–5 (2018) (10.1016/j.softx.2017.11.002)

   => Composite Functional: B3LYP <= 

    B3LYP Hyb-GGA Exchange-Correlation Functional

    P. J. Stephens, F. J. Devlin, C. F. Chabalowski, and M. J. Frisch.,  J. Phys. Chem. 98, 11623 (1994) (10.1021/j100096a001)

    Deriv               =              1
    GGA                 =           TRUE
    Meta                =          FALSE

    Exchange Hybrid     =           TRUE
    MP2 Hybrid          =          FALSE

   => Exchange Functionals <=

    0.0800   Slater exchange
    0.7200         Becke 88

   => Exact (HF) Exchange <=

    0.2000               HF 

   => Correlation Functionals <=

    0.1900   Vosko, Wilk & Nusair (VWN5_RPA)
    0.8100   Lee, Yang & Parr

   => LibXC Density Thresholds  <==

    XC_HYB_GGA_XC_B3LYP:  1.00E-15 

   => Molecular Quadrature <=

    Radial Scheme          =       TREUTLER
    Pruning Scheme         =           NONE
    Nuclear Scheme         =       TREUTLER

    Blocking Scheme        =         OCTREE
    BS radius alpha        =              1
    Pruning alpha          =              1
    Radial Points          =             75
    Spherical Points       =            302
    Total Points           =          41466
    Total Blocks           =            389
    Max Points             =            250
    Max Functions          =             36
    Weights Tolerance      =       1.00E-15

   => Loading Basis Set <=

    Name: (CC-PVDZ AUX)
    Role: JKFIT
    Keyword: DF_BASIS_SCF
    atoms 1 entry SI         line   445 file /Users/joseantoniorodriguesromero/anaconda3/share/psi4/basis/cc-pvdz-jkfit.gbs 
    atoms 2 entry CL         line   667 file /Users/joseantoniorodriguesromero/anaconda3/share/psi4/basis/cc-pvdz-jkfit.gbs 

   => Loading Basis Set <=

    Name: CC-PVDZ
    Role: ORBITAL
    Keyword: BASIS
    atoms 1 entry SI         line   478 file /Users/joseantoniorodriguesromero/anaconda3/share/psi4/basis/cc-pvdz.gbs 
    atoms 2 entry CL         line   658 file /Users/joseantoniorodriguesromero/anaconda3/share/psi4/basis/cc-pvdz.gbs 

  Reading orbitals from file /tmp/singlet_SiCl.default.75574.180.npy, no projection.

  ==> Integral Setup <==

  DFHelper Memory: AOs need 0.003 GiB; user supplied 0.324 GiB. 
  Using in-core AOs.

  ==> MemDFJK: Density-Fitted J/K Matrices <==

    J tasked:                   Yes
    K tasked:                   Yes
    wK tasked:                   No
    OpenMP threads:               1
    Memory [MiB]:               331
    Algorithm:                 Core
    Schwarz Cutoff:           1E-12
    Mask sparsity (%):       0.0000
    Fitting Condition:        1E-10

   => Auxiliary Basis Set <=

  Basis Set: (CC-PVDZ AUX)
    Blend: CC-PVDZ-JKFIT
    Number of shells: 72
    Number of basis functions: 224
    Number of Cartesian functions: 260
    Spherical Harmonics?: true
    Max angular momentum: 3

  Cached 100.0% of DFT collocation blocks in 0.042 [GiB].

  Minimum eigenvalue in the overlap matrix is 7.1149374094E-03.
  Reciprocal condition number of the overlap matrix is 2.2674868494E-03.
    Using symmetric orthogonalization.

  ==> Pre-Iterations <==

  SCF Guess: Orbitals guess was supplied from a previous computation.

   -------------------------------------------------------
    Irrep   Nso     Nmo     Nalpha   Nbeta   Ndocc  Nsocc
   -------------------------------------------------------
     A1        18      18       9       9       9       0
     A2         2       2       0       0       0       0
     B1         8       8       3       3       3       0
     B2         8       8       3       3       3       0
   -------------------------------------------------------
    Total      36      36      15      15      15       0
   -------------------------------------------------------

  ==> Iterations <==

                           Total Energy        Delta E     RMS |[F,P]|

   @DF-UKS iter   0:  -748.29709584330760   -7.48297e+02   3.70237e-03 
   @DF-UKS iter   1:  -748.29443540775173    2.66044e-03   3.65762e-04 DIIS/ADIIS
   @DF-UKS iter   2:  -748.29445342981364   -1.80221e-05   2.47411e-04 DIIS/ADIIS/DAMP=1%
   @DF-UKS iter   3:  -748.29483259855942   -3.79169e-04   6.75146e-06 DIIS/DAMP=1%
   @DF-UKS iter   4:  -748.29446982125933    3.62777e-04   1.55164e-06 DIIS/DAMP=1%
   @DF-UKS iter   5:  -748.29446985104846   -2.97891e-08   6.13704e-07 DIIS/DAMP=1%
   @DF-UKS iter   6:  -748.29446814260950    1.70844e-06   2.02199e-08 DIIS/DAMP=1%
   @DF-UKS iter   7:  -748.29446805249665    9.01128e-08   4.06945e-09 DIIS/DAMP=1%
   @DF-UKS iter   8:  -748.29446805585599   -3.35933e-09   2.15173e-10 DIIS/DAMP=1%
  Energy and wave function converged.


  ==> Post-Iterations <==

   Electrons on quadrature grid:
      Nalpha   =   14.9999983054 ; deviation = -1.695e-06
      Nbeta    =   14.9999983054 ; deviation = -1.695e-06
      Ntotal   =   29.9999966109 ; deviation = -3.389e-06 

   @Spin Contamination Metric:  -1.243449788E-14
   @S^2 Expected:                0.000000000E+00
   @S^2 Observed:               -1.243449788E-14
   @S   Expected:                0.000000000E+00
   @S   Observed:                0.000000000E+00

    Orbital Energies [Eh]
    ---------------------

    Alpha Occupied:                                                       

       1A1  -101.863560     2A1   -66.423669     3A1    -9.866524  
       4A1    -7.630973     1B2    -7.604418     1B1    -7.604418  
       5A1    -5.682002     6A1    -4.056621     2B2    -4.009185  
       2B1    -4.009185     7A1    -1.307221     3B1    -0.818811  
       3B2    -0.818811     8A1    -0.796772     9A1    -0.528122  

    Alpha Virtual:                                                        

       4B2    -0.287203     4B1    -0.287203    10A1    -0.161675  
       5B1    -0.051560     5B2    -0.051560    11A1    -0.013132  
       1A2    -0.013131    12A1     0.043620    13A1     0.081650  
       6B1     0.166448     6B2     0.166448    14A1     0.180735  
       7B1     0.332016     7B2     0.332016    15A1     0.458526  
       2A2     0.458526    16A1     0.512735     8B2     0.838522  
       8B1     0.838522    17A1     0.922673    18A1     1.373340  

    Beta Occupied:                                                        

       1A1  -101.863560     2A1   -66.423669     3A1    -9.866524  
       4A1    -7.630973     1B2    -7.604418     1B1    -7.604418  
       5A1    -5.682002     6A1    -4.056621     2B2    -4.009185  
       2B1    -4.009185     7A1    -1.307221     3B1    -0.818811  
       3B2    -0.818811     8A1    -0.796772     9A1    -0.528122  

    Beta Virtual:                                                         

       4B2    -0.287203     4B1    -0.287203    10A1    -0.161675  
       5B1    -0.051560     5B2    -0.051560    11A1    -0.013132  
       1A2    -0.013131    12A1     0.043620    13A1     0.081650  
       6B1     0.166448     6B2     0.166448    14A1     0.180735  
       7B1     0.332016     7B2     0.332016    15A1     0.458526  
       2A2     0.458526    16A1     0.512735     8B2     0.838522  
       8B1     0.838522    17A1     0.922673    18A1     1.373340  

    Final Occupation by Irrep:
             A1    A2    B1    B2 
    DOCC [     9,    0,    3,    3 ]
    SOCC [     0,    0,    0,    0 ]
    NA   [     9,    0,    3,    3 ]
    NB   [     9,    0,    3,    3 ]

  @DF-UKS Final Energy:  -748.29446805585599

   => Energetics <=

    Nuclear Repulsion Energy =            104.3457787810650359
    One-Electron Energy =               -1230.9011087634162323
    Two-Electron Energy =                 418.1175941971051202
    DFT Exchange-Correlation Energy =     -39.8567322706099247
    Empirical Dispersion Energy =           0.0000000000000000
    VV10 Nonlocal Energy =                  0.0000000000000000
    Total Energy =                       -748.2944680558559867

  UHF NO Occupations:
  HONO-2 :    7 A1 2.0000000
  HONO-1 :    8 A1 2.0000000
  HONO-0 :    9 A1 2.0000000
  LUNO+0 :    4 B2 0.0000000
  LUNO+1 :    5 B2 0.0000000
  LUNO+2 :    4 B1 0.0000000
  LUNO+3 :    5 B1 0.0000000


Computation Completed


Properties will be evaluated at   0.000000,   0.000000,   0.000000 [a0]

Properties computed using the SCF density matrix


 Multipole Moments:

 ------------------------------------------------------------------------------------
     Multipole            Electronic (a.u.)      Nuclear  (a.u.)        Total (a.u.)
 ------------------------------------------------------------------------------------

 L = 1.  Multiply by 2.5417464519 to convert [e a0] to [Debye]
 Dipole X            :          0.0000000            0.0000000            0.0000000
 Dipole Y            :          0.0000000            0.0000000            0.0000000
 Dipole Z            :         -0.8145696            0.5057108           -0.3088588
 Magnitude           :                                                    0.3088588

 ------------------------------------------------------------------------------------

*** tstop() called on Joses-MacBook-Pro-2.local at Thu Jul 17 15:42:00 2025
Module time:
	user time   =       7.25 seconds =       0.12 minutes
	system time =       1.90 seconds =       0.03 minutes
	total time  =          1 seconds =       0.02 minutes
Total time:
	user time   =      26.87 seconds =       0.45 minutes
	system time =       5.43 seconds =       0.09 minutes
	total time  =          4 seconds =       0.07 minutes

*** tstart() called on Joses-MacBook-Pro-2.local
*** at Thu Jul 17 15:42:00 2025


         ------------------------------------------------------------
                                   SCF GRAD                          
                          Rob Parrish, Justin Turney,                
                       Andy Simmonett, and Alex Sokolov              
         ------------------------------------------------------------

  ==> Geometry <==

    Molecular point group: c2v
    Full point group: C_inf_v

    Geometry (in Angstrom), charge = 1, multiplicity = 1:

       Center              X                  Y                   Z               Mass       
    ------------   -----------------  -----------------  -----------------  -----------------
         SI           0.000000000000     0.000000000000     0.670529631230    27.976926534650
         CL           0.000000000000     0.000000000000    -0.536459071243    34.968852682000

  Nuclear repulsion =  104.345778781065036

  ==> Basis Set <==

  Basis Set: CC-PVDZ
    Blend: CC-PVDZ
    Number of shells: 16
    Number of basis functions: 36
    Number of Cartesian functions: 38
    Spherical Harmonics?: true
    Max angular momentum: 2

  ==> DFJKGrad: Density-Fitted SCF Gradients <==

    Gradient:                    1
    J tasked:                  Yes
    K tasked:                  Yes
    wK tasked:                  No
    OpenMP threads:              1
    Integrals threads:           1
    Memory [MiB]:              375
    Schwarz Cutoff:          1E-12
    Fitting Condition:       1E-10

   => Auxiliary Basis Set <=

  Basis Set: (CC-PVDZ AUX)
    Blend: CC-PVDZ-JKFIT
    Number of shells: 72
    Number of basis functions: 224
    Number of Cartesian functions: 260
    Spherical Harmonics?: true
    Max angular momentum: 3

  ==> DFT Potential <==

   => LibXC <=

    Version 6.2.2
    S. Lehtola, C. Steigemann, M. J.T. Oliveira, and M. A.L. Marques.,  SoftwareX 7, 1–5 (2018) (10.1016/j.softx.2017.11.002)

   => Composite Functional: B3LYP <= 

    B3LYP Hyb-GGA Exchange-Correlation Functional

    P. J. Stephens, F. J. Devlin, C. F. Chabalowski, and M. J. Frisch.,  J. Phys. Chem. 98, 11623 (1994) (10.1021/j100096a001)

    Deriv               =              1
    GGA                 =           TRUE
    Meta                =          FALSE

    Exchange Hybrid     =           TRUE
    MP2 Hybrid          =          FALSE

   => Exchange Functionals <=

    0.0800   Slater exchange
    0.7200         Becke 88

   => Exact (HF) Exchange <=

    0.2000               HF 

   => Correlation Functionals <=

    0.1900   Vosko, Wilk & Nusair (VWN5_RPA)
    0.8100   Lee, Yang & Parr

   => LibXC Density Thresholds  <==

    XC_HYB_GGA_XC_B3LYP:  1.00E-15 

   => Molecular Quadrature <=

    Radial Scheme          =       TREUTLER
    Pruning Scheme         =           NONE
    Nuclear Scheme         =       TREUTLER

    Blocking Scheme        =         OCTREE
    BS radius alpha        =              1
    Pruning alpha          =              1
    Radial Points          =             75
    Spherical Points       =            302
    Total Points           =          41466
    Total Blocks           =            389
    Max Points             =            250
    Max Functions          =             36
    Weights Tolerance      =       1.00E-15


  -Total Gradient:
     Atom            X                  Y                   Z
    ------   -----------------  -----------------  -----------------
       1        0.000000000000     0.000000000000    -2.797343847814
       2       -0.000000000000    -0.000000000000     2.797329686684


*** tstop() called on Joses-MacBook-Pro-2.local at Thu Jul 17 15:42:00 2025
Module time:
	user time   =       2.92 seconds =       0.05 minutes
	system time =       0.92 seconds =       0.02 minutes
	total time  =          0 seconds =       0.00 minutes
Total time:
	user time   =      29.80 seconds =       0.50 minutes
	system time =       6.35 seconds =       0.11 minutes
	total time  =          4 seconds =       0.07 minutes

    			-----------------------------------------

    			 OPTKING 3.0: for geometry optimizations 

    			     By R.A. King, Bethel University     

    			        with contributions from          

    			    A.V. Copan, J. Cayton, A. Heide      

    			-----------------------------------------

    
	                            ===> Fragment 1 <== 

	 Z (Atomic Numbers)          Masses                          Geom                  
	      14.000000            27.976927          0.00000000  0.00000000  1.26711736   
	      17.000000            34.968853          0.00000000  0.00000000 -1.01376072   

	 - Coordinate -           - BOHR/RAD -       - ANG/DEG -
	 R(1,2)           =         2.280878           1.206989


	        --- Internal Coordinate Step in ANG or DEG, aJ/ANG or AJ/DEG ---
	-------------------------------------------------------------------------------
	           Coordinate      Previous         Force          Change          New 
	           ----------      --------        ------          ------        ------
	               R(1,2)       1.20699       23.04648        0.01358       1.22057
	-------------------------------------------------------------------------------

	                                 ==> Convergence Check <==                                  
    
	Measures of convergence in internal coordinates in au.
    
	Criteria marked as inactive (o), active & met (*), and active & unmet ( ).

	----------------------------------------------------------------------------------------------
	   Step    Total Energy     Delta E     Max Force     RMS Force      Max Disp      RMS Disp   
	----------------------------------------------------------------------------------------------
	  Convergence Criteria     1.00e-06 *    3.00e-04 *             o    1.20e-03 *             o
	----------------------------------------------------------------------------------------------
	     2    -748.29446806   -3.75e-02      2.80e+00      2.80e+00 o    2.57e-02      2.57e-02 o  ~
	----------------------------------------------------------------------------------------------

Next Geometry in Ang 
	Fragment 1 (Ang)

	   Si   0.0000000000   0.0000000000   0.6773210082
	   Cl   0.0000000000   0.0000000000  -0.5432504482


    Structure for next step:
    Molecular point group: c2v
    Full point group: C_inf_v

    Geometry (in Angstrom), charge = 1, multiplicity = 1:

    SI           0.000000000000     0.000000000000     0.678075384559
    CL           0.000000000000     0.000000000000    -0.542496071898


Scratch directory: /tmp/
gradient() will perform analytic gradient computation.
   => Libint2 <=

    Primary   basis highest AM E, G, H:  6, 6, 3
    Auxiliary basis highest AM E, G, H:  7, 7, 4
    Onebody   basis highest AM E, G, H:  -, -, -
    Solid Harmonics ordering:            Gaussian

*** tstart() called on Joses-MacBook-Pro-2.local
*** at Thu Jul 17 15:42:00 2025

   => Loading Basis Set <=

    Name: CC-PVDZ
    Role: ORBITAL
    Keyword: BASIS
    atoms 1 entry SI         line   478 file /Users/joseantoniorodriguesromero/anaconda3/share/psi4/basis/cc-pvdz.gbs 
    atoms 2 entry CL         line   658 file /Users/joseantoniorodriguesromero/anaconda3/share/psi4/basis/cc-pvdz.gbs 


         ---------------------------------------------------------
                                   SCF
               by Justin Turney, Rob Parrish, Andy Simmonett
                          and Daniel G. A. Smith
                              UKS Reference
                        1 Threads,    500 MiB Core
         ---------------------------------------------------------

  ==> Geometry <==

    Molecular point group: c2v
    Full point group: C_inf_v

    Geometry (in Angstrom), charge = 1, multiplicity = 1:

       Center              X                  Y                   Z               Mass       
    ------------   -----------------  -----------------  -----------------  -----------------
         SI           0.000000000000     0.000000000000     0.678075384559    27.976926534650
         CL           0.000000000000     0.000000000000    -0.542496071898    34.968852682000

  Running in c2v symmetry.

  Rotational constants: A = ************  B =      0.72804  C =      0.72804 [cm^-1]
  Rotational constants: A = ************  B =  21826.09335  C =  21826.09335 [MHz]
  Nuclear repulsion =  103.184598880411698

  Charge       = 1
  Multiplicity = 1
  Electrons    = 30
  Nalpha       = 15
  Nbeta        = 15

  ==> Algorithm <==

  SCF Algorithm Type is DF.
  DIIS enabled.
  MOM disabled.
  Fractional occupation disabled.
  Guess Type is READ.
  Energy threshold   = 1.00e-08
  Density threshold  = 1.00e-08
  Integral threshold = 1.00e-12

  ==> Primary Basis <==

  Basis Set: CC-PVDZ
    Blend: CC-PVDZ
    Number of shells: 16
    Number of basis functions: 36
    Number of Cartesian functions: 38
    Spherical Harmonics?: true
    Max angular momentum: 2

  ==> DFT Potential <==

   => LibXC <=

    Version 6.2.2
    S. Lehtola, C. Steigemann, M. J.T. Oliveira, and M. A.L. Marques.,  SoftwareX 7, 1–5 (2018) (10.1016/j.softx.2017.11.002)

   => Composite Functional: B3LYP <= 

    B3LYP Hyb-GGA Exchange-Correlation Functional

    P. J. Stephens, F. J. Devlin, C. F. Chabalowski, and M. J. Frisch.,  J. Phys. Chem. 98, 11623 (1994) (10.1021/j100096a001)

    Deriv               =              1
    GGA                 =           TRUE
    Meta                =          FALSE

    Exchange Hybrid     =           TRUE
    MP2 Hybrid          =          FALSE

   => Exchange Functionals <=

    0.0800   Slater exchange
    0.7200         Becke 88

   => Exact (HF) Exchange <=

    0.2000               HF 

   => Correlation Functionals <=

    0.1900   Vosko, Wilk & Nusair (VWN5_RPA)
    0.8100   Lee, Yang & Parr

   => LibXC Density Thresholds  <==

    XC_HYB_GGA_XC_B3LYP:  1.00E-15 

   => Molecular Quadrature <=

    Radial Scheme          =       TREUTLER
    Pruning Scheme         =           NONE
    Nuclear Scheme         =       TREUTLER

    Blocking Scheme        =         OCTREE
    BS radius alpha        =              1
    Pruning alpha          =              1
    Radial Points          =             75
    Spherical Points       =            302
    Total Points           =          41466
    Total Blocks           =            389
    Max Points             =            248
    Max Functions          =             36
    Weights Tolerance      =       1.00E-15

   => Loading Basis Set <=

    Name: (CC-PVDZ AUX)
    Role: JKFIT
    Keyword: DF_BASIS_SCF
    atoms 1 entry SI         line   445 file /Users/joseantoniorodriguesromero/anaconda3/share/psi4/basis/cc-pvdz-jkfit.gbs 
    atoms 2 entry CL         line   667 file /Users/joseantoniorodriguesromero/anaconda3/share/psi4/basis/cc-pvdz-jkfit.gbs 

   => Loading Basis Set <=

    Name: CC-PVDZ
    Role: ORBITAL
    Keyword: BASIS
    atoms 1 entry SI         line   478 file /Users/joseantoniorodriguesromero/anaconda3/share/psi4/basis/cc-pvdz.gbs 
    atoms 2 entry CL         line   658 file /Users/joseantoniorodriguesromero/anaconda3/share/psi4/basis/cc-pvdz.gbs 

  Reading orbitals from file /tmp/singlet_SiCl.default.75574.180.npy, no projection.

  ==> Integral Setup <==

  DFHelper Memory: AOs need 0.003 GiB; user supplied 0.324 GiB. 
  Using in-core AOs.

  ==> MemDFJK: Density-Fitted J/K Matrices <==

    J tasked:                   Yes
    K tasked:                   Yes
    wK tasked:                   No
    OpenMP threads:               1
    Memory [MiB]:               331
    Algorithm:                 Core
    Schwarz Cutoff:           1E-12
    Mask sparsity (%):       0.0000
    Fitting Condition:        1E-10

   => Auxiliary Basis Set <=

  Basis Set: (CC-PVDZ AUX)
    Blend: CC-PVDZ-JKFIT
    Number of shells: 72
    Number of basis functions: 224
    Number of Cartesian functions: 260
    Spherical Harmonics?: true
    Max angular momentum: 3

  Cached 100.0% of DFT collocation blocks in 0.042 [GiB].

  Minimum eigenvalue in the overlap matrix is 7.3515385536E-03.
  Reciprocal condition number of the overlap matrix is 2.3436819463E-03.
    Using symmetric orthogonalization.

  ==> Pre-Iterations <==

  SCF Guess: Orbitals guess was supplied from a previous computation.

   -------------------------------------------------------
    Irrep   Nso     Nmo     Nalpha   Nbeta   Ndocc  Nsocc
   -------------------------------------------------------
     A1        18      18       9       9       9       0
     A2         2       2       0       0       0       0
     B1         8       8       3       3       3       0
     B2         8       8       3       3       3       0
   -------------------------------------------------------
    Total      36      36      15      15      15       0
   -------------------------------------------------------

  ==> Iterations <==

                           Total Energy        Delta E     RMS |[F,P]|

   @DF-UKS iter   0:  -748.36982985595409   -7.48370e+02   7.05988e-03 
   @DF-UKS iter   1:  -748.36420944328358    5.62041e-03   6.99332e-04 DIIS/ADIIS
   @DF-UKS iter   2:  -748.36427550744691   -6.60642e-05   4.70516e-04 DIIS/ADIIS/DAMP=1%
   @DF-UKS iter   3:  -748.36501590665057   -7.40399e-04   1.30851e-05 DIIS/DAMP=1%
   @DF-UKS iter   4:  -748.36433212614554    6.83781e-04   2.64397e-06 DIIS/DAMP=1%
   @DF-UKS iter   5:  -748.36433218026900   -5.41235e-08   1.00023e-06 DIIS/DAMP=1%
   @DF-UKS iter   6:  -748.36432874122954    3.43904e-06   4.01603e-08 DIIS/DAMP=1%
   @DF-UKS iter   7:  -748.36432877004029   -2.88107e-08   7.92693e-09 DIIS/DAMP=1%
   @DF-UKS iter   8:  -748.36432877292555   -2.88526e-09   3.28629e-10 DIIS/DAMP=1%
  Energy and wave function converged.


  ==> Post-Iterations <==

   Electrons on quadrature grid:
      Nalpha   =   14.9999983797 ; deviation = -1.620e-06
      Nbeta    =   14.9999983797 ; deviation = -1.620e-06
      Ntotal   =   29.9999967594 ; deviation = -3.241e-06 

   @Spin Contamination Metric:  -1.243449788E-14
   @S^2 Expected:                0.000000000E+00
   @S^2 Observed:               -1.243449788E-14
   @S   Expected:                0.000000000E+00
   @S   Observed:                0.000000000E+00

    Orbital Energies [Eh]
    ---------------------

    Alpha Occupied:                                                       

       1A1  -101.860247     2A1   -66.421609     3A1    -9.860338  
       4A1    -7.624042     1B2    -7.599270     1B1    -7.599270  
       5A1    -5.674388     6A1    -4.048229     2B2    -4.003734  
       2B1    -4.003734     7A1    -1.306343     3B2    -0.813658  
       3B1    -0.813658     8A1    -0.798690     9A1    -0.529666  

    Alpha Virtual:                                                        

       4B2    -0.288422     4B1    -0.288422    10A1    -0.161798  
       5B2    -0.049678     5B1    -0.049678    11A1    -0.009348  
       1A2    -0.009347    12A1     0.042690    13A1     0.080187  
       6B2     0.165937     6B1     0.165937    14A1     0.178146  
       7B2     0.330655     7B1     0.330655    15A1     0.457139  
       2A2     0.457140    16A1     0.510848     8B2     0.835489  
       8B1     0.835489    17A1     0.913052    18A1     1.363282  

    Beta Occupied:                                                        

       1A1  -101.860247     2A1   -66.421609     3A1    -9.860338  
       4A1    -7.624042     1B2    -7.599270     1B1    -7.599270  
       5A1    -5.674388     6A1    -4.048229     2B2    -4.003734  
       2B1    -4.003734     7A1    -1.306343     3B2    -0.813658  
       3B1    -0.813658     8A1    -0.798690     9A1    -0.529666  

    Beta Virtual:                                                         

       4B2    -0.288422     4B1    -0.288422    10A1    -0.161798  
       5B2    -0.049678     5B1    -0.049678    11A1    -0.009348  
       1A2    -0.009347    12A1     0.042690    13A1     0.080187  
       6B2     0.165937     6B1     0.165937    14A1     0.178146  
       7B2     0.330655     7B1     0.330655    15A1     0.457139  
       2A2     0.457140    16A1     0.510848     8B2     0.835489  
       8B1     0.835489    17A1     0.913052    18A1     1.363282  

    Final Occupation by Irrep:
             A1    A2    B1    B2 
    DOCC [     9,    0,    3,    3 ]
    SOCC [     0,    0,    0,    0 ]
    NA   [     9,    0,    3,    3 ]
    NB   [     9,    0,    3,    3 ]

  @DF-UKS Final Energy:  -748.36432877292555

   => Energetics <=

    Nuclear Repulsion Energy =            103.1845988804116985
    One-Electron Energy =               -1228.8556644294285434
    Two-Electron Energy =                 417.1482003778339163
    DFT Exchange-Correlation Energy =     -39.8414636017425394
    Empirical Dispersion Energy =           0.0000000000000000
    VV10 Nonlocal Energy =                  0.0000000000000000
    Total Energy =                       -748.3643287729255462

  UHF NO Occupations:
  HONO-2 :    7 A1 2.0000000
  HONO-1 :    8 A1 2.0000000
  HONO-0 :    9 A1 2.0000000
  LUNO+0 :   10 A1 0.0000000
  LUNO+1 :   11 A1 0.0000000
  LUNO+2 :    4 B2 0.0000000
  LUNO+3 :    4 B1 0.0000000


Computation Completed


Properties will be evaluated at   0.000000,   0.000000,   0.000000 [a0]

Properties computed using the SCF density matrix


 Multipole Moments:

 ------------------------------------------------------------------------------------
     Multipole            Electronic (a.u.)      Nuclear  (a.u.)        Total (a.u.)
 ------------------------------------------------------------------------------------

 L = 1.  Multiply by 2.5417464519 to convert [e a0] to [Debye]
 Dipole X            :          0.0000000            0.0000000            0.0000000
 Dipole Y            :          0.0000000            0.0000000            0.0000000
 Dipole Z            :         -0.8056423            0.5114018           -0.2942406
 Magnitude           :                                                    0.2942406

 ------------------------------------------------------------------------------------

*** tstop() called on Joses-MacBook-Pro-2.local at Thu Jul 17 15:42:01 2025
Module time:
	user time   =       7.34 seconds =       0.12 minutes
	system time =       2.13 seconds =       0.04 minutes
	total time  =          1 seconds =       0.02 minutes
Total time:
	user time   =      37.46 seconds =       0.62 minutes
	system time =       8.61 seconds =       0.14 minutes
	total time  =          5 seconds =       0.08 minutes

*** tstart() called on Joses-MacBook-Pro-2.local
*** at Thu Jul 17 15:42:01 2025


         ------------------------------------------------------------
                                   SCF GRAD                          
                          Rob Parrish, Justin Turney,                
                       Andy Simmonett, and Alex Sokolov              
         ------------------------------------------------------------

  ==> Geometry <==

    Molecular point group: c2v
    Full point group: C_inf_v

    Geometry (in Angstrom), charge = 1, multiplicity = 1:

       Center              X                  Y                   Z               Mass       
    ------------   -----------------  -----------------  -----------------  -----------------
         SI           0.000000000000     0.000000000000     0.678075384559    27.976926534650
         CL           0.000000000000     0.000000000000    -0.542496071898    34.968852682000

  Nuclear repulsion =  103.184598880411698

  ==> Basis Set <==

  Basis Set: CC-PVDZ
    Blend: CC-PVDZ
    Number of shells: 16
    Number of basis functions: 36
    Number of Cartesian functions: 38
    Spherical Harmonics?: true
    Max angular momentum: 2

  ==> DFJKGrad: Density-Fitted SCF Gradients <==

    Gradient:                    1
    J tasked:                  Yes
    K tasked:                  Yes
    wK tasked:                  No
    OpenMP threads:              1
    Integrals threads:           1
    Memory [MiB]:              375
    Schwarz Cutoff:          1E-12
    Fitting Condition:       1E-10

   => Auxiliary Basis Set <=

  Basis Set: (CC-PVDZ AUX)
    Blend: CC-PVDZ-JKFIT
    Number of shells: 72
    Number of basis functions: 224
    Number of Cartesian functions: 260
    Spherical Harmonics?: true
    Max angular momentum: 3

  ==> DFT Potential <==

   => LibXC <=

    Version 6.2.2
    S. Lehtola, C. Steigemann, M. J.T. Oliveira, and M. A.L. Marques.,  SoftwareX 7, 1–5 (2018) (10.1016/j.softx.2017.11.002)

   => Composite Functional: B3LYP <= 

    B3LYP Hyb-GGA Exchange-Correlation Functional

    P. J. Stephens, F. J. Devlin, C. F. Chabalowski, and M. J. Frisch.,  J. Phys. Chem. 98, 11623 (1994) (10.1021/j100096a001)

    Deriv               =              1
    GGA                 =           TRUE
    Meta                =          FALSE

    Exchange Hybrid     =           TRUE
    MP2 Hybrid          =          FALSE

   => Exchange Functionals <=

    0.0800   Slater exchange
    0.7200         Becke 88

   => Exact (HF) Exchange <=

    0.2000               HF 

   => Correlation Functionals <=

    0.1900   Vosko, Wilk & Nusair (VWN5_RPA)
    0.8100   Lee, Yang & Parr

   => LibXC Density Thresholds  <==

    XC_HYB_GGA_XC_B3LYP:  1.00E-15 

   => Molecular Quadrature <=

    Radial Scheme          =       TREUTLER
    Pruning Scheme         =           NONE
    Nuclear Scheme         =       TREUTLER

    Blocking Scheme        =         OCTREE
    BS radius alpha        =              1
    Pruning alpha          =              1
    Radial Points          =             75
    Spherical Points       =            302
    Total Points           =          41466
    Total Blocks           =            389
    Max Points             =            248
    Max Functions          =             36
    Weights Tolerance      =       1.00E-15


  -Total Gradient:
     Atom            X                  Y                   Z
    ------   -----------------  -----------------  -----------------
       1       -0.000000000000     0.000000000000    -2.647286261082
       2        0.000000000000    -0.000000000000     2.647263497854


*** tstop() called on Joses-MacBook-Pro-2.local at Thu Jul 17 15:42:01 2025
Module time:
	user time   =       2.50 seconds =       0.04 minutes
	system time =       0.91 seconds =       0.02 minutes
	total time  =          0 seconds =       0.00 minutes
Total time:
	user time   =      39.96 seconds =       0.67 minutes
	system time =       9.53 seconds =       0.16 minutes
	total time  =          5 seconds =       0.08 minutes

    			-----------------------------------------

    			 OPTKING 3.0: for geometry optimizations 

    			     By R.A. King, Bethel University     

    			        with contributions from          

    			    A.V. Copan, J. Cayton, A. Heide      

    			-----------------------------------------

    
	                            ===> Fragment 1 <== 

	 Z (Atomic Numbers)          Masses                          Geom                  
	      14.000000            27.976927          0.00000000  0.00000000  1.28137677   
	      17.000000            34.968853          0.00000000  0.00000000 -1.02516900   

	 - Coordinate -           - BOHR/RAD -       - ANG/DEG -
	 R(1,2)           =         2.306546           1.220571


	        --- Internal Coordinate Step in ANG or DEG, aJ/ANG or AJ/DEG ---
	-------------------------------------------------------------------------------
	           Coordinate      Previous         Force          Change          New 
	           ----------      --------        ------          ------        ------
	               R(1,2)       1.22057       21.81017        0.05097       1.27154
	-------------------------------------------------------------------------------

	                                 ==> Convergence Check <==                                  
    
	Measures of convergence in internal coordinates in au.
    
	Criteria marked as inactive (o), active & met (*), and active & unmet ( ).

	----------------------------------------------------------------------------------------------
	   Step    Total Energy     Delta E     Max Force     RMS Force      Max Disp      RMS Disp   
	----------------------------------------------------------------------------------------------
	  Convergence Criteria     1.00e-06 *    3.00e-04 *             o    1.20e-03 *             o
	----------------------------------------------------------------------------------------------
	     3    -748.36432877   -6.99e-02      2.65e+00      2.65e+00 o    9.63e-02      9.63e-02 o  ~
	----------------------------------------------------------------------------------------------

Next Geometry in Ang 
	Fragment 1 (Ang)

	   Si   0.0000000000   0.0000000000   0.7035618685
	   Cl   0.0000000000   0.0000000000  -0.5679825559


    Structure for next step:
    Molecular point group: c2v
    Full point group: C_inf_v

    Geometry (in Angstrom), charge = 1, multiplicity = 1:

    SI           0.000000000000     0.000000000000     0.706392870306
    CL           0.000000000000     0.000000000000    -0.565151554066


Scratch directory: /tmp/
gradient() will perform analytic gradient computation.
   => Libint2 <=

    Primary   basis highest AM E, G, H:  6, 6, 3
    Auxiliary basis highest AM E, G, H:  7, 7, 4
    Onebody   basis highest AM E, G, H:  -, -, -
    Solid Harmonics ordering:            Gaussian

*** tstart() called on Joses-MacBook-Pro-2.local
*** at Thu Jul 17 15:42:01 2025

   => Loading Basis Set <=

    Name: CC-PVDZ
    Role: ORBITAL
    Keyword: BASIS
    atoms 1 entry SI         line   478 file /Users/joseantoniorodriguesromero/anaconda3/share/psi4/basis/cc-pvdz.gbs 
    atoms 2 entry CL         line   658 file /Users/joseantoniorodriguesromero/anaconda3/share/psi4/basis/cc-pvdz.gbs 


         ---------------------------------------------------------
                                   SCF
               by Justin Turney, Rob Parrish, Andy Simmonett
                          and Daniel G. A. Smith
                              UKS Reference
                        1 Threads,    500 MiB Core
         ---------------------------------------------------------

  ==> Geometry <==

    Molecular point group: c2v
    Full point group: C_inf_v

    Geometry (in Angstrom), charge = 1, multiplicity = 1:

       Center              X                  Y                   Z               Mass       
    ------------   -----------------  -----------------  -----------------  -----------------
         SI           0.000000000000     0.000000000000     0.706392870306    27.976926534650
         CL           0.000000000000     0.000000000000    -0.565151554066    34.968852682000

  Running in c2v symmetry.

  Rotational constants: A = ************  B =      0.67084  C =      0.67084 [cm^-1]
  Rotational constants: A = ************  B =  20111.26330  C =  20111.26330 [MHz]
  Nuclear repulsion =   99.048191888095388

  Charge       = 1
  Multiplicity = 1
  Electrons    = 30
  Nalpha       = 15
  Nbeta        = 15

  ==> Algorithm <==

  SCF Algorithm Type is DF.
  DIIS enabled.
  MOM disabled.
  Fractional occupation disabled.
  Guess Type is READ.
  Energy threshold   = 1.00e-08
  Density threshold  = 1.00e-08
  Integral threshold = 1.00e-12

  ==> Primary Basis <==

  Basis Set: CC-PVDZ
    Blend: CC-PVDZ
    Number of shells: 16
    Number of basis functions: 36
    Number of Cartesian functions: 38
    Spherical Harmonics?: true
    Max angular momentum: 2

  ==> DFT Potential <==

   => LibXC <=

    Version 6.2.2
    S. Lehtola, C. Steigemann, M. J.T. Oliveira, and M. A.L. Marques.,  SoftwareX 7, 1–5 (2018) (10.1016/j.softx.2017.11.002)

   => Composite Functional: B3LYP <= 

    B3LYP Hyb-GGA Exchange-Correlation Functional

    P. J. Stephens, F. J. Devlin, C. F. Chabalowski, and M. J. Frisch.,  J. Phys. Chem. 98, 11623 (1994) (10.1021/j100096a001)

    Deriv               =              1
    GGA                 =           TRUE
    Meta                =          FALSE

    Exchange Hybrid     =           TRUE
    MP2 Hybrid          =          FALSE

   => Exchange Functionals <=

    0.0800   Slater exchange
    0.7200         Becke 88

   => Exact (HF) Exchange <=

    0.2000               HF 

   => Correlation Functionals <=

    0.1900   Vosko, Wilk & Nusair (VWN5_RPA)
    0.8100   Lee, Yang & Parr

   => LibXC Density Thresholds  <==

    XC_HYB_GGA_XC_B3LYP:  1.00E-15 

   => Molecular Quadrature <=

    Radial Scheme          =       TREUTLER
    Pruning Scheme         =           NONE
    Nuclear Scheme         =       TREUTLER

    Blocking Scheme        =         OCTREE
    BS radius alpha        =              1
    Pruning alpha          =              1
    Radial Points          =             75
    Spherical Points       =            302
    Total Points           =          41474
    Total Blocks           =            388
    Max Points             =            251
    Max Functions          =             36
    Weights Tolerance      =       1.00E-15

   => Loading Basis Set <=

    Name: (CC-PVDZ AUX)
    Role: JKFIT
    Keyword: DF_BASIS_SCF
    atoms 1 entry SI         line   445 file /Users/joseantoniorodriguesromero/anaconda3/share/psi4/basis/cc-pvdz-jkfit.gbs 
    atoms 2 entry CL         line   667 file /Users/joseantoniorodriguesromero/anaconda3/share/psi4/basis/cc-pvdz-jkfit.gbs 

   => Loading Basis Set <=

    Name: CC-PVDZ
    Role: ORBITAL
    Keyword: BASIS
    atoms 1 entry SI         line   478 file /Users/joseantoniorodriguesromero/anaconda3/share/psi4/basis/cc-pvdz.gbs 
    atoms 2 entry CL         line   658 file /Users/joseantoniorodriguesromero/anaconda3/share/psi4/basis/cc-pvdz.gbs 

  Reading orbitals from file /tmp/singlet_SiCl.default.75574.180.npy, no projection.

  ==> Integral Setup <==

  DFHelper Memory: AOs need 0.003 GiB; user supplied 0.324 GiB. 
  Using in-core AOs.

  ==> MemDFJK: Density-Fitted J/K Matrices <==

    J tasked:                   Yes
    K tasked:                   Yes
    wK tasked:                   No
    OpenMP threads:               1
    Memory [MiB]:               331
    Algorithm:                 Core
    Schwarz Cutoff:           1E-12
    Mask sparsity (%):       0.0000
    Fitting Condition:        1E-10

   => Auxiliary Basis Set <=

  Basis Set: (CC-PVDZ AUX)
    Blend: CC-PVDZ-JKFIT
    Number of shells: 72
    Number of basis functions: 224
    Number of Cartesian functions: 260
    Spherical Harmonics?: true
    Max angular momentum: 3

  Cached 100.0% of DFT collocation blocks in 0.042 [GiB].

  Minimum eigenvalue in the overlap matrix is 8.2799371859E-03.
  Reciprocal condition number of the overlap matrix is 2.6436908112E-03.
    Using symmetric orthogonalization.

  ==> Pre-Iterations <==

  SCF Guess: Orbitals guess was supplied from a previous computation.

   -------------------------------------------------------
    Irrep   Nso     Nmo     Nalpha   Nbeta   Ndocc  Nsocc
   -------------------------------------------------------
     A1        18      18       9       9       9       0
     A2         2       2       0       0       0       0
     B1         8       8       3       3       3       0
     B2         8       8       3       3       3       0
   -------------------------------------------------------
    Total      36      36      15      15      15       0
   -------------------------------------------------------

  ==> Iterations <==

                           Total Energy        Delta E     RMS |[F,P]|

   @DF-UKS iter   0:  -748.62287811169620   -7.48623e+02   2.50773e-02 
   @DF-UKS iter   1:  -748.59278641857395    3.00917e-02   2.49738e-03 DIIS/ADIIS
   @DF-UKS iter   2:  -748.59364102857057   -8.54610e-04   1.64860e-03 DIIS/ADIIS/DAMP=1%
   @DF-UKS iter   3:  -748.59662944531760   -2.98842e-03   5.17025e-05 DIIS/DAMP=1%
   @DF-UKS iter   4:  -748.59432844834032    2.30100e-03   7.74061e-06 DIIS/DAMP=1%
   @DF-UKS iter   5:  -748.59431844820381    1.00001e-05   1.97595e-06 DIIS/DAMP=1%
   @DF-UKS iter   6:  -748.59431233876342    6.10944e-06   3.36013e-07 DIIS/DAMP=1%
   @DF-UKS iter   7:  -748.59431082478534    1.51398e-06   2.04517e-08 DIIS/DAMP=1%
   @DF-UKS iter   8:  -748.59431098937773   -1.64592e-07   1.43001e-09 DIIS/DAMP=1%
   @DF-UKS iter   9:  -748.59431100820348   -1.88257e-08   6.91117e-11 DIIS/DAMP=1%
   @DF-UKS iter  10:  -748.59431100896768   -7.64203e-10   3.17149e-12 DIIS/DAMP=1%
  Energy and wave function converged.


  ==> Post-Iterations <==

   Electrons on quadrature grid:
      Nalpha   =   14.9999991329 ; deviation = -8.671e-07
      Nbeta    =   14.9999991329 ; deviation = -8.671e-07
      Ntotal   =   29.9999982659 ; deviation = -1.734e-06 

   @Spin Contamination Metric:  -2.309263891E-14
   @S^2 Expected:                0.000000000E+00
   @S^2 Observed:               -2.309263891E-14
   @S   Expected:                0.000000000E+00
   @S   Observed:                0.000000000E+00

    Orbital Energies [Eh]
    ---------------------

    Alpha Occupied:                                                       

       1A1  -101.852116     2A1   -66.418689     3A1    -9.841579  
       4A1    -7.602935     1B2    -7.583873     1B1    -7.583873  
       5A1    -5.651970     6A1    -4.022656     2B1    -3.988224  
       2B2    -3.988224     7A1    -1.301655     8A1    -0.804480  
       3B2    -0.795363     3B1    -0.795363     9A1    -0.534999  

    Alpha Virtual:                                                        

       4B2    -0.293273     4B1    -0.293273    10A1    -0.161874  
       5B1    -0.042497     5B2    -0.042497    11A1     0.003914  
       1A2     0.003915    12A1     0.038145    13A1     0.076698  
       6B1     0.163500     6B2     0.163500    14A1     0.168527  
       7B2     0.325803     7B1     0.325803    15A1     0.452130  
       2A2     0.452131    16A1     0.505973     8B2     0.822422  
       8B1     0.822422    17A1     0.879173    18A1     1.331214  

    Beta Occupied:                                                        

       1A1  -101.852116     2A1   -66.418689     3A1    -9.841579  
       4A1    -7.602935     1B2    -7.583873     1B1    -7.583873  
       5A1    -5.651970     6A1    -4.022656     2B1    -3.988224  
       2B2    -3.988224     7A1    -1.301655     8A1    -0.804480  
       3B2    -0.795363     3B1    -0.795363     9A1    -0.534999  

    Beta Virtual:                                                         

       4B2    -0.293273     4B1    -0.293273    10A1    -0.161874  
       5B1    -0.042497     5B2    -0.042497    11A1     0.003914  
       1A2     0.003915    12A1     0.038145    13A1     0.076698  
       6B1     0.163500     6B2     0.163500    14A1     0.168527  
       7B2     0.325803     7B1     0.325803    15A1     0.452130  
       2A2     0.452131    16A1     0.505973     8B2     0.822422  
       8B1     0.822422    17A1     0.879173    18A1     1.331214  

    Final Occupation by Irrep:
             A1    A2    B1    B2 
    DOCC [     9,    0,    3,    3 ]
    SOCC [     0,    0,    0,    0 ]
    NA   [     9,    0,    3,    3 ]
    NB   [     9,    0,    3,    3 ]

  @DF-UKS Final Energy:  -748.59431100896768

   => Energetics <=

    Nuclear Repulsion Energy =             99.0481918880953884
    One-Electron Energy =               -1221.4627140812767720
    Two-Electron Energy =                 413.6054720271203564
    DFT Exchange-Correlation Energy =     -39.7852608429065455
    Empirical Dispersion Energy =           0.0000000000000000
    VV10 Nonlocal Energy =                  0.0000000000000000
    Total Energy =                       -748.5943110089675656

  UHF NO Occupations:
  HONO-2 :    3 B2 2.0000000
  HONO-1 :    8 A1 2.0000000
  HONO-0 :    9 A1 2.0000000
  LUNO+0 :   10 A1 0.0000000
  LUNO+1 :   11 A1 0.0000000
  LUNO+2 :   12 A1 0.0000000
  LUNO+3 :    4 B1 0.0000000


Computation Completed


Properties will be evaluated at   0.000000,   0.000000,   0.000000 [a0]

Properties computed using the SCF density matrix


 Multipole Moments:

 ------------------------------------------------------------------------------------
     Multipole            Electronic (a.u.)      Nuclear  (a.u.)        Total (a.u.)
 ------------------------------------------------------------------------------------

 L = 1.  Multiply by 2.5417464519 to convert [e a0] to [Debye]
 Dipole X            :          0.0000000            0.0000000            0.0000000
 Dipole Y            :          0.0000000            0.0000000            0.0000000
 Dipole Z            :         -0.7664760            0.5327587           -0.2337173
 Magnitude           :                                                    0.2337173

 ------------------------------------------------------------------------------------

*** tstop() called on Joses-MacBook-Pro-2.local at Thu Jul 17 15:42:02 2025
Module time:
	user time   =       8.80 seconds =       0.15 minutes
	system time =       1.52 seconds =       0.03 minutes
	total time  =          1 seconds =       0.02 minutes
Total time:
	user time   =      48.99 seconds =       0.82 minutes
	system time =      11.05 seconds =       0.18 minutes
	total time  =          6 seconds =       0.10 minutes

*** tstart() called on Joses-MacBook-Pro-2.local
*** at Thu Jul 17 15:42:02 2025


         ------------------------------------------------------------
                                   SCF GRAD                          
                          Rob Parrish, Justin Turney,                
                       Andy Simmonett, and Alex Sokolov              
         ------------------------------------------------------------

  ==> Geometry <==

    Molecular point group: c2v
    Full point group: C_inf_v

    Geometry (in Angstrom), charge = 1, multiplicity = 1:

       Center              X                  Y                   Z               Mass       
    ------------   -----------------  -----------------  -----------------  -----------------
         SI           0.000000000000     0.000000000000     0.706392870306    27.976926534650
         CL           0.000000000000     0.000000000000    -0.565151554066    34.968852682000

  Nuclear repulsion =   99.048191888095388

  ==> Basis Set <==

  Basis Set: CC-PVDZ
    Blend: CC-PVDZ
    Number of shells: 16
    Number of basis functions: 36
    Number of Cartesian functions: 38
    Spherical Harmonics?: true
    Max angular momentum: 2

  ==> DFJKGrad: Density-Fitted SCF Gradients <==

    Gradient:                    1
    J tasked:                  Yes
    K tasked:                  Yes
    wK tasked:                  No
    OpenMP threads:              1
    Integrals threads:           1
    Memory [MiB]:              375
    Schwarz Cutoff:          1E-12
    Fitting Condition:       1E-10

   => Auxiliary Basis Set <=

  Basis Set: (CC-PVDZ AUX)
    Blend: CC-PVDZ-JKFIT
    Number of shells: 72
    Number of basis functions: 224
    Number of Cartesian functions: 260
    Spherical Harmonics?: true
    Max angular momentum: 3

  ==> DFT Potential <==

   => LibXC <=

    Version 6.2.2
    S. Lehtola, C. Steigemann, M. J.T. Oliveira, and M. A.L. Marques.,  SoftwareX 7, 1–5 (2018) (10.1016/j.softx.2017.11.002)

   => Composite Functional: B3LYP <= 

    B3LYP Hyb-GGA Exchange-Correlation Functional

    P. J. Stephens, F. J. Devlin, C. F. Chabalowski, and M. J. Frisch.,  J. Phys. Chem. 98, 11623 (1994) (10.1021/j100096a001)

    Deriv               =              1
    GGA                 =           TRUE
    Meta                =          FALSE

    Exchange Hybrid     =           TRUE
    MP2 Hybrid          =          FALSE

   => Exchange Functionals <=

    0.0800   Slater exchange
    0.7200         Becke 88

   => Exact (HF) Exchange <=

    0.2000               HF 

   => Correlation Functionals <=

    0.1900   Vosko, Wilk & Nusair (VWN5_RPA)
    0.8100   Lee, Yang & Parr

   => LibXC Density Thresholds  <==

    XC_HYB_GGA_XC_B3LYP:  1.00E-15 

   => Molecular Quadrature <=

    Radial Scheme          =       TREUTLER
    Pruning Scheme         =           NONE
    Nuclear Scheme         =       TREUTLER

    Blocking Scheme        =         OCTREE
    BS radius alpha        =              1
    Pruning alpha          =              1
    Radial Points          =             75
    Spherical Points       =            302
    Total Points           =          41474
    Total Blocks           =            388
    Max Points             =            251
    Max Functions          =             36
    Weights Tolerance      =       1.00E-15


  -Total Gradient:
     Atom            X                  Y                   Z
    ------   -----------------  -----------------  -----------------
       1       -0.000000000000     0.000000000000    -2.142955944452
       2       -0.000000000000     0.000000000000     2.142904022037


*** tstop() called on Joses-MacBook-Pro-2.local at Thu Jul 17 15:42:03 2025
Module time:
	user time   =       2.45 seconds =       0.04 minutes
	system time =       1.35 seconds =       0.02 minutes
	total time  =          1 seconds =       0.02 minutes
Total time:
	user time   =      51.44 seconds =       0.86 minutes
	system time =      12.40 seconds =       0.21 minutes
	total time  =          7 seconds =       0.12 minutes

    			-----------------------------------------

    			 OPTKING 3.0: for geometry optimizations 

    			     By R.A. King, Bethel University     

    			        with contributions from          

    			    A.V. Copan, J. Cayton, A. Heide      

    			-----------------------------------------

    
	                            ===> Fragment 1 <== 

	 Z (Atomic Numbers)          Masses                          Geom                  
	      14.000000            27.976927          0.00000000  0.00000000  1.33488906   
	      17.000000            34.968853          0.00000000  0.00000000 -1.06798166   

	 - Coordinate -           - BOHR/RAD -       - ANG/DEG -
	 R(1,2)           =         2.402871           1.271544


	        --- Internal Coordinate Step in ANG or DEG, aJ/ANG or AJ/DEG ---
	-------------------------------------------------------------------------------
	           Coordinate      Previous         Force          Change          New 
	           ----------      --------        ------          ------        ------
	               R(1,2)       1.27154       17.65501        0.18365       1.45519
	-------------------------------------------------------------------------------

	                                 ==> Convergence Check <==                                  
    
	Measures of convergence in internal coordinates in au.
    
	Criteria marked as inactive (o), active & met (*), and active & unmet ( ).

	----------------------------------------------------------------------------------------------
	   Step    Total Energy     Delta E     Max Force     RMS Force      Max Disp      RMS Disp   
	----------------------------------------------------------------------------------------------
	  Convergence Criteria     1.00e-06 *    3.00e-04 *             o    1.20e-03 *             o
	----------------------------------------------------------------------------------------------
	     4    -748.59431101   -2.30e-01      2.14e+00      2.14e+00 o    3.47e-01      3.47e-01 o  ~
	----------------------------------------------------------------------------------------------

Next Geometry in Ang 
	Fragment 1 (Ang)

	   Si   0.0000000000   0.0000000000   0.7982161689
	   Cl   0.0000000000   0.0000000000  -0.6569748526


    Structure for next step:
    Molecular point group: c2v
    Full point group: C_inf_v

    Geometry (in Angstrom), charge = 1, multiplicity = 1:

    SI           0.000000000000     0.000000000000     0.808415768105
    CL           0.000000000000     0.000000000000    -0.646775253378


Scratch directory: /tmp/
gradient() will perform analytic gradient computation.
   => Libint2 <=

    Primary   basis highest AM E, G, H:  6, 6, 3
    Auxiliary basis highest AM E, G, H:  7, 7, 4
    Onebody   basis highest AM E, G, H:  -, -, -
    Solid Harmonics ordering:            Gaussian

*** tstart() called on Joses-MacBook-Pro-2.local
*** at Thu Jul 17 15:42:03 2025

   => Loading Basis Set <=

    Name: CC-PVDZ
    Role: ORBITAL
    Keyword: BASIS
    atoms 1 entry SI         line   478 file /Users/joseantoniorodriguesromero/anaconda3/share/psi4/basis/cc-pvdz.gbs 
    atoms 2 entry CL         line   658 file /Users/joseantoniorodriguesromero/anaconda3/share/psi4/basis/cc-pvdz.gbs 


         ---------------------------------------------------------
                                   SCF
               by Justin Turney, Rob Parrish, Andy Simmonett
                          and Daniel G. A. Smith
                              UKS Reference
                        1 Threads,    500 MiB Core
         ---------------------------------------------------------

  ==> Geometry <==

    Molecular point group: c2v
    Full point group: C_inf_v

    Geometry (in Angstrom), charge = 1, multiplicity = 1:

       Center              X                  Y                   Z               Mass       
    ------------   -----------------  -----------------  -----------------  -----------------
         SI           0.000000000000     0.000000000000     0.808415768105    27.976926534650
         CL           0.000000000000     0.000000000000    -0.646775253378    34.968852682000

  Running in c2v symmetry.

  Rotational constants: A = ************  B =      0.51220  C =      0.51220 [cm^-1]
  Rotational constants: A = ************  B =  15355.44528  C =  15355.44528 [MHz]
  Nuclear repulsion =   86.548208640730465

  Charge       = 1
  Multiplicity = 1
  Electrons    = 30
  Nalpha       = 15
  Nbeta        = 15

  ==> Algorithm <==

  SCF Algorithm Type is DF.
  DIIS enabled.
  MOM disabled.
  Fractional occupation disabled.
  Guess Type is READ.
  Energy threshold   = 1.00e-08
  Density threshold  = 1.00e-08
  Integral threshold = 1.00e-12

  ==> Primary Basis <==

  Basis Set: CC-PVDZ
    Blend: CC-PVDZ
    Number of shells: 16
    Number of basis functions: 36
    Number of Cartesian functions: 38
    Spherical Harmonics?: true
    Max angular momentum: 2

  ==> DFT Potential <==

   => LibXC <=

    Version 6.2.2
    S. Lehtola, C. Steigemann, M. J.T. Oliveira, and M. A.L. Marques.,  SoftwareX 7, 1–5 (2018) (10.1016/j.softx.2017.11.002)

[...]
    
	Criteria marked as inactive (o), active & met (*), and active & unmet ( ).

	----------------------------------------------------------------------------------------------
	   Step    Total Energy     Delta E     Max Force     RMS Force      Max Disp      RMS Disp   
	----------------------------------------------------------------------------------------------
	  Convergence Criteria     1.00e-06 *    3.00e-04 *             o    1.20e-03 *             o
	----------------------------------------------------------------------------------------------
	    14    -749.42652621   -9.60e-06      5.24e-04      5.24e-04 o    1.92e-03      1.92e-03 o  ~
	----------------------------------------------------------------------------------------------

Next Geometry in Ang 
	Fragment 1 (Ang)

	   Si   0.0000000000   0.0000000000   1.1092264580
	   Cl   0.0000000000   0.0000000000  -0.8875413945


    Structure for next step:
    Molecular point group: c2v
    Full point group: C_inf_v

    Geometry (in Angstrom), charge = 1, multiplicity = 1:

    SI           0.000000000000     0.000000000000     1.109282969303
    CL           0.000000000000     0.000000000000    -0.887484883206


Scratch directory: /tmp/
gradient() will perform analytic gradient computation.
   => Libint2 <=

    Primary   basis highest AM E, G, H:  6, 6, 3
    Auxiliary basis highest AM E, G, H:  7, 7, 4
    Onebody   basis highest AM E, G, H:  -, -, -
    Solid Harmonics ordering:            Gaussian

*** tstart() called on Joses-MacBook-Pro-2.local
*** at Thu Jul 17 15:42:16 2025

   => Loading Basis Set <=

    Name: CC-PVDZ
    Role: ORBITAL
    Keyword: BASIS
    atoms 1 entry SI         line   478 file /Users/joseantoniorodriguesromero/anaconda3/share/psi4/basis/cc-pvdz.gbs 
    atoms 2 entry CL         line   658 file /Users/joseantoniorodriguesromero/anaconda3/share/psi4/basis/cc-pvdz.gbs 


         ---------------------------------------------------------
                                   SCF
               by Justin Turney, Rob Parrish, Andy Simmonett
                          and Daniel G. A. Smith
                              UKS Reference
                        1 Threads,    500 MiB Core
         ---------------------------------------------------------

  ==> Geometry <==

    Molecular point group: c2v
    Full point group: C_inf_v

    Geometry (in Angstrom), charge = 1, multiplicity = 1:

       Center              X                  Y                   Z               Mass       
    ------------   -----------------  -----------------  -----------------  -----------------
         SI           0.000000000000     0.000000000000     1.109282969303    27.976926534650
         CL           0.000000000000     0.000000000000    -0.887484883206    34.968852682000

  Running in c2v symmetry.

  Rotational constants: A = ************  B =      0.27204  C =      0.27204 [cm^-1]
  Rotational constants: A = ************  B =   8155.43772  C =   8155.43772 [MHz]
  Nuclear repulsion =   63.074020338000189

  Charge       = 1
  Multiplicity = 1
  Electrons    = 30
  Nalpha       = 15
  Nbeta        = 15

  ==> Algorithm <==

  SCF Algorithm Type is DF.
  DIIS enabled.
  MOM disabled.
  Fractional occupation disabled.
  Guess Type is READ.
  Energy threshold   = 1.00e-08
  Density threshold  = 1.00e-08
  Integral threshold = 1.00e-12

  ==> Primary Basis <==

  Basis Set: CC-PVDZ
    Blend: CC-PVDZ
    Number of shells: 16
    Number of basis functions: 36
    Number of Cartesian functions: 38
    Spherical Harmonics?: true
    Max angular momentum: 2

  ==> DFT Potential <==

   => LibXC <=

    Version 6.2.2
    S. Lehtola, C. Steigemann, M. J.T. Oliveira, and M. A.L. Marques.,  SoftwareX 7, 1–5 (2018) (10.1016/j.softx.2017.11.002)

   => Composite Functional: B3LYP <= 

    B3LYP Hyb-GGA Exchange-Correlation Functional

    P. J. Stephens, F. J. Devlin, C. F. Chabalowski, and M. J. Frisch.,  J. Phys. Chem. 98, 11623 (1994) (10.1021/j100096a001)

    Deriv               =              1
    GGA                 =           TRUE
    Meta                =          FALSE

    Exchange Hybrid     =           TRUE
    MP2 Hybrid          =          FALSE

   => Exchange Functionals <=

    0.0800   Slater exchange
    0.7200         Becke 88

   => Exact (HF) Exchange <=

    0.2000               HF 

   => Correlation Functionals <=

    0.1900   Vosko, Wilk & Nusair (VWN5_RPA)
    0.8100   Lee, Yang & Parr

   => LibXC Density Thresholds  <==

    XC_HYB_GGA_XC_B3LYP:  1.00E-15 

   => Molecular Quadrature <=

    Radial Scheme          =       TREUTLER
    Pruning Scheme         =           NONE
    Nuclear Scheme         =       TREUTLER

    Blocking Scheme        =         OCTREE
    BS radius alpha        =              1
    Pruning alpha          =              1
    Radial Points          =             75
    Spherical Points       =            302
    Total Points           =          41590
    Total Blocks           =            384
    Max Points             =            255
    Max Functions          =             36
    Weights Tolerance      =       1.00E-15

   => Loading Basis Set <=

    Name: (CC-PVDZ AUX)
    Role: JKFIT
    Keyword: DF_BASIS_SCF
    atoms 1 entry SI         line   445 file /Users/joseantoniorodriguesromero/anaconda3/share/psi4/basis/cc-pvdz-jkfit.gbs 
    atoms 2 entry CL         line   667 file /Users/joseantoniorodriguesromero/anaconda3/share/psi4/basis/cc-pvdz-jkfit.gbs 

   => Loading Basis Set <=

    Name: CC-PVDZ
    Role: ORBITAL
    Keyword: BASIS
    atoms 1 entry SI         line   478 file /Users/joseantoniorodriguesromero/anaconda3/share/psi4/basis/cc-pvdz.gbs 
    atoms 2 entry CL         line   658 file /Users/joseantoniorodriguesromero/anaconda3/share/psi4/basis/cc-pvdz.gbs 

  Reading orbitals from file /tmp/singlet_SiCl.default.75574.180.npy, no projection.

  ==> Integral Setup <==

  DFHelper Memory: AOs need 0.003 GiB; user supplied 0.324 GiB. 
  Using in-core AOs.

  ==> MemDFJK: Density-Fitted J/K Matrices <==

    J tasked:                   Yes
    K tasked:                   Yes
    wK tasked:                   No
    OpenMP threads:               1
    Memory [MiB]:               332
    Algorithm:                 Core
    Schwarz Cutoff:           1E-12
    Mask sparsity (%):       0.0000
    Fitting Condition:        1E-10

   => Auxiliary Basis Set <=

  Basis Set: (CC-PVDZ AUX)
    Blend: CC-PVDZ-JKFIT
    Number of shells: 72
    Number of basis functions: 224
    Number of Cartesian functions: 260
    Spherical Harmonics?: true
    Max angular momentum: 3

  Cached 100.0% of DFT collocation blocks in 0.042 [GiB].

  Minimum eigenvalue in the overlap matrix is 2.5421387303E-02.
  Reciprocal condition number of the overlap matrix is 8.8863713269E-03.
    Using symmetric orthogonalization.

  ==> Pre-Iterations <==

  SCF Guess: Orbitals guess was supplied from a previous computation.

   -------------------------------------------------------
    Irrep   Nso     Nmo     Nalpha   Nbeta   Ndocc  Nsocc
   -------------------------------------------------------
     A1        18      18       9       9       9       0
     A2         2       2       0       0       0       0
     B1         8       8       3       3       3       0
     B2         8       8       3       3       3       0
   -------------------------------------------------------
    Total      36      36      15      15      15       0
   -------------------------------------------------------

  ==> Iterations <==

                           Total Energy        Delta E     RMS |[F,P]|

   @DF-UKS iter   0:  -749.42585684711207   -7.49426e+02   1.01834e-04 
   @DF-UKS iter   1:  -749.42652650875925   -6.69662e-04   2.67958e-05 DIIS
   @DF-UKS iter   2:  -749.42652610210200    4.06657e-07   4.55878e-05 DIIS/DAMP=1%
   @DF-UKS iter   3:  -749.42648657182485    3.95303e-05   4.24140e-06 DIIS/DAMP=1%
   @DF-UKS iter   4:  -749.42652526475320   -3.86929e-05   8.84422e-07 DIIS/DAMP=1%
   @DF-UKS iter   5:  -749.42652616771272   -9.02960e-07   4.66444e-08 DIIS/DAMP=1%
   @DF-UKS iter   6:  -749.42652671024030   -5.42528e-07   7.79692e-09 DIIS/DAMP=1%
   @DF-UKS iter   7:  -749.42652675856152   -4.83212e-08   6.75721e-10 DIIS/DAMP=1%
   @DF-UKS iter   8:  -749.42652676205455   -3.49303e-09   8.97510e-11 DIIS/DAMP=1%
  Energy and wave function converged.


  ==> Post-Iterations <==

   Electrons on quadrature grid:
      Nalpha   =   14.9999999175 ; deviation = -8.254e-08
      Nbeta    =   14.9999999175 ; deviation = -8.254e-08
      Ntotal   =   29.9999998349 ; deviation = -1.651e-07 

   @Spin Contamination Metric:   5.329070518E-15
   @S^2 Expected:                0.000000000E+00
   @S^2 Observed:                5.329070518E-15
   @S   Expected:                0.000000000E+00
   @S   Observed:                0.000000000E+00

    Orbital Energies [Eh]
    ---------------------

    Alpha Occupied:                                                       

       1A1  -101.821214     2A1   -66.522019     3A1    -9.741059  
       4A1    -7.499057     1B1    -7.495779     1B2    -7.495779  
       5A1    -5.655229     2B1    -4.014545     2B2    -4.014545  
       6A1    -4.009807     7A1    -1.110969     8A1    -0.760623  
       3B2    -0.611870     3B1    -0.611870     9A1    -0.590321  

    Alpha Virtual:                                                        

       4B2    -0.365013     4B1    -0.365013    10A1    -0.225720  
      11A1    -0.031387     5B1     0.039839     5B2     0.039839  
      12A1     0.052480    13A1     0.075217     1A2     0.075217  
       6B1     0.094116     6B2     0.094116    14A1     0.168623  
       7B1     0.335621     7B2     0.335621    15A1     0.442092  
       2A2     0.469332    16A1     0.469333    17A1     0.542541  
       8B1     0.610263     8B2     0.610263    18A1     1.001200  

    Beta Occupied:                                                        

       1A1  -101.821214     2A1   -66.522019     3A1    -9.741059  
       4A1    -7.499057     1B1    -7.495779     1B2    -7.495779  
       5A1    -5.655229     2B1    -4.014545     2B2    -4.014545  
       6A1    -4.009807     7A1    -1.110969     8A1    -0.760623  
       3B2    -0.611870     3B1    -0.611870     9A1    -0.590321  

    Beta Virtual:                                                         

       4B2    -0.365013     4B1    -0.365013    10A1    -0.225720  
      11A1    -0.031387     5B1     0.039839     5B2     0.039839  
      12A1     0.052480    13A1     0.075217     1A2     0.075217  
       6B1     0.094116     6B2     0.094116    14A1     0.168623  
       7B1     0.335621     7B2     0.335621    15A1     0.442092  
       2A2     0.469332    16A1     0.469333    17A1     0.542541  
       8B1     0.610263     8B2     0.610263    18A1     1.001200  

    Final Occupation by Irrep:
             A1    A2    B1    B2 
    DOCC [     9,    0,    3,    3 ]
    SOCC [     0,    0,    0,    0 ]
    NA   [     9,    0,    3,    3 ]
    NB   [     9,    0,    3,    3 ]

  @DF-UKS Final Energy:  -749.42652676205455

   => Energetics <=

    Nuclear Repulsion Energy =             63.0740203380001887
    One-Electron Energy =               -1153.0994084879348520
    Two-Electron Energy =                 379.9447121228479887
    DFT Exchange-Correlation Energy =     -39.3458507349677760
    Empirical Dispersion Energy =           0.0000000000000000
    VV10 Nonlocal Energy =                  0.0000000000000000
    Total Energy =                       -749.4265267620546638

  UHF NO Occupations:
  HONO-2 :    3 B1 2.0000000
  HONO-1 :    9 A1 2.0000000
  HONO-0 :    3 B2 2.0000000
  LUNO+0 :   10 A1 0.0000000
  LUNO+1 :   11 A1 0.0000000
  LUNO+2 :    4 B2 0.0000000
  LUNO+3 :   12 A1 0.0000000


Computation Completed


Properties will be evaluated at   0.000000,   0.000000,   0.000000 [a0]

Properties computed using the SCF density matrix


 Multipole Moments:

 ------------------------------------------------------------------------------------
     Multipole            Electronic (a.u.)      Nuclear  (a.u.)        Total (a.u.)
 ------------------------------------------------------------------------------------

 L = 1.  Multiply by 2.5417464519 to convert [e a0] to [Debye]
 Dipole X            :          0.0000000            0.0000000            0.0000000
 Dipole Y            :          0.0000000            0.0000000            0.0000000
 Dipole Z            :          0.6235852            0.8366168            1.4602020
 Magnitude           :                                                    1.4602020

 ------------------------------------------------------------------------------------

*** tstop() called on Joses-MacBook-Pro-2.local at Thu Jul 17 15:42:17 2025
Module time:
	user time   =       7.17 seconds =       0.12 minutes
	system time =       2.39 seconds =       0.04 minutes
	total time  =          1 seconds =       0.02 minutes
Total time:
	user time   =     168.57 seconds =       2.81 minutes
	system time =      45.61 seconds =       0.76 minutes
	total time  =         21 seconds =       0.35 minutes

*** tstart() called on Joses-MacBook-Pro-2.local
*** at Thu Jul 17 15:42:17 2025


         ------------------------------------------------------------
                                   SCF GRAD                          
                          Rob Parrish, Justin Turney,                
                       Andy Simmonett, and Alex Sokolov              
         ------------------------------------------------------------

  ==> Geometry <==

    Molecular point group: c2v
    Full point group: C_inf_v

    Geometry (in Angstrom), charge = 1, multiplicity = 1:

       Center              X                  Y                   Z               Mass       
    ------------   -----------------  -----------------  -----------------  -----------------
         SI           0.000000000000     0.000000000000     1.109282969303    27.976926534650
         CL           0.000000000000     0.000000000000    -0.887484883206    34.968852682000

  Nuclear repulsion =   63.074020338000189

  ==> Basis Set <==

  Basis Set: CC-PVDZ
    Blend: CC-PVDZ
    Number of shells: 16
    Number of basis functions: 36
    Number of Cartesian functions: 38
    Spherical Harmonics?: true
    Max angular momentum: 2

  ==> DFJKGrad: Density-Fitted SCF Gradients <==

    Gradient:                    1
    J tasked:                  Yes
    K tasked:                  Yes
    wK tasked:                  No
    OpenMP threads:              1
    Integrals threads:           1
    Memory [MiB]:              375
    Schwarz Cutoff:          1E-12
    Fitting Condition:       1E-10

   => Auxiliary Basis Set <=

  Basis Set: (CC-PVDZ AUX)
    Blend: CC-PVDZ-JKFIT
    Number of shells: 72
    Number of basis functions: 224
    Number of Cartesian functions: 260
    Spherical Harmonics?: true
    Max angular momentum: 3

  ==> DFT Potential <==

   => LibXC <=

    Version 6.2.2
    S. Lehtola, C. Steigemann, M. J.T. Oliveira, and M. A.L. Marques.,  SoftwareX 7, 1–5 (2018) (10.1016/j.softx.2017.11.002)

   => Composite Functional: B3LYP <= 

    B3LYP Hyb-GGA Exchange-Correlation Functional

    P. J. Stephens, F. J. Devlin, C. F. Chabalowski, and M. J. Frisch.,  J. Phys. Chem. 98, 11623 (1994) (10.1021/j100096a001)

    Deriv               =              1
    GGA                 =           TRUE
    Meta                =          FALSE

    Exchange Hybrid     =           TRUE
    MP2 Hybrid          =          FALSE

   => Exchange Functionals <=

    0.0800   Slater exchange
    0.7200         Becke 88

   => Exact (HF) Exchange <=

    0.2000               HF 

   => Correlation Functionals <=

    0.1900   Vosko, Wilk & Nusair (VWN5_RPA)
    0.8100   Lee, Yang & Parr

   => LibXC Density Thresholds  <==

    XC_HYB_GGA_XC_B3LYP:  1.00E-15 

   => Molecular Quadrature <=

    Radial Scheme          =       TREUTLER
    Pruning Scheme         =           NONE
    Nuclear Scheme         =       TREUTLER

    Blocking Scheme        =         OCTREE
    BS radius alpha        =              1
    Pruning alpha          =              1
    Radial Points          =             75
    Spherical Points       =            302
    Total Points           =          41590
    Total Blocks           =            384
    Max Points             =            255
    Max Functions          =             36
    Weights Tolerance      =       1.00E-15


  -Total Gradient:
     Atom            X                  Y                   Z
    ------   -----------------  -----------------  -----------------
       1       -0.000000000000     0.000000000000    -0.000049198072
       2       -0.000000000000     0.000000000000     0.000075913559


*** tstop() called on Joses-MacBook-Pro-2.local at Thu Jul 17 15:42:17 2025
Module time:
	user time   =       2.94 seconds =       0.05 minutes
	system time =       0.73 seconds =       0.01 minutes
	total time  =          0 seconds =       0.00 minutes
Total time:
	user time   =     171.51 seconds =       2.86 minutes
	system time =      46.35 seconds =       0.77 minutes
	total time  =         21 seconds =       0.35 minutes

    			-----------------------------------------

    			 OPTKING 3.0: for geometry optimizations 

    			     By R.A. King, Bethel University     

    			        with contributions from          

    			    A.V. Copan, J. Cayton, A. Heide      

    			-----------------------------------------

    
	                            ===> Fragment 1 <== 

	 Z (Atomic Numbers)          Masses                          Geom                  
	      14.000000            27.976927          0.00000000  0.00000000  2.09624101   
	      17.000000            34.968853          0.00000000  0.00000000 -1.67710337   

	 - Coordinate -           - BOHR/RAD -       - ANG/DEG -
	 R(1,2)           =         3.773344           1.996768


	        --- Internal Coordinate Step in ANG or DEG, aJ/ANG or AJ/DEG ---
	-------------------------------------------------------------------------------
	           Coordinate      Previous         Force          Change          New 
	           ----------      --------        ------          ------        ------
	               R(1,2)       1.99677        0.00052        0.00013       1.99690
	-------------------------------------------------------------------------------

	                                 ==> Convergence Check <==                                  
    
	Measures of convergence in internal coordinates in au.
    
	Criteria marked as inactive (o), active & met (*), and active & unmet ( ).

	----------------------------------------------------------------------------------------------
	   Step    Total Energy     Delta E     Max Force     RMS Force      Max Disp      RMS Disp   
	----------------------------------------------------------------------------------------------
	  Convergence Criteria     1.00e-06 *    3.00e-04 *             o    1.20e-03 *             o
	----------------------------------------------------------------------------------------------
	    15    -749.42652676   -5.55e-07 *    6.26e-05 *    6.26e-05 o    2.46e-04 *    2.46e-04 o  ~
	----------------------------------------------------------------------------------------------

Next Geometry in Ang 
	Fragment 1 (Ang)

	   Si   0.0000000000   0.0000000000   1.1093479441
	   Cl   0.0000000000   0.0000000000  -0.8875498580


    Final optimized geometry and variables:
    Molecular point group: c2v
    Full point group: C_inf_v

    Geometry (in Angstrom), charge = 1, multiplicity = 1:

    SI           0.000000000000     0.000000000000     1.109282969303
    CL           0.000000000000     0.000000000000    -0.887484883206


    Psi4 stopped on: Thursday, 17 July 2025 03:42PM
    Psi4 wall time for execution: 0:00:21.22

*** Psi4 exiting successfully. Buy a developer a beer!
