
    -----------------------------------------------------------------------
          Psi4: An Open-Source Ab Initio Electronic Structure Package
                               Psi4 1.9.1 release

                         Git: Rev {} zzzzzzz 


    D. G. A. Smith, L. A. Burns, A. C. Simmonett, R. M. Parrish,
    M. C. Schieber, R. Galvelis, P. Kraus, H. Kruse, R. Di Remigio,
    A. Alenaizan, A. M. James, S. Lehtola, J. P. Misiewicz, M. Scheurer,
    R. A. Shaw, J. B. Schriber, Y. Xie, Z. L. Glick, D. A. Sirianni,
    J. S. O'Brien, J. M. Waldrop, A. Kumar, E. G. Hohenstein,
    B. P. Pritchard, B. R. Brooks, H. F. Schaefer III, A. Yu. Sokolov,
    K. Patkowski, A. E. DePrince III, U. Bozkaya, R. A. King,
    F. A. Evangelista, J. M. Turney, T. D. Crawford, C. D. Sherrill,
    J. Chem. Phys. 152(18) 184108 (2020). https://doi.org/10.1063/5.0006002

                            Additional Code Authors
    E. T. Seidl, C. L. Janssen, E. F. Valeev, M. L. Leininger,
    J. F. Gonthier, R. M. Richard, H. R. McAlexander, M. Saitow, X. Wang,
    P. Verma, M. H. Lechner, A. Jiang, S. Behnle, A. G. Heide,
    M. F. Herbst, and D. L. Poole

             Previous Authors, Complete List of Code Contributors,
                       and Citations for Specific Modules
    https://github.com/psi4/psi4/blob/master/codemeta.json
    https://github.com/psi4/psi4/graphs/contributors
    http://psicode.org/psi4manual/master/introduction.html#citing-psifour

    -----------------------------------------------------------------------


    Psi4 started on: Thursday, 17 July 2025 03:53PM

    Process ID: 75662
    Host:       Joses-MacBook-Pro-2.local
    PSIDATADIR: /Users/joseantoniorodriguesromero/anaconda3/share/psi4
    Memory:     500.0 MiB
    Threads:    1
    
  ==> Input File <==

--------------------------------------------------------------------------
molecule { 
1 1
S   0.00000        0.60000        0.00000
Cl   0.00000       -0.60000        0.00000
}

set { 
basis              cc-pvdz
reference          uks
maxiter            500
geom_maxiter       500
DAMPING_PERCENTAGE 1
guess              SAP
}

optimize('b3lyp')
--------------------------------------------------------------------------

Scratch directory: /tmp/
gradient() will perform analytic gradient computation.
   => Libint2 <=

    Primary   basis highest AM E, G, H:  6, 6, 3
    Auxiliary basis highest AM E, G, H:  7, 7, 4
    Onebody   basis highest AM E, G, H:  -, -, -
    Solid Harmonics ordering:            Gaussian

*** tstart() called on Joses-MacBook-Pro-2.local
*** at Thu Jul 17 15:53:17 2025

   => Loading Basis Set <=

    Name: CC-PVDZ
    Role: ORBITAL
    Keyword: BASIS
    atoms 1 entry S          line   598 file /Users/joseantoniorodriguesromero/anaconda3/share/psi4/basis/cc-pvdz.gbs 
    atoms 2 entry CL         line   658 file /Users/joseantoniorodriguesromero/anaconda3/share/psi4/basis/cc-pvdz.gbs 


         ---------------------------------------------------------
                                   SCF
               by Justin Turney, Rob Parrish, Andy Simmonett
                          and Daniel G. A. Smith
                              UKS Reference
                        1 Threads,    500 MiB Core
         ---------------------------------------------------------

  ==> Geometry <==

    Molecular point group: c2v
    Full point group: C_inf_v

    Geometry (in Angstrom), charge = 1, multiplicity = 1:

       Center              X                  Y                   Z               Mass       
    ------------   -----------------  -----------------  -----------------  -----------------
         S            0.000000000000     0.000000000000     0.626860533153    31.972071174400
         CL           0.000000000000     0.000000000000    -0.573139466847    34.968852682000

  Running in c2v symmetry.

  Rotational constants: A = ************  B =      0.70093  C =      0.70093 [cm^-1]
  Rotational constants: A = ************  B =  21013.29969  C =  21013.29969 [MHz]
  Nuclear repulsion =  119.946834418533356

  Charge       = 1
  Multiplicity = 1
  Electrons    = 32
  Nalpha       = 16
  Nbeta        = 16

  ==> Algorithm <==

  SCF Algorithm Type is DF.
  DIIS enabled.
  MOM disabled.
  Fractional occupation disabled.
  Guess Type is SAP.
  Energy threshold   = 1.00e-08
  Density threshold  = 1.00e-08
  Integral threshold = 1.00e-12

  ==> Primary Basis <==

  Basis Set: CC-PVDZ
    Blend: CC-PVDZ
    Number of shells: 16
    Number of basis functions: 36
    Number of Cartesian functions: 38
    Spherical Harmonics?: true
    Max angular momentum: 2

  ==> DFT Potential <==

   => LibXC <=

    Version 6.2.2
    S. Lehtola, C. Steigemann, M. J.T. Oliveira, and M. A.L. Marques.,  SoftwareX 7, 1–5 (2018) (10.1016/j.softx.2017.11.002)

   => Composite Functional: B3LYP <= 

    B3LYP Hyb-GGA Exchange-Correlation Functional

    P. J. Stephens, F. J. Devlin, C. F. Chabalowski, and M. J. Frisch.,  J. Phys. Chem. 98, 11623 (1994) (10.1021/j100096a001)

    Deriv               =              1
    GGA                 =           TRUE
    Meta                =          FALSE

    Exchange Hybrid     =           TRUE
    MP2 Hybrid          =          FALSE

   => Exchange Functionals <=

    0.0800   Slater exchange
    0.7200         Becke 88

   => Exact (HF) Exchange <=

    0.2000               HF 

   => Correlation Functionals <=

    0.1900   Vosko, Wilk & Nusair (VWN5_RPA)
    0.8100   Lee, Yang & Parr

   => LibXC Density Thresholds  <==

    XC_HYB_GGA_XC_B3LYP:  1.00E-15 

   => Molecular Quadrature <=

    Radial Scheme          =       TREUTLER
    Pruning Scheme         =           NONE
    Nuclear Scheme         =       TREUTLER

    Blocking Scheme        =         OCTREE
    BS radius alpha        =              1
    Pruning alpha          =              1
    Radial Points          =             75
    Spherical Points       =            302
    Total Points           =          40082
    Total Blocks           =            362
    Max Points             =            256
    Max Functions          =             36
    Weights Tolerance      =       1.00E-15

   => Loading Basis Set <=

    Name: (CC-PVDZ AUX)
    Role: JKFIT
    Keyword: DF_BASIS_SCF
    atoms 1 entry S          line   593 file /Users/joseantoniorodriguesromero/anaconda3/share/psi4/basis/cc-pvdz-jkfit.gbs 
    atoms 2 entry CL         line   667 file /Users/joseantoniorodriguesromero/anaconda3/share/psi4/basis/cc-pvdz-jkfit.gbs 

  ==> Integral Setup <==

  DFHelper Memory: AOs need 0.003 GiB; user supplied 0.325 GiB. 
  Using in-core AOs.

  ==> MemDFJK: Density-Fitted J/K Matrices <==

    J tasked:                   Yes
    K tasked:                   Yes
    wK tasked:                   No
    OpenMP threads:               1
    Memory [MiB]:               332
    Algorithm:                 Core
    Schwarz Cutoff:           1E-12
    Mask sparsity (%):       0.0000
    Fitting Condition:        1E-10

   => Auxiliary Basis Set <=

  Basis Set: (CC-PVDZ AUX)
    Blend: CC-PVDZ-JKFIT
    Number of shells: 72
    Number of basis functions: 224
    Number of Cartesian functions: 260
    Spherical Harmonics?: true
    Max angular momentum: 3

  Cached 100.0% of DFT collocation blocks in 0.041 [GiB].

  Minimum eigenvalue in the overlap matrix is 5.4816984114E-03.
  Reciprocal condition number of the overlap matrix is 1.7448808935E-03.
    Using symmetric orthogonalization.

  ==> Pre-Iterations <==

  SCF Guess: Superposition of Atomic Potentials (doi:10.1021/acs.jctc.8b01089).

  ==> SAP guess <==

   => Molecular Quadrature <=

    Radial Scheme          =       TREUTLER
    Pruning Scheme         =           NONE
    Nuclear Scheme         =       TREUTLER

    Blocking Scheme        =         OCTREE
    BS radius alpha        =              1
    Pruning alpha          =              1
    Radial Points          =             75
    Spherical Points       =            302
    Total Points           =          40082
    Total Blocks           =            362
    Max Points             =            256
    Max Functions          =             36
    Weights Tolerance      =       1.00E-15

   -------------------------------------------------------
    Irrep   Nso     Nmo     Nalpha   Nbeta   Ndocc  Nsocc
   -------------------------------------------------------
     A1        18      18       9       9       9       0
     A2         2       2       0       0       0       0
     B1         8       8       4       4       4       0
     B2         8       8       3       3       3       0
   -------------------------------------------------------
    Total      36      36      16      16      16       0
   -------------------------------------------------------

  ==> Iterations <==

                           Total Energy        Delta E     RMS |[F,P]|

   @DF-UKS iter   1:  -856.69633488870636   -8.56696e+02   2.26695e-02 ADIIS/DIIS
   @DF-UKS iter   2:  -856.76158832835029   -6.52534e-02   1.67634e-02 ADIIS/DIIS/DAMP=1%
   @DF-UKS iter   3:  -856.80696109788676   -4.53728e-02   1.22925e-03 ADIIS/DIIS/DAMP=1%
   @DF-UKS iter   4:  -856.83216916404615   -2.52081e-02   7.05879e-04 ADIIS/DIIS/DAMP=1%
   @DF-UKS iter   5:  -856.83174643700545    4.22727e-04   5.12802e-05 DIIS/DAMP=1%
   @DF-UKS iter   6:  -856.83147149173021    2.74945e-04   6.26926e-06 DIIS/DAMP=1%
   @DF-UKS iter   7:  -856.83155325126540   -8.17595e-05   4.71443e-07 DIIS/DAMP=1%
   @DF-UKS iter   8:  -856.83155584102258   -2.58976e-06   4.37000e-08 DIIS/DAMP=1%
   @DF-UKS iter   9:  -856.83155630855072   -4.67528e-07   2.88363e-09 DIIS/DAMP=1%
   @DF-UKS iter  10:  -856.83155632667228   -1.81216e-08   1.25325e-10 DIIS/DAMP=1%
   @DF-UKS iter  11:  -856.83155632719570   -5.23414e-10   9.84787e-12 DIIS/DAMP=1%
  Energy and wave function converged.


  ==> Post-Iterations <==

   Electrons on quadrature grid:
      Nalpha   =   15.9999974734 ; deviation = -2.527e-06
      Nbeta    =   15.9999974734 ; deviation = -2.527e-06
      Ntotal   =   31.9999949467 ; deviation = -5.053e-06 

   @Spin Contamination Metric:  -2.842170943E-14
   @S^2 Expected:                0.000000000E+00
   @S^2 Observed:               -2.842170943E-14
   @S   Expected:                0.000000000E+00
   @S   Observed:                0.000000000E+00

    Orbital Energies [Eh]
    ---------------------

    Alpha Occupied:                                                       

       1A1  -101.937996     2A1   -89.221426     3A1    -9.929498  
       4A1    -8.368303     5A1    -7.695154     1B2    -7.673006  
       1B1    -7.659562     6A1    -6.337971     2B2    -6.313515  
       2B1    -6.295642     7A1    -1.546280     3B2    -0.940676  
       8A1    -0.935528     3B1    -0.913022     9A1    -0.737516  
       4B1    -0.450822  

    Alpha Virtual:                                                        

       4B2    -0.410770    10A1    -0.116004     5B2    -0.037868  
      11A1    -0.028631     5B1    -0.016313     1A2     0.070411  
      12A1     0.073062    13A1     0.196319    14A1     0.265912  
       6B2     0.285307     6B1     0.304426     7B2     0.305277  
       7B1     0.323306     2A2     0.488132    15A1     0.490386  
      16A1     0.637697    17A1     0.881941     8B2     1.005864  
       8B1     1.032776    18A1     2.098404  

    Beta Occupied:                                                        

       1A1  -101.937996     2A1   -89.221426     3A1    -9.929498  
       4A1    -8.368303     5A1    -7.695154     1B2    -7.673006  
       1B1    -7.659562     6A1    -6.337971     2B2    -6.313515  
       2B1    -6.295642     7A1    -1.546280     3B2    -0.940676  
       8A1    -0.935528     3B1    -0.913022     9A1    -0.737516  
       4B1    -0.450822  

    Beta Virtual:                                                         

       4B2    -0.410770    10A1    -0.116004     5B2    -0.037868  
      11A1    -0.028631     5B1    -0.016313     1A2     0.070411  
      12A1     0.073062    13A1     0.196319    14A1     0.265912  
       6B2     0.285307     6B1     0.304426     7B2     0.305277  
       7B1     0.323306     2A2     0.488132    15A1     0.490386  
      16A1     0.637697    17A1     0.881941     8B2     1.005864  
       8B1     1.032776    18A1     2.098404  

    Final Occupation by Irrep:
             A1    A2    B1    B2 
    DOCC [     9,    0,    4,    3 ]
    SOCC [     0,    0,    0,    0 ]
    NA   [     9,    0,    4,    3 ]
    NB   [     9,    0,    4,    3 ]

  @DF-UKS Final Energy:  -856.83155632719570

   => Energetics <=

    Nuclear Repulsion Energy =            119.9468344185333564
    One-Electron Energy =               -1408.5905907479000234
    Two-Electron Energy =                 475.5264944093269719
    DFT Exchange-Correlation Energy =     -43.7142944071560038
    Empirical Dispersion Energy =           0.0000000000000000
    VV10 Nonlocal Energy =                  0.0000000000000000
    Total Energy =                       -856.8315563271956989

  UHF NO Occupations:
  HONO-2 :    7 A1 2.0000000
  HONO-1 :    8 A1 2.0000000
  HONO-0 :    9 A1 2.0000000
  LUNO+0 :   10 A1 0.0000000
  LUNO+1 :   11 A1 0.0000000
  LUNO+2 :    5 B1 0.0000000
  LUNO+3 :    4 B2 0.0000000


Computation Completed


Properties will be evaluated at   0.000000,   0.000000,   0.000000 [a0]

Properties computed using the SCF density matrix


 Multipole Moments:

 ------------------------------------------------------------------------------------
     Multipole            Electronic (a.u.)      Nuclear  (a.u.)        Total (a.u.)
 ------------------------------------------------------------------------------------

 L = 1.  Multiply by 2.5417464519 to convert [e a0] to [Debye]
 Dipole X            :          0.0000000            0.0000000            0.0000000
 Dipole Y            :          0.0000000            0.0000000            0.0000000
 Dipole Z            :         -0.8905387            0.5412130           -0.3493257
 Magnitude           :                                                    0.3493257

 ------------------------------------------------------------------------------------

*** tstop() called on Joses-MacBook-Pro-2.local at Thu Jul 17 15:53:20 2025
Module time:
	user time   =      29.69 seconds =       0.49 minutes
	system time =       2.28 seconds =       0.04 minutes
	total time  =          3 seconds =       0.05 minutes
Total time:
	user time   =      29.69 seconds =       0.49 minutes
	system time =       2.28 seconds =       0.04 minutes
	total time  =          3 seconds =       0.05 minutes

*** tstart() called on Joses-MacBook-Pro-2.local
*** at Thu Jul 17 15:53:20 2025


         ------------------------------------------------------------
                                   SCF GRAD                          
                          Rob Parrish, Justin Turney,                
                       Andy Simmonett, and Alex Sokolov              
         ------------------------------------------------------------

  ==> Geometry <==

    Molecular point group: c2v
    Full point group: C_inf_v

    Geometry (in Angstrom), charge = 1, multiplicity = 1:

       Center              X                  Y                   Z               Mass       
    ------------   -----------------  -----------------  -----------------  -----------------
         S            0.000000000000     0.000000000000     0.626860533153    31.972071174400
         CL           0.000000000000     0.000000000000    -0.573139466847    34.968852682000

  Nuclear repulsion =  119.946834418533356

  ==> Basis Set <==

  Basis Set: CC-PVDZ
    Blend: CC-PVDZ
    Number of shells: 16
    Number of basis functions: 36
    Number of Cartesian functions: 38
    Spherical Harmonics?: true
    Max angular momentum: 2

  ==> DFJKGrad: Density-Fitted SCF Gradients <==

    Gradient:                    1
    J tasked:                  Yes
    K tasked:                  Yes
    wK tasked:                  No
    OpenMP threads:              1
    Integrals threads:           1
    Memory [MiB]:              375
    Schwarz Cutoff:          1E-12
    Fitting Condition:       1E-10

   => Auxiliary Basis Set <=

  Basis Set: (CC-PVDZ AUX)
    Blend: CC-PVDZ-JKFIT
    Number of shells: 72
    Number of basis functions: 224
    Number of Cartesian functions: 260
    Spherical Harmonics?: true
    Max angular momentum: 3

  ==> DFT Potential <==

   => LibXC <=

    Version 6.2.2
    S. Lehtola, C. Steigemann, M. J.T. Oliveira, and M. A.L. Marques.,  SoftwareX 7, 1–5 (2018) (10.1016/j.softx.2017.11.002)

   => Composite Functional: B3LYP <= 

    B3LYP Hyb-GGA Exchange-Correlation Functional

    P. J. Stephens, F. J. Devlin, C. F. Chabalowski, and M. J. Frisch.,  J. Phys. Chem. 98, 11623 (1994) (10.1021/j100096a001)

    Deriv               =              1
    GGA                 =           TRUE
    Meta                =          FALSE

    Exchange Hybrid     =           TRUE
    MP2 Hybrid          =          FALSE

   => Exchange Functionals <=

    0.0800   Slater exchange
    0.7200         Becke 88

   => Exact (HF) Exchange <=

    0.2000               HF 

   => Correlation Functionals <=

    0.1900   Vosko, Wilk & Nusair (VWN5_RPA)
    0.8100   Lee, Yang & Parr

   => LibXC Density Thresholds  <==

    XC_HYB_GGA_XC_B3LYP:  1.00E-15 

   => Molecular Quadrature <=

    Radial Scheme          =       TREUTLER
    Pruning Scheme         =           NONE
    Nuclear Scheme         =       TREUTLER

    Blocking Scheme        =         OCTREE
    BS radius alpha        =              1
    Pruning alpha          =              1
    Radial Points          =             75
    Spherical Points       =            302
    Total Points           =          40082
    Total Blocks           =            362
    Max Points             =            256
    Max Functions          =             36
    Weights Tolerance      =       1.00E-15


  -Total Gradient:
     Atom            X                  Y                   Z
    ------   -----------------  -----------------  -----------------
       1        0.000000000000     0.000000000000    -3.138580057350
       2        0.000000000000     0.000000000000     3.138544384936


*** tstop() called on Joses-MacBook-Pro-2.local at Thu Jul 17 15:53:20 2025
Module time:
	user time   =       2.11 seconds =       0.04 minutes
	system time =       1.29 seconds =       0.02 minutes
	total time  =          0 seconds =       0.00 minutes
Total time:
	user time   =      31.80 seconds =       0.53 minutes
	system time =       3.57 seconds =       0.06 minutes
	total time  =          3 seconds =       0.05 minutes

    			-----------------------------------------

    			 OPTKING 3.0: for geometry optimizations 

    			     By R.A. King, Bethel University     

    			        with contributions from          

    			    A.V. Copan, J. Cayton, A. Heide      

    			-----------------------------------------

    
	                            ===> Fragment 1 <== 

	 Z (Atomic Numbers)          Masses                          Geom                  
	      16.000000            31.972071          0.00000000  0.00000000  1.18459473   
	      17.000000            34.968853          0.00000000  0.00000000 -1.08307662   

	 - Coordinate -           - BOHR/RAD -       - ANG/DEG -
	 R(1,2)           =         2.267671           1.200000


	        --- Internal Coordinate Step in ANG or DEG, aJ/ANG or AJ/DEG ---
	-------------------------------------------------------------------------------
	           Coordinate      Previous         Force          Change          New 
	           ----------      --------        ------          ------        ------
	               R(1,2)       1.20000       25.85775        0.00762       1.20762
	-------------------------------------------------------------------------------

	                                 ==> Convergence Check <==                                  
    
	Measures of convergence in internal coordinates in au.
    
	Criteria marked as inactive (o), active & met (*), and active & unmet ( ).

	----------------------------------------------------------------------------------------------
	   Step    Total Energy     Delta E     Max Force     RMS Force      Max Disp      RMS Disp   
	----------------------------------------------------------------------------------------------
	  Convergence Criteria     1.00e-06 *    3.00e-04 *             o    1.20e-03 *             o
	----------------------------------------------------------------------------------------------
	     1    -856.83155633   -8.57e+02      3.14e+00      3.14e+00 o    1.44e-02      1.44e-02 o  ~
	----------------------------------------------------------------------------------------------

Next Geometry in Ang 
	Fragment 1 (Ang)

	    S   0.0000000000   0.0000000000   0.6306721559
	   Cl   0.0000000000   0.0000000000  -0.5769510896


    Structure for next step:
    Molecular point group: c2v
    Full point group: C_inf_v

    Geometry (in Angstrom), charge = 1, multiplicity = 1:

    S            0.000000000000     0.000000000000     0.630842792981
    CL           0.000000000000     0.000000000000    -0.576780452606


Scratch directory: /tmp/
gradient() will perform analytic gradient computation.
   => Libint2 <=

    Primary   basis highest AM E, G, H:  6, 6, 3
    Auxiliary basis highest AM E, G, H:  7, 7, 4
    Onebody   basis highest AM E, G, H:  -, -, -
    Solid Harmonics ordering:            Gaussian

*** tstart() called on Joses-MacBook-Pro-2.local
*** at Thu Jul 17 15:53:21 2025

   => Loading Basis Set <=

    Name: CC-PVDZ
    Role: ORBITAL
    Keyword: BASIS
    atoms 1 entry S          line   598 file /Users/joseantoniorodriguesromero/anaconda3/share/psi4/basis/cc-pvdz.gbs 
    atoms 2 entry CL         line   658 file /Users/joseantoniorodriguesromero/anaconda3/share/psi4/basis/cc-pvdz.gbs 


         ---------------------------------------------------------
                                   SCF
               by Justin Turney, Rob Parrish, Andy Simmonett
                          and Daniel G. A. Smith
                              UKS Reference
                        1 Threads,    500 MiB Core
         ---------------------------------------------------------

  ==> Geometry <==

    Molecular point group: c2v
    Full point group: C_inf_v

    Geometry (in Angstrom), charge = 1, multiplicity = 1:

       Center              X                  Y                   Z               Mass       
    ------------   -----------------  -----------------  -----------------  -----------------
         S            0.000000000000     0.000000000000     0.630842792981    31.972071174400
         CL           0.000000000000     0.000000000000    -0.576780452606    34.968852682000

  Running in c2v symmetry.

  Rotational constants: A = ************  B =      0.69211  C =      0.69211 [cm^-1]
  Rotational constants: A = ************  B =  20748.83983  C =  20748.83983 [MHz]
  Nuclear repulsion =  119.189657724971767

  Charge       = 1
  Multiplicity = 1
  Electrons    = 32
  Nalpha       = 16
  Nbeta        = 16

  ==> Algorithm <==

  SCF Algorithm Type is DF.
  DIIS enabled.
  MOM disabled.
  Fractional occupation disabled.
  Guess Type is READ.
  Energy threshold   = 1.00e-08
  Density threshold  = 1.00e-08
  Integral threshold = 1.00e-12

  ==> Primary Basis <==

  Basis Set: CC-PVDZ
    Blend: CC-PVDZ
    Number of shells: 16
    Number of basis functions: 36
    Number of Cartesian functions: 38
    Spherical Harmonics?: true
    Max angular momentum: 2

  ==> DFT Potential <==

   => LibXC <=

    Version 6.2.2
    S. Lehtola, C. Steigemann, M. J.T. Oliveira, and M. A.L. Marques.,  SoftwareX 7, 1–5 (2018) (10.1016/j.softx.2017.11.002)

   => Composite Functional: B3LYP <= 

    B3LYP Hyb-GGA Exchange-Correlation Functional

    P. J. Stephens, F. J. Devlin, C. F. Chabalowski, and M. J. Frisch.,  J. Phys. Chem. 98, 11623 (1994) (10.1021/j100096a001)

    Deriv               =              1
    GGA                 =           TRUE
    Meta                =          FALSE

    Exchange Hybrid     =           TRUE
    MP2 Hybrid          =          FALSE

   => Exchange Functionals <=

    0.0800   Slater exchange
    0.7200         Becke 88

   => Exact (HF) Exchange <=

    0.2000               HF 

   => Correlation Functionals <=

    0.1900   Vosko, Wilk & Nusair (VWN5_RPA)
    0.8100   Lee, Yang & Parr

   => LibXC Density Thresholds  <==

    XC_HYB_GGA_XC_B3LYP:  1.00E-15 

   => Molecular Quadrature <=

    Radial Scheme          =       TREUTLER
    Pruning Scheme         =           NONE
    Nuclear Scheme         =       TREUTLER

    Blocking Scheme        =         OCTREE
    BS radius alpha        =              1
    Pruning alpha          =              1
    Radial Points          =             75
    Spherical Points       =            302
    Total Points           =          40082
    Total Blocks           =            362
    Max Points             =            255
    Max Functions          =             36
    Weights Tolerance      =       1.00E-15

   => Loading Basis Set <=

    Name: (CC-PVDZ AUX)
    Role: JKFIT
    Keyword: DF_BASIS_SCF
    atoms 1 entry S          line   593 file /Users/joseantoniorodriguesromero/anaconda3/share/psi4/basis/cc-pvdz-jkfit.gbs 
    atoms 2 entry CL         line   667 file /Users/joseantoniorodriguesromero/anaconda3/share/psi4/basis/cc-pvdz-jkfit.gbs 

   => Loading Basis Set <=

    Name: CC-PVDZ
    Role: ORBITAL
    Keyword: BASIS
    atoms 1 entry S          line   598 file /Users/joseantoniorodriguesromero/anaconda3/share/psi4/basis/cc-pvdz.gbs 
    atoms 2 entry CL         line   658 file /Users/joseantoniorodriguesromero/anaconda3/share/psi4/basis/cc-pvdz.gbs 

  Reading orbitals from file /tmp/singlet_SCl.default.75662.180.npy, no projection.

  ==> Integral Setup <==

  DFHelper Memory: AOs need 0.003 GiB; user supplied 0.325 GiB. 
  Using in-core AOs.

  ==> MemDFJK: Density-Fitted J/K Matrices <==

    J tasked:                   Yes
    K tasked:                   Yes
    wK tasked:                   No
    OpenMP threads:               1
    Memory [MiB]:               332
    Algorithm:                 Core
    Schwarz Cutoff:           1E-12
    Mask sparsity (%):       0.0000
    Fitting Condition:        1E-10

   => Auxiliary Basis Set <=

  Basis Set: (CC-PVDZ AUX)
    Blend: CC-PVDZ-JKFIT
    Number of shells: 72
    Number of basis functions: 224
    Number of Cartesian functions: 260
    Spherical Harmonics?: true
    Max angular momentum: 3

  Cached 100.0% of DFT collocation blocks in 0.041 [GiB].

  Minimum eigenvalue in the overlap matrix is 5.5855979176E-03.
  Reciprocal condition number of the overlap matrix is 1.7787217100E-03.
    Using symmetric orthogonalization.

  ==> Pre-Iterations <==

  SCF Guess: Orbitals guess was supplied from a previous computation.

   -------------------------------------------------------
    Irrep   Nso     Nmo     Nalpha   Nbeta   Ndocc  Nsocc
   -------------------------------------------------------
     A1        18      18       9       9       9       0
     A2         2       2       0       0       0       0
     B1         8       8       4       4       4       0
     B2         8       8       3       3       3       0
   -------------------------------------------------------
    Total      36      36      16      16      16       0
   -------------------------------------------------------

  ==> Iterations <==

                           Total Energy        Delta E     RMS |[F,P]|

   @DF-UKS iter   0:  -856.88520788393714   -8.56885e+02   4.39181e-03 
   @DF-UKS iter   1:  -856.87596644559596    9.24144e-03   3.61532e-04 ADIIS/DIIS
   @DF-UKS iter   2:  -856.87598561950199   -1.91739e-05   2.21230e-04 ADIIS/DIIS/DAMP=1%
   @DF-UKS iter   3:  -856.87636095597270   -3.75336e-04   2.11054e-05 DIIS/DAMP=1%
   @DF-UKS iter   4:  -856.87599746469755    3.63491e-04   5.11753e-06 DIIS/DAMP=1%
   @DF-UKS iter   5:  -856.87599622525954    1.23944e-06   7.55084e-07 DIIS/DAMP=1%
   @DF-UKS iter   6:  -856.87599847128183   -2.24602e-06   1.60216e-08 DIIS/DAMP=1%
   @DF-UKS iter   7:  -856.87599800989437    4.61387e-07   5.60100e-09 DIIS/DAMP=1%
   @DF-UKS iter   8:  -856.87599801236627   -2.47189e-09   3.18946e-10 DIIS/DAMP=1%
  Energy and wave function converged.


  ==> Post-Iterations <==

   Electrons on quadrature grid:
      Nalpha   =   15.9999976019 ; deviation = -2.398e-06
      Nbeta    =   15.9999976019 ; deviation = -2.398e-06
      Ntotal   =   31.9999952039 ; deviation = -4.796e-06 

   @Spin Contamination Metric:   0.000000000E+00
   @S^2 Expected:                0.000000000E+00
   @S^2 Observed:                0.000000000E+00
   @S   Expected:                0.000000000E+00
   @S   Observed:                0.000000000E+00

    Orbital Energies [Eh]
    ---------------------

    Alpha Occupied:                                                       

       1A1  -101.936995     2A1   -89.220924     3A1    -9.926286  
       4A1    -8.365013     5A1    -7.691680     1B2    -7.670499  
       1B1    -7.657071     6A1    -6.334510     2B2    -6.311183  
       2B1    -6.293267     7A1    -1.543560     3B2    -0.936521  
       8A1    -0.936074     3B1    -0.909047     9A1    -0.738262  
       4B1    -0.451939  

    Alpha Virtual:                                                        

       4B2    -0.411936    10A1    -0.116133     5B2    -0.035970  
      11A1    -0.030177     5B1    -0.014394     1A2     0.073847  
      12A1     0.076464    13A1     0.196494    14A1     0.264072  
       6B2     0.284387     6B1     0.303753     7B2     0.304437  
       7B1     0.322265     2A2     0.486347    15A1     0.488588  
      16A1     0.637441    17A1     0.878188     8B2     0.998824  
       8B1     1.025713    18A1     2.072260  

    Beta Occupied:                                                        

       1A1  -101.936995     2A1   -89.220924     3A1    -9.926286  
       4A1    -8.365013     5A1    -7.691680     1B2    -7.670499  
       1B1    -7.657071     6A1    -6.334510     2B2    -6.311183  
       2B1    -6.293267     7A1    -1.543560     3B2    -0.936521  
       8A1    -0.936074     3B1    -0.909047     9A1    -0.738262  
       4B1    -0.451939  

    Beta Virtual:                                                         

       4B2    -0.411936    10A1    -0.116133     5B2    -0.035970  
      11A1    -0.030177     5B1    -0.014394     1A2     0.073847  
      12A1     0.076464    13A1     0.196494    14A1     0.264072  
       6B2     0.284387     6B1     0.303753     7B2     0.304437  
       7B1     0.322265     2A2     0.486347    15A1     0.488588  
      16A1     0.637441    17A1     0.878188     8B2     0.998824  
       8B1     1.025713    18A1     2.072260  

    Final Occupation by Irrep:
             A1    A2    B1    B2 
    DOCC [     9,    0,    4,    3 ]
    SOCC [     0,    0,    0,    0 ]
    NA   [     9,    0,    4,    3 ]
    NB   [     9,    0,    4,    3 ]

  @DF-UKS Final Energy:  -856.87599801236627

   => Energetics <=

    Nuclear Repulsion Energy =            119.1896577249717666
    One-Electron Energy =               -1407.2385301790345693
    Two-Electron Energy =                 474.8764805907022719
    DFT Exchange-Correlation Energy =     -43.7036061490057293
    Empirical Dispersion Energy =           0.0000000000000000
    VV10 Nonlocal Energy =                  0.0000000000000000
    Total Energy =                       -856.8759980123662672

  UHF NO Occupations:
  HONO-2 :    3 B1 2.0000000
  HONO-1 :    9 A1 2.0000000
  HONO-0 :    4 B1 2.0000000
  LUNO+0 :   10 A1 0.0000000
  LUNO+1 :    5 B1 0.0000000
  LUNO+2 :    4 B2 0.0000000
  LUNO+3 :    5 B2 0.0000000


Computation Completed


Properties will be evaluated at   0.000000,   0.000000,   0.000000 [a0]

Properties computed using the SCF density matrix


 Multipole Moments:

 ------------------------------------------------------------------------------------
     Multipole            Electronic (a.u.)      Nuclear  (a.u.)        Total (a.u.)
 ------------------------------------------------------------------------------------

 L = 1.  Multiply by 2.5417464519 to convert [e a0] to [Debye]
 Dipole X            :          0.0000000            0.0000000            0.0000000
 Dipole Y            :          0.0000000            0.0000000            0.0000000
 Dipole Z            :         -0.8900746            0.5446512           -0.3454234
 Magnitude           :                                                    0.3454234

 ------------------------------------------------------------------------------------

*** tstop() called on Joses-MacBook-Pro-2.local at Thu Jul 17 15:53:21 2025
Module time:
	user time   =       6.73 seconds =       0.11 minutes
	system time =       2.14 seconds =       0.04 minutes
	total time  =          0 seconds =       0.00 minutes
Total time:
	user time   =      38.69 seconds =       0.64 minutes
	system time =       5.99 seconds =       0.10 minutes
	total time  =          4 seconds =       0.07 minutes

*** tstart() called on Joses-MacBook-Pro-2.local
*** at Thu Jul 17 15:53:21 2025


         ------------------------------------------------------------
                                   SCF GRAD                          
                          Rob Parrish, Justin Turney,                
                       Andy Simmonett, and Alex Sokolov              
         ------------------------------------------------------------

  ==> Geometry <==

    Molecular point group: c2v
    Full point group: C_inf_v

    Geometry (in Angstrom), charge = 1, multiplicity = 1:

       Center              X                  Y                   Z               Mass       
    ------------   -----------------  -----------------  -----------------  -----------------
         S            0.000000000000     0.000000000000     0.630842792981    31.972071174400
         CL           0.000000000000     0.000000000000    -0.576780452606    34.968852682000

  Nuclear repulsion =  119.189657724971767

  ==> Basis Set <==

  Basis Set: CC-PVDZ
    Blend: CC-PVDZ
    Number of shells: 16
    Number of basis functions: 36
    Number of Cartesian functions: 38
    Spherical Harmonics?: true
    Max angular momentum: 2

  ==> DFJKGrad: Density-Fitted SCF Gradients <==

    Gradient:                    1
    J tasked:                  Yes
    K tasked:                  Yes
    wK tasked:                  No
    OpenMP threads:              1
    Integrals threads:           1
    Memory [MiB]:              375
    Schwarz Cutoff:          1E-12
    Fitting Condition:       1E-10

   => Auxiliary Basis Set <=

  Basis Set: (CC-PVDZ AUX)
    Blend: CC-PVDZ-JKFIT
    Number of shells: 72
    Number of basis functions: 224
    Number of Cartesian functions: 260
    Spherical Harmonics?: true
    Max angular momentum: 3

  ==> DFT Potential <==

   => LibXC <=

    Version 6.2.2
    S. Lehtola, C. Steigemann, M. J.T. Oliveira, and M. A.L. Marques.,  SoftwareX 7, 1–5 (2018) (10.1016/j.softx.2017.11.002)

   => Composite Functional: B3LYP <= 

    B3LYP Hyb-GGA Exchange-Correlation Functional

    P. J. Stephens, F. J. Devlin, C. F. Chabalowski, and M. J. Frisch.,  J. Phys. Chem. 98, 11623 (1994) (10.1021/j100096a001)

    Deriv               =              1
    GGA                 =           TRUE
    Meta                =          FALSE

    Exchange Hybrid     =           TRUE
    MP2 Hybrid          =          FALSE

   => Exchange Functionals <=

    0.0800   Slater exchange
    0.7200         Becke 88

   => Exact (HF) Exchange <=

    0.2000               HF 

   => Correlation Functionals <=

    0.1900   Vosko, Wilk & Nusair (VWN5_RPA)
    0.8100   Lee, Yang & Parr

   => LibXC Density Thresholds  <==

    XC_HYB_GGA_XC_B3LYP:  1.00E-15 

   => Molecular Quadrature <=

    Radial Scheme          =       TREUTLER
    Pruning Scheme         =           NONE
    Nuclear Scheme         =       TREUTLER

    Blocking Scheme        =         OCTREE
    BS radius alpha        =              1
    Pruning alpha          =              1
    Radial Points          =             75
    Spherical Points       =            302
    Total Points           =          40082
    Total Blocks           =            362
    Max Points             =            255
    Max Functions          =             36
    Weights Tolerance      =       1.00E-15


  -Total Gradient:
     Atom            X                  Y                   Z
    ------   -----------------  -----------------  -----------------
       1        0.000000000000     0.000000000000    -3.031924339262
       2        0.000000000000     0.000000000000     3.031886224001


*** tstop() called on Joses-MacBook-Pro-2.local at Thu Jul 17 15:53:22 2025
Module time:
	user time   =       2.24 seconds =       0.04 minutes
	system time =       1.43 seconds =       0.02 minutes
	total time  =          1 seconds =       0.02 minutes
Total time:
	user time   =      40.93 seconds =       0.68 minutes
	system time =       7.43 seconds =       0.12 minutes
	total time  =          5 seconds =       0.08 minutes

    			-----------------------------------------

    			 OPTKING 3.0: for geometry optimizations 

    			     By R.A. King, Bethel University     

    			        with contributions from          

    			    A.V. Copan, J. Cayton, A. Heide      

    			-----------------------------------------

    
	                            ===> Fragment 1 <== 

	 Z (Atomic Numbers)          Masses                          Geom                  
	      16.000000            31.972071          0.00000000  0.00000000  1.19212011   
	      17.000000            34.968853          0.00000000  0.00000000 -1.08995709   

	 - Coordinate -           - BOHR/RAD -       - ANG/DEG -
	 R(1,2)           =         2.282077           1.207623


	        --- Internal Coordinate Step in ANG or DEG, aJ/ANG or AJ/DEG ---
	-------------------------------------------------------------------------------
	           Coordinate      Previous         Force          Change          New 
	           ----------      --------        ------          ------        ------
	               R(1,2)       1.20762       24.97903        0.01472       1.22234
	-------------------------------------------------------------------------------

	                                 ==> Convergence Check <==                                  
    
	Measures of convergence in internal coordinates in au.
    
	Criteria marked as inactive (o), active & met (*), and active & unmet ( ).

	----------------------------------------------------------------------------------------------
	   Step    Total Energy     Delta E     Max Force     RMS Force      Max Disp      RMS Disp   
	----------------------------------------------------------------------------------------------
	  Convergence Criteria     1.00e-06 *    3.00e-04 *             o    1.20e-03 *             o
	----------------------------------------------------------------------------------------------
	     2    -856.87599801   -4.44e-02      3.03e+00      3.03e+00 o    2.78e-02      2.78e-02 o  ~
	----------------------------------------------------------------------------------------------

Next Geometry in Ang 
	Fragment 1 (Ang)

	    S   0.0000000000   0.0000000000   0.6382028090
	   Cl   0.0000000000   0.0000000000  -0.5841404686


    Structure for next step:
    Molecular point group: c2v
    Full point group: C_inf_v

    Geometry (in Angstrom), charge = 1, multiplicity = 1:

    S            0.000000000000     0.000000000000     0.638532298911
    CL           0.000000000000     0.000000000000    -0.583810978690


Scratch directory: /tmp/
gradient() will perform analytic gradient computation.
   => Libint2 <=

    Primary   basis highest AM E, G, H:  6, 6, 3
    Auxiliary basis highest AM E, G, H:  7, 7, 4
    Onebody   basis highest AM E, G, H:  -, -, -
    Solid Harmonics ordering:            Gaussian

*** tstart() called on Joses-MacBook-Pro-2.local
*** at Thu Jul 17 15:53:22 2025

   => Loading Basis Set <=

    Name: CC-PVDZ
    Role: ORBITAL
    Keyword: BASIS
    atoms 1 entry S          line   598 file /Users/joseantoniorodriguesromero/anaconda3/share/psi4/basis/cc-pvdz.gbs 
    atoms 2 entry CL         line   658 file /Users/joseantoniorodriguesromero/anaconda3/share/psi4/basis/cc-pvdz.gbs 


         ---------------------------------------------------------
                                   SCF
               by Justin Turney, Rob Parrish, Andy Simmonett
                          and Daniel G. A. Smith
                              UKS Reference
                        1 Threads,    500 MiB Core
         ---------------------------------------------------------

  ==> Geometry <==

    Molecular point group: c2v
    Full point group: C_inf_v

    Geometry (in Angstrom), charge = 1, multiplicity = 1:

       Center              X                  Y                   Z               Mass       
    ------------   -----------------  -----------------  -----------------  -----------------
         S            0.000000000000     0.000000000000     0.638532298911    31.972071174400
         CL           0.000000000000     0.000000000000    -0.583810978690    34.968852682000

  Running in c2v symmetry.

  Rotational constants: A = ************  B =      0.67554  C =      0.67554 [cm^-1]
  Rotational constants: A = ************  B =  20252.11430  C =  20252.11430 [MHz]
  Nuclear repulsion =  117.754319870619383

  Charge       = 1
  Multiplicity = 1
  Electrons    = 32
  Nalpha       = 16
  Nbeta        = 16

  ==> Algorithm <==

  SCF Algorithm Type is DF.
  DIIS enabled.
  MOM disabled.
  Fractional occupation disabled.
  Guess Type is READ.
  Energy threshold   = 1.00e-08
  Density threshold  = 1.00e-08
  Integral threshold = 1.00e-12

  ==> Primary Basis <==

  Basis Set: CC-PVDZ
    Blend: CC-PVDZ
    Number of shells: 16
    Number of basis functions: 36
    Number of Cartesian functions: 38
    Spherical Harmonics?: true
    Max angular momentum: 2

  ==> DFT Potential <==

   => LibXC <=

    Version 6.2.2
    S. Lehtola, C. Steigemann, M. J.T. Oliveira, and M. A.L. Marques.,  SoftwareX 7, 1–5 (2018) (10.1016/j.softx.2017.11.002)

   => Composite Functional: B3LYP <= 

    B3LYP Hyb-GGA Exchange-Correlation Functional

    P. J. Stephens, F. J. Devlin, C. F. Chabalowski, and M. J. Frisch.,  J. Phys. Chem. 98, 11623 (1994) (10.1021/j100096a001)

    Deriv               =              1
    GGA                 =           TRUE
    Meta                =          FALSE

    Exchange Hybrid     =           TRUE
    MP2 Hybrid          =          FALSE

   => Exchange Functionals <=

    0.0800   Slater exchange
    0.7200         Becke 88

   => Exact (HF) Exchange <=

    0.2000               HF 

   => Correlation Functionals <=

    0.1900   Vosko, Wilk & Nusair (VWN5_RPA)
    0.8100   Lee, Yang & Parr

   => LibXC Density Thresholds  <==

    XC_HYB_GGA_XC_B3LYP:  1.00E-15 

   => Molecular Quadrature <=

    Radial Scheme          =       TREUTLER
    Pruning Scheme         =           NONE
    Nuclear Scheme         =       TREUTLER

    Blocking Scheme        =         OCTREE
    BS radius alpha        =              1
    Pruning alpha          =              1
    Radial Points          =             75
    Spherical Points       =            302
    Total Points           =          40082
    Total Blocks           =            362
    Max Points             =            254
    Max Functions          =             36
    Weights Tolerance      =       1.00E-15

   => Loading Basis Set <=

    Name: (CC-PVDZ AUX)
    Role: JKFIT
    Keyword: DF_BASIS_SCF
    atoms 1 entry S          line   593 file /Users/joseantoniorodriguesromero/anaconda3/share/psi4/basis/cc-pvdz-jkfit.gbs 
    atoms 2 entry CL         line   667 file /Users/joseantoniorodriguesromero/anaconda3/share/psi4/basis/cc-pvdz-jkfit.gbs 

   => Loading Basis Set <=

    Name: CC-PVDZ
    Role: ORBITAL
    Keyword: BASIS
    atoms 1 entry S          line   598 file /Users/joseantoniorodriguesromero/anaconda3/share/psi4/basis/cc-pvdz.gbs 
    atoms 2 entry CL         line   658 file /Users/joseantoniorodriguesromero/anaconda3/share/psi4/basis/cc-pvdz.gbs 

  Reading orbitals from file /tmp/singlet_SCl.default.75662.180.npy, no projection.

  ==> Integral Setup <==

  DFHelper Memory: AOs need 0.003 GiB; user supplied 0.325 GiB. 
  Using in-core AOs.

  ==> MemDFJK: Density-Fitted J/K Matrices <==

    J tasked:                   Yes
    K tasked:                   Yes
    wK tasked:                   No
    OpenMP threads:               1
    Memory [MiB]:               332
    Algorithm:                 Core
    Schwarz Cutoff:           1E-12
    Mask sparsity (%):       0.0000
    Fitting Condition:        1E-10

   => Auxiliary Basis Set <=

  Basis Set: (CC-PVDZ AUX)
    Blend: CC-PVDZ-JKFIT
    Number of shells: 72
    Number of basis functions: 224
    Number of Cartesian functions: 260
    Spherical Harmonics?: true
    Max angular momentum: 3

  Cached 100.0% of DFT collocation blocks in 0.041 [GiB].

  Minimum eigenvalue in the overlap matrix is 5.7904200927E-03.
  Reciprocal condition number of the overlap matrix is 1.8455808079E-03.
    Using symmetric orthogonalization.

  ==> Pre-Iterations <==

  SCF Guess: Orbitals guess was supplied from a previous computation.

   -------------------------------------------------------
    Irrep   Nso     Nmo     Nalpha   Nbeta   Ndocc  Nsocc
   -------------------------------------------------------
     A1        18      18       9       9       9       0
     A2         2       2       0       0       0       0
     B1         8       8       4       4       4       0
     B2         8       8       3       3       3       0
   -------------------------------------------------------
    Total      36      36      16      16      16       0
   -------------------------------------------------------

  ==> Iterations <==

                           Total Energy        Delta E     RMS |[F,P]|

   @DF-UKS iter   0:  -856.97449734980762   -8.56974e+02   8.28397e-03 
   @DF-UKS iter   1:  -856.95746529699284    1.70321e-02   6.63968e-04 ADIIS/DIIS
   @DF-UKS iter   2:  -856.95752972456546   -6.44276e-05   4.05630e-04 ADIIS/DIIS/DAMP=1%
   @DF-UKS iter   3:  -856.95822773560428   -6.98011e-04   4.35967e-05 DIIS/DAMP=1%
   @DF-UKS iter   4:  -856.95757242321099    6.55312e-04   1.07948e-05 DIIS/DAMP=1%
   @DF-UKS iter   5:  -856.95756722944077    5.19377e-06   1.31589e-06 DIIS/DAMP=1%
   @DF-UKS iter   6:  -856.95757234786038   -5.11842e-06   3.30513e-08 DIIS/DAMP=1%
   @DF-UKS iter   7:  -856.95757156898458    7.78876e-07   9.90721e-09 DIIS/DAMP=1%
   @DF-UKS iter   8:  -856.95757157415619   -5.17161e-09   5.72200e-10 DIIS/DAMP=1%
  Energy and wave function converged.


  ==> Post-Iterations <==

   Electrons on quadrature grid:
      Nalpha   =   15.9999979129 ; deviation = -2.087e-06
      Nbeta    =   15.9999979129 ; deviation = -2.087e-06
      Ntotal   =   31.9999958258 ; deviation = -4.174e-06 

   @Spin Contamination Metric:  -7.105427358E-15
   @S^2 Expected:                0.000000000E+00
   @S^2 Observed:               -7.105427358E-15
   @S   Expected:                0.000000000E+00
   @S   Observed:                0.000000000E+00

    Orbital Energies [Eh]
    ---------------------

    Alpha Occupied:                                                       

       1A1  -101.935326     2A1   -89.220251     3A1    -9.920499  
       4A1    -8.359169     5A1    -7.685398     1B2    -7.665989  
       1B1    -7.652592     6A1    -6.328310     2B2    -6.307076  
       2B1    -6.289075     7A1    -1.538084     8A1    -0.937114  
       3B2    -0.928640     3B1    -0.901512     9A1    -0.739624  
       4B1    -0.454114  

    Alpha Virtual:                                                        

       4B2    -0.414206    10A1    -0.116407    11A1    -0.033108  
       5B2    -0.032276     5B1    -0.010660     1A2     0.080368  
      12A1     0.082927    13A1     0.196814    14A1     0.260617  
       6B2     0.282492     6B1     0.302316     7B2     0.302898  
       7B1     0.320353     2A2     0.482932    15A1     0.485150  
      16A1     0.636958    17A1     0.871023     8B2     0.985411  
       8B1     1.012255    18A1     2.023254  

    Beta Occupied:                                                        

       1A1  -101.935326     2A1   -89.220251     3A1    -9.920499  
       4A1    -8.359169     5A1    -7.685398     1B2    -7.665989  
       1B1    -7.652592     6A1    -6.328310     2B2    -6.307076  
       2B1    -6.289075     7A1    -1.538084     8A1    -0.937114  
       3B2    -0.928640     3B1    -0.901512     9A1    -0.739624  
       4B1    -0.454114  

    Beta Virtual:                                                         

       4B2    -0.414206    10A1    -0.116407    11A1    -0.033108  
       5B2    -0.032276     5B1    -0.010660     1A2     0.080368  
      12A1     0.082927    13A1     0.196814    14A1     0.260617  
       6B2     0.282492     6B1     0.302316     7B2     0.302898  
       7B1     0.320353     2A2     0.482932    15A1     0.485150  
      16A1     0.636958    17A1     0.871023     8B2     0.985411  
       8B1     1.012255    18A1     2.023254  

    Final Occupation by Irrep:
             A1    A2    B1    B2 
    DOCC [     9,    0,    4,    3 ]
    SOCC [     0,    0,    0,    0 ]
    NA   [     9,    0,    4,    3 ]
    NB   [     9,    0,    4,    3 ]

  @DF-UKS Final Energy:  -856.95757157415619

   => Energetics <=

    Nuclear Repulsion Energy =            117.7543198706193834
    One-Electron Energy =               -1404.6648717092944025
    Two-Electron Energy =                 473.6362967707449343
    DFT Exchange-Correlation Energy =     -43.6833165062261202
    Empirical Dispersion Energy =           0.0000000000000000
    VV10 Nonlocal Energy =                  0.0000000000000000
    Total Energy =                       -856.9575715741561908

  UHF NO Occupations:
  HONO-2 :    9 A1 2.0000000
  HONO-1 :    3 B1 2.0000000
  HONO-0 :    4 B1 2.0000000
  LUNO+0 :   10 A1 0.0000000
  LUNO+1 :   11 A1 0.0000000
  LUNO+2 :   12 A1 0.0000000
  LUNO+3 :   13 A1 0.0000000


Computation Completed


Properties will be evaluated at   0.000000,   0.000000,   0.000000 [a0]

Properties computed using the SCF density matrix


 Multipole Moments:

 ------------------------------------------------------------------------------------
     Multipole            Electronic (a.u.)      Nuclear  (a.u.)        Total (a.u.)
 ------------------------------------------------------------------------------------

 L = 1.  Multiply by 2.5417464519 to convert [e a0] to [Debye]
 Dipole X            :          0.0000000            0.0000000            0.0000000
 Dipole Y            :          0.0000000            0.0000000            0.0000000
 Dipole Z            :         -0.8888603            0.5512901           -0.3375702
 Magnitude           :                                                    0.3375702

 ------------------------------------------------------------------------------------

*** tstop() called on Joses-MacBook-Pro-2.local at Thu Jul 17 15:53:23 2025
Module time:
	user time   =       7.60 seconds =       0.13 minutes
	system time =       2.05 seconds =       0.03 minutes
	total time  =          1 seconds =       0.02 minutes
Total time:
	user time   =      48.74 seconds =       0.81 minutes
	system time =       9.49 seconds =       0.16 minutes
	total time  =          6 seconds =       0.10 minutes

*** tstart() called on Joses-MacBook-Pro-2.local
*** at Thu Jul 17 15:53:23 2025


         ------------------------------------------------------------
                                   SCF GRAD                          
                          Rob Parrish, Justin Turney,                
                       Andy Simmonett, and Alex Sokolov              
         ------------------------------------------------------------

  ==> Geometry <==

    Molecular point group: c2v
    Full point group: C_inf_v

    Geometry (in Angstrom), charge = 1, multiplicity = 1:

       Center              X                  Y                   Z               Mass       
    ------------   -----------------  -----------------  -----------------  -----------------
         S            0.000000000000     0.000000000000     0.638532298911    31.972071174400
         CL           0.000000000000     0.000000000000    -0.583810978690    34.968852682000

  Nuclear repulsion =  117.754319870619383

  ==> Basis Set <==

  Basis Set: CC-PVDZ
    Blend: CC-PVDZ
    Number of shells: 16
    Number of basis functions: 36
    Number of Cartesian functions: 38
    Spherical Harmonics?: true
    Max angular momentum: 2

  ==> DFJKGrad: Density-Fitted SCF Gradients <==

    Gradient:                    1
    J tasked:                  Yes
    K tasked:                  Yes
    wK tasked:                  No
    OpenMP threads:              1
    Integrals threads:           1
    Memory [MiB]:              375
    Schwarz Cutoff:          1E-12
    Fitting Condition:       1E-10

   => Auxiliary Basis Set <=

  Basis Set: (CC-PVDZ AUX)
    Blend: CC-PVDZ-JKFIT
    Number of shells: 72
    Number of basis functions: 224
    Number of Cartesian functions: 260
    Spherical Harmonics?: true
    Max angular momentum: 3

  ==> DFT Potential <==

   => LibXC <=

    Version 6.2.2
    S. Lehtola, C. Steigemann, M. J.T. Oliveira, and M. A.L. Marques.,  SoftwareX 7, 1–5 (2018) (10.1016/j.softx.2017.11.002)

   => Composite Functional: B3LYP <= 

    B3LYP Hyb-GGA Exchange-Correlation Functional

    P. J. Stephens, F. J. Devlin, C. F. Chabalowski, and M. J. Frisch.,  J. Phys. Chem. 98, 11623 (1994) (10.1021/j100096a001)

    Deriv               =              1
    GGA                 =           TRUE
    Meta                =          FALSE

    Exchange Hybrid     =           TRUE
    MP2 Hybrid          =          FALSE

   => Exchange Functionals <=

    0.0800   Slater exchange
    0.7200         Becke 88

   => Exact (HF) Exchange <=

    0.2000               HF 

   => Correlation Functionals <=

    0.1900   Vosko, Wilk & Nusair (VWN5_RPA)
    0.8100   Lee, Yang & Parr

   => LibXC Density Thresholds  <==

    XC_HYB_GGA_XC_B3LYP:  1.00E-15 

   => Molecular Quadrature <=

    Radial Scheme          =       TREUTLER
    Pruning Scheme         =           NONE
    Nuclear Scheme         =       TREUTLER

    Blocking Scheme        =         OCTREE
    BS radius alpha        =              1
    Pruning alpha          =              1
    Radial Points          =             75
    Spherical Points       =            302
    Total Points           =          40082
    Total Blocks           =            362
    Max Points             =            254
    Max Functions          =             36
    Weights Tolerance      =       1.00E-15


  -Total Gradient:
     Atom            X                  Y                   Z
    ------   -----------------  -----------------  -----------------
       1       -0.000000000000    -0.000000000000    -2.835090693472
       2        0.000000000000     0.000000000000     2.835043662313


*** tstop() called on Joses-MacBook-Pro-2.local at Thu Jul 17 15:53:23 2025
Module time:
	user time   =       2.34 seconds =       0.04 minutes
	system time =       1.49 seconds =       0.02 minutes
	total time  =          0 seconds =       0.00 minutes
Total time:
	user time   =      51.08 seconds =       0.85 minutes
	system time =      10.98 seconds =       0.18 minutes
	total time  =          6 seconds =       0.10 minutes

    			-----------------------------------------

    			 OPTKING 3.0: for geometry optimizations 

    			     By R.A. King, Bethel University     

    			        with contributions from          

    			    A.V. Copan, J. Cayton, A. Heide      

    			-----------------------------------------

    
	                            ===> Fragment 1 <== 

	 Z (Atomic Numbers)          Masses                          Geom                  
	      16.000000            31.972071          0.00000000  0.00000000  1.20665117   
	      17.000000            34.968853          0.00000000  0.00000000 -1.10324286   

	 - Coordinate -           - BOHR/RAD -       - ANG/DEG -
	 R(1,2)           =         2.309894           1.222343


	        --- Internal Coordinate Step in ANG or DEG, aJ/ANG or AJ/DEG ---
	-------------------------------------------------------------------------------
	           Coordinate      Previous         Force          Change          New 
	           ----------      --------        ------          ------        ------
	               R(1,2)       1.22234       23.35733        0.05452       1.27686
	-------------------------------------------------------------------------------

	                                 ==> Convergence Check <==                                  
    
	Measures of convergence in internal coordinates in au.
    
	Criteria marked as inactive (o), active & met (*), and active & unmet ( ).

	----------------------------------------------------------------------------------------------
	   Step    Total Energy     Delta E     Max Force     RMS Force      Max Disp      RMS Disp   
	----------------------------------------------------------------------------------------------
	  Convergence Criteria     1.00e-06 *    3.00e-04 *             o    1.20e-03 *             o
	----------------------------------------------------------------------------------------------
	     3    -856.95757157   -8.16e-02      2.84e+00      2.84e+00 o    1.03e-01      1.03e-01 o  ~
	----------------------------------------------------------------------------------------------

Next Geometry in Ang 
	Fragment 1 (Ang)

	    S   0.0000000000   0.0000000000   0.6657899784
	   Cl   0.0000000000   0.0000000000  -0.6110686581


    Structure for next step:
    Molecular point group: c2v
    Full point group: C_inf_v

    Geometry (in Angstrom), charge = 1, multiplicity = 1:

    S            0.000000000000     0.000000000000     0.667010238025
    CL           0.000000000000     0.000000000000    -0.609848398463


Scratch directory: /tmp/
gradient() will perform analytic gradient computation.
   => Libint2 <=

    Primary   basis highest AM E, G, H:  6, 6, 3
    Auxiliary basis highest AM E, G, H:  7, 7, 4
    Onebody   basis highest AM E, G, H:  -, -, -
    Solid Harmonics ordering:            Gaussian

*** tstart() called on Joses-MacBook-Pro-2.local
*** at Thu Jul 17 15:53:23 2025

   => Loading Basis Set <=

    Name: CC-PVDZ
    Role: ORBITAL
    Keyword: BASIS
    atoms 1 entry S          line   598 file /Users/joseantoniorodriguesromero/anaconda3/share/psi4/basis/cc-pvdz.gbs 
    atoms 2 entry CL         line   658 file /Users/joseantoniorodriguesromero/anaconda3/share/psi4/basis/cc-pvdz.gbs 


         ---------------------------------------------------------
                                   SCF
               by Justin Turney, Rob Parrish, Andy Simmonett
                          and Daniel G. A. Smith
                              UKS Reference
                        1 Threads,    500 MiB Core
         ---------------------------------------------------------

  ==> Geometry <==

    Molecular point group: c2v
    Full point group: C_inf_v

    Geometry (in Angstrom), charge = 1, multiplicity = 1:

       Center              X                  Y                   Z               Mass       
    ------------   -----------------  -----------------  -----------------  -----------------
         S            0.000000000000     0.000000000000     0.667010238025    31.972071174400
         CL           0.000000000000     0.000000000000    -0.609848398463    34.968852682000

  Running in c2v symmetry.

  Rotational constants: A = ************  B =      0.61909  C =      0.61909 [cm^-1]
  Rotational constants: A = ************  B =  18559.70675  C =  18559.70675 [MHz]
  Nuclear repulsion =  112.726810305448637

  Charge       = 1
  Multiplicity = 1
  Electrons    = 32
  Nalpha       = 16
  Nbeta        = 16

  ==> Algorithm <==

  SCF Algorithm Type is DF.
  DIIS enabled.
  MOM disabled.
  Fractional occupation disabled.
  Guess Type is READ.
  Energy threshold   = 1.00e-08
  Density threshold  = 1.00e-08
  Integral threshold = 1.00e-12

  ==> Primary Basis <==

  Basis Set: CC-PVDZ
    Blend: CC-PVDZ
    Number of shells: 16
    Number of basis functions: 36
    Number of Cartesian functions: 38
    Spherical Harmonics?: true
    Max angular momentum: 2

  ==> DFT Potential <==

   => LibXC <=

    Version 6.2.2
    S. Lehtola, C. Steigemann, M. J.T. Oliveira, and M. A.L. Marques.,  SoftwareX 7, 1–5 (2018) (10.1016/j.softx.2017.11.002)

   => Composite Functional: B3LYP <= 

    B3LYP Hyb-GGA Exchange-Correlation Functional

    P. J. Stephens, F. J. Devlin, C. F. Chabalowski, and M. J. Frisch.,  J. Phys. Chem. 98, 11623 (1994) (10.1021/j100096a001)

    Deriv               =              1
    GGA                 =           TRUE
    Meta                =          FALSE

    Exchange Hybrid     =           TRUE
    MP2 Hybrid          =          FALSE

   => Exchange Functionals <=

    0.0800   Slater exchange
    0.7200         Becke 88

   => Exact (HF) Exchange <=

    0.2000               HF 

   => Correlation Functionals <=

    0.1900   Vosko, Wilk & Nusair (VWN5_RPA)
    0.8100   Lee, Yang & Parr

   => LibXC Density Thresholds  <==

    XC_HYB_GGA_XC_B3LYP:  1.00E-15 

   => Molecular Quadrature <=

    Radial Scheme          =       TREUTLER
    Pruning Scheme         =           NONE
    Nuclear Scheme         =       TREUTLER

    Blocking Scheme        =         OCTREE
    BS radius alpha        =              1
    Pruning alpha          =              1
    Radial Points          =             75
    Spherical Points       =            302
    Total Points           =          40090
    Total Blocks           =            364
    Max Points             =            253
    Max Functions          =             36
    Weights Tolerance      =       1.00E-15

   => Loading Basis Set <=

    Name: (CC-PVDZ AUX)
    Role: JKFIT
    Keyword: DF_BASIS_SCF
    atoms 1 entry S          line   593 file /Users/joseantoniorodriguesromero/anaconda3/share/psi4/basis/cc-pvdz-jkfit.gbs 
    atoms 2 entry CL         line   667 file /Users/joseantoniorodriguesromero/anaconda3/share/psi4/basis/cc-pvdz-jkfit.gbs 

   => Loading Basis Set <=

    Name: CC-PVDZ
    Role: ORBITAL
    Keyword: BASIS
    atoms 1 entry S          line   598 file /Users/joseantoniorodriguesromero/anaconda3/share/psi4/basis/cc-pvdz.gbs 
    atoms 2 entry CL         line   658 file /Users/joseantoniorodriguesromero/anaconda3/share/psi4/basis/cc-pvdz.gbs 

  Reading orbitals from file /tmp/singlet_SCl.default.75662.180.npy, no projection.

  ==> Integral Setup <==

  DFHelper Memory: AOs need 0.003 GiB; user supplied 0.325 GiB. 
  Using in-core AOs.

  ==> MemDFJK: Density-Fitted J/K Matrices <==

    J tasked:                   Yes
    K tasked:                   Yes
    wK tasked:                   No
    OpenMP threads:               1
    Memory [MiB]:               332
    Algorithm:                 Core
    Schwarz Cutoff:           1E-12
    Mask sparsity (%):       0.0000
    Fitting Condition:        1E-10

   => Auxiliary Basis Set <=

  Basis Set: (CC-PVDZ AUX)
    Blend: CC-PVDZ-JKFIT
    Number of shells: 72
    Number of basis functions: 224
    Number of Cartesian functions: 260
    Spherical Harmonics?: true
    Max angular momentum: 3

  Cached 100.0% of DFT collocation blocks in 0.041 [GiB].

  Minimum eigenvalue in the overlap matrix is 6.6000809027E-03.
  Reciprocal condition number of the overlap matrix is 2.1118616006E-03.
    Using symmetric orthogonalization.

  ==> Pre-Iterations <==

  SCF Guess: Orbitals guess was supplied from a previous computation.

   -------------------------------------------------------
    Irrep   Nso     Nmo     Nalpha   Nbeta   Ndocc  Nsocc
   -------------------------------------------------------
     A1        18      18       9       9       9       0
     A2         2       2       0       0       0       0
     B1         8       8       4       4       4       0
     B2         8       8       3       3       3       0
   -------------------------------------------------------
    Total      36      36      16      16      16       0
   -------------------------------------------------------

  ==> Iterations <==

                           Total Energy        Delta E     RMS |[F,P]|

   @DF-UKS iter   0:  -857.27596450530416   -8.57276e+02   2.86217e-02 
   @DF-UKS iter   1:  -857.21470567872439    6.12588e-02   2.13163e-03 ADIIS/DIIS
   @DF-UKS iter   2:  -857.21535477963198   -6.49101e-04   1.30631e-03 ADIIS/DIIS/DAMP=1%
   @DF-UKS iter   3:  -857.21775967979670   -2.40490e-03   2.04299e-04 ADIIS/DIIS/DAMP=1%
   @DF-UKS iter   4:  -857.21582804282002    1.93164e-03   4.63209e-05 DIIS/DAMP=1%
   @DF-UKS iter   5:  -857.21576931584207    5.87270e-05   3.84666e-06 DIIS/DAMP=1%
   @DF-UKS iter   6:  -857.21579677592513   -2.74601e-05   1.46345e-07 DIIS/DAMP=1%
   @DF-UKS iter   7:  -857.21579498276890    1.79316e-06   2.93181e-08 DIIS/DAMP=1%
   @DF-UKS iter   8:  -857.21579501964470   -3.68758e-08   2.56031e-09 DIIS/DAMP=1%
   @DF-UKS iter   9:  -857.21579502144311   -1.79841e-09   2.61545e-10 DIIS/DAMP=1%
  Energy and wave function converged.


  ==> Post-Iterations <==

   Electrons on quadrature grid:
      Nalpha   =   15.9999994390 ; deviation = -5.610e-07
      Nbeta    =   15.9999994390 ; deviation = -5.610e-07
      Ntotal   =   31.9999988781 ; deviation = -1.122e-06 

   @Spin Contamination Metric:   8.881784197E-15
   @S^2 Expected:                0.000000000E+00
   @S^2 Observed:                8.881784197E-15
   @S   Expected:                0.000000000E+00
   @S   Observed:                0.000000000E+00

    Orbital Energies [Eh]
    ---------------------

    Alpha Occupied:                                                       

       1A1  -101.931463     2A1   -89.220534     3A1    -9.903033  
       4A1    -8.342565     5A1    -7.666291     1B2    -7.652419  
       1B1    -7.639155     6A1    -6.310258     2B2    -6.295778  
       2B1    -6.277445     7A1    -1.515562     8A1    -0.940789  
       3B2    -0.900984     3B1    -0.875143     9A1    -0.743906  
       4B1    -0.462332  

    Alpha Virtual:                                                        

       4B2    -0.422765    10A1    -0.118275    11A1    -0.042964  
       5B2    -0.018315     5B1     0.003460     1A2     0.103254  
      12A1     0.105676    13A1     0.197841    14A1     0.248960  
       6B2     0.274424     6B1     0.295556     7B2     0.297905  
       7B1     0.314345     2A2     0.470694    15A1     0.472823  
      16A1     0.634990    17A1     0.845086     8B2     0.937878  
       8B1     0.964529    18A1     1.856632  

    Beta Occupied:                                                        

       1A1  -101.931463     2A1   -89.220534     3A1    -9.903033  
       4A1    -8.342565     5A1    -7.666291     1B2    -7.652419  
       1B1    -7.639155     6A1    -6.310258     2B2    -6.295778  
       2B1    -6.277445     7A1    -1.515562     8A1    -0.940789  
       3B2    -0.900984     3B1    -0.875143     9A1    -0.743906  
       4B1    -0.462332  

    Beta Virtual:                                                         

       4B2    -0.422765    10A1    -0.118275    11A1    -0.042964  
       5B2    -0.018315     5B1     0.003460     1A2     0.103254  
      12A1     0.105676    13A1     0.197841    14A1     0.248960  
       6B2     0.274424     6B1     0.295556     7B2     0.297905  
       7B1     0.314345     2A2     0.470694    15A1     0.472823  
      16A1     0.634990    17A1     0.845086     8B2     0.937878  
       8B1     0.964529    18A1     1.856632  

    Final Occupation by Irrep:
             A1    A2    B1    B2 
    DOCC [     9,    0,    4,    3 ]
    SOCC [     0,    0,    0,    0 ]
    NA   [     9,    0,    4,    3 ]
    NB   [     9,    0,    4,    3 ]

  @DF-UKS Final Energy:  -857.21579502144311

   => Energetics <=

    Nuclear Repulsion Energy =            112.7268103054486375
    One-Electron Energy =               -1395.5446920659846910
    Two-Electron Energy =                 469.2143314404486887
    DFT Exchange-Correlation Energy =     -43.6122447013556922
    Empirical Dispersion Energy =           0.0000000000000000
    VV10 Nonlocal Energy =                  0.0000000000000000
    Total Energy =                       -857.2157950214431139

  UHF NO Occupations:
  HONO-2 :    7 A1 2.0000000
  HONO-1 :    8 A1 2.0000000
  HONO-0 :    9 A1 2.0000000
  LUNO+0 :   10 A1 0.0000000
  LUNO+1 :   11 A1 0.0000000
  LUNO+2 :    4 B2 0.0000000
  LUNO+3 :   12 A1 0.0000000


Computation Completed


Properties will be evaluated at   0.000000,   0.000000,   0.000000 [a0]

Properties computed using the SCF density matrix


 Multipole Moments:

 ------------------------------------------------------------------------------------
     Multipole            Electronic (a.u.)      Nuclear  (a.u.)        Total (a.u.)
 ------------------------------------------------------------------------------------

 L = 1.  Multiply by 2.5417464519 to convert [e a0] to [Debye]
 Dipole X            :          0.0000000            0.0000000            0.0000000
 Dipole Y            :          0.0000000            0.0000000            0.0000000
 Dipole Z            :         -0.8806581            0.5758771           -0.3047810
 Magnitude           :                                                    0.3047810

 ------------------------------------------------------------------------------------

*** tstop() called on Joses-MacBook-Pro-2.local at Thu Jul 17 15:53:24 2025
Module time:
	user time   =       7.91 seconds =       0.13 minutes
	system time =       1.99 seconds =       0.03 minutes
	total time  =          1 seconds =       0.02 minutes
Total time:
	user time   =      59.30 seconds =       0.99 minutes
	system time =      12.97 seconds =       0.22 minutes
	total time  =          7 seconds =       0.12 minutes

*** tstart() called on Joses-MacBook-Pro-2.local
*** at Thu Jul 17 15:53:24 2025


         ------------------------------------------------------------
                                   SCF GRAD                          
                          Rob Parrish, Justin Turney,                
                       Andy Simmonett, and Alex Sokolov              
         ------------------------------------------------------------

  ==> Geometry <==

    Molecular point group: c2v
    Full point group: C_inf_v

    Geometry (in Angstrom), charge = 1, multiplicity = 1:

       Center              X                  Y                   Z               Mass       
    ------------   -----------------  -----------------  -----------------  -----------------
         S            0.000000000000     0.000000000000     0.667010238025    31.972071174400
         CL           0.000000000000     0.000000000000    -0.609848398463    34.968852682000

  Nuclear repulsion =  112.726810305448637

  ==> Basis Set <==

  Basis Set: CC-PVDZ
    Blend: CC-PVDZ
    Number of shells: 16
    Number of basis functions: 36
    Number of Cartesian functions: 38
    Spherical Harmonics?: true
    Max angular momentum: 2

  ==> DFJKGrad: Density-Fitted SCF Gradients <==

    Gradient:                    1
    J tasked:                  Yes
    K tasked:                  Yes
    wK tasked:                  No
    OpenMP threads:              1
    Integrals threads:           1
    Memory [MiB]:              375
    Schwarz Cutoff:          1E-12
    Fitting Condition:       1E-10

   => Auxiliary Basis Set <=

  Basis Set: (CC-PVDZ AUX)
    Blend: CC-PVDZ-JKFIT
    Number of shells: 72
    Number of basis functions: 224
    Number of Cartesian functions: 260
    Spherical Harmonics?: true
    Max angular momentum: 3

  ==> DFT Potential <==

   => LibXC <=

    Version 6.2.2
    S. Lehtola, C. Steigemann, M. J.T. Oliveira, and M. A.L. Marques.,  SoftwareX 7, 1–5 (2018) (10.1016/j.softx.2017.11.002)

   => Composite Functional: B3LYP <= 

    B3LYP Hyb-GGA Exchange-Correlation Functional

    P. J. Stephens, F. J. Devlin, C. F. Chabalowski, and M. J. Frisch.,  J. Phys. Chem. 98, 11623 (1994) (10.1021/j100096a001)

    Deriv               =              1
    GGA                 =           TRUE
    Meta                =          FALSE

    Exchange Hybrid     =           TRUE
    MP2 Hybrid          =          FALSE

   => Exchange Functionals <=

    0.0800   Slater exchange
    0.7200         Becke 88

   => Exact (HF) Exchange <=

    0.2000               HF 

   => Correlation Functionals <=

    0.1900   Vosko, Wilk & Nusair (VWN5_RPA)
    0.8100   Lee, Yang & Parr

   => LibXC Density Thresholds  <==

    XC_HYB_GGA_XC_B3LYP:  1.00E-15 

   => Molecular Quadrature <=

    Radial Scheme          =       TREUTLER
    Pruning Scheme         =           NONE
    Nuclear Scheme         =       TREUTLER

    Blocking Scheme        =         OCTREE
    BS radius alpha        =              1
    Pruning alpha          =              1
    Radial Points          =             75
    Spherical Points       =            302
    Total Points           =          40090
    Total Blocks           =            364
    Max Points             =            253
    Max Functions          =             36
    Weights Tolerance      =       1.00E-15


  -Total Gradient:
     Atom            X                  Y                   Z
    ------   -----------------  -----------------  -----------------
       1       -0.000000000000     0.000000000000    -2.201906044021
       2        0.000000000000     0.000000000000     2.201871373161


*** tstop() called on Joses-MacBook-Pro-2.local at Thu Jul 17 15:53:24 2025
Module time:
	user time   =       3.08 seconds =       0.05 minutes
	system time =       1.00 seconds =       0.02 minutes
	total time  =          0 seconds =       0.00 minutes
Total time:
	user time   =      62.38 seconds =       1.04 minutes
	system time =      13.97 seconds =       0.23 minutes
	total time  =          7 seconds =       0.12 minutes

    			-----------------------------------------

    			 OPTKING 3.0: for geometry optimizations 

    			     By R.A. King, Bethel University     

    			        with contributions from          

    			    A.V. Copan, J. Cayton, A. Heide      

    			-----------------------------------------

    
	                            ===> Fragment 1 <== 

	 Z (Atomic Numbers)          Masses                          Geom                  
	      16.000000            31.972071          0.00000000  0.00000000  1.26046667   
	      17.000000            34.968853          0.00000000  0.00000000 -1.15244645   

	 - Coordinate -           - BOHR/RAD -       - ANG/DEG -
	 R(1,2)           =         2.412913           1.276859


	        --- Internal Coordinate Step in ANG or DEG, aJ/ANG or AJ/DEG ---
	-------------------------------------------------------------------------------
	           Coordinate      Previous         Force          Change          New 
	           ----------      --------        ------          ------        ------
	               R(1,2)       1.27686       18.14075        0.16344       1.44030
	-------------------------------------------------------------------------------

	                                 ==> Convergence Check <==                                  
    
	Measures of convergence in internal coordinates in au.
    
	Criteria marked as inactive (o), active & met (*), and active & unmet ( ).

	----------------------------------------------------------------------------------------------
	   Step    Total Energy     Delta E     Max Force     RMS Force      Max Disp      RMS Disp   
	----------------------------------------------------------------------------------------------
	  Convergence Criteria     1.00e-06 *    3.00e-04 *             o    1.20e-03 *             o
	----------------------------------------------------------------------------------------------
	     4    -857.21579502   -2.58e-01      2.20e+00      2.20e+00 o    3.09e-01      3.09e-01 o  ~
	----------------------------------------------------------------------------------------------

Next Geometry in Ang 
	Fragment 1 (Ang)

	    S   0.0000000000   0.0000000000   0.7487304880
	   Cl   0.0000000000   0.0000000000  -0.6915686485


    Structure for next step:
    Molecular point group: c2v
    Full point group: C_inf_v

    Geometry (in Angstrom), charge = 1, multiplicity = 1:

    S            0.000000000000     0.000000000000     0.752388903842
    CL           0.000000000000     0.000000000000    -0.687910232664


Scratch directory: /tmp/
gradient() will perform analytic gradient computation.
   => Libint2 <=

    Primary   basis highest AM E, G, H:  6, 6, 3
    Auxiliary basis highest AM E, G, H:  7, 7, 4
    Onebody   basis highest AM E, G, H:  -, -, -
    Solid Harmonics ordering:            Gaussian

*** tstart() called on Joses-MacBook-Pro-2.local
*** at Thu Jul 17 15:53:24 2025

   => Loading Basis Set <=

    Name: CC-PVDZ
    Role: ORBITAL
    Keyword: BASIS
    atoms 1 entry S          line   598 file /Users/joseantoniorodriguesromero/anaconda3/share/psi4/basis/cc-pvdz.gbs 
    atoms 2 entry CL         line   658 file /Users/joseantoniorodriguesromero/anaconda3/share/psi4/basis/cc-pvdz.gbs 


         ---------------------------------------------------------
                                   SCF
               by Justin Turney, Rob Parrish, Andy Simmonett
                          and Daniel G. A. Smith
                              UKS Reference
                        1 Threads,    500 MiB Core
         ---------------------------------------------------------

  ==> Geometry <==

    Molecular point group: c2v
    Full point group: C_inf_v

    Geometry (in Angstrom), charge = 1, multiplicity = 1:

       Center              X                  Y                   Z               Mass       
    ------------   -----------------  -----------------  -----------------  -----------------
         S            0.000000000000     0.000000000000     0.752388903842    31.972071174400
         CL           0.000000000000     0.000000000000    -0.687910232664    34.968852682000

  Running in c2v symmetry.

  Rotational constants: A = ************  B =      0.48655  C =      0.48655 [cm^-1]
  Rotational constants: A = ************  B =  14586.50838  C =  14586.50838 [MHz]
  Nuclear repulsion =   99.934935496415207

  Charge       = 1
  Multiplicity = 1
  Electrons    = 32
  Nalpha       = 16
  Nbeta        = 16

  ==> Algorithm <==

  SCF Algorithm Type is DF.
  DIIS enabled.
  MOM disabled.
  Fractional occupation disabled.
  Guess Type is READ.
  Energy threshold   = 1.00e-08
  Density threshold  = 1.00e-08
  Integral threshold = 1.00e-12

  ==> Primary Basis <==

  Basis Set: CC-PVDZ
    Blend: CC-PVDZ
    Number of shells: 16
    Number of basis functions: 36
    Number of Cartesian functions: 38
    Spherical Harmonics?: true
    Max angular momentum: 2

  ==> DFT Potential <==

   => LibXC <=

    Version 6.2.2
    S. Lehtola, C. Steigemann, M. J.T. Oliveira, and M. A.L. Marques.,  SoftwareX 7, 1–5 (2018) (10.1016/j.softx.2017.11.002)

   => Composite Functional: B3LYP <= 

[...]

	----------------------------------------------------------------------------------------------
	   Step    Total Energy     Delta E     Max Force     RMS Force      Max Disp      RMS Disp   
	----------------------------------------------------------------------------------------------
	  Convergence Criteria     1.00e-06 *    3.00e-04 *             o    1.20e-03 *             o
	----------------------------------------------------------------------------------------------
	    14    -857.98102324   -8.10e-06      5.14e-04      5.14e-04 o    1.60e-03      1.60e-03 o  ~
	----------------------------------------------------------------------------------------------

Next Geometry in Ang 
	Fragment 1 (Ang)

	    S   0.0000000000   0.0000000000   1.0029206424
	   Cl   0.0000000000   0.0000000000  -0.9170079488


    Structure for next step:
    Molecular point group: c2v
    Full point group: C_inf_v

    Geometry (in Angstrom), charge = 1, multiplicity = 1:

    S            0.000000000000     0.000000000000     1.002939550256
    CL           0.000000000000     0.000000000000    -0.916989040962


Scratch directory: /tmp/
gradient() will perform analytic gradient computation.
   => Libint2 <=

    Primary   basis highest AM E, G, H:  6, 6, 3
    Auxiliary basis highest AM E, G, H:  7, 7, 4
    Onebody   basis highest AM E, G, H:  -, -, -
    Solid Harmonics ordering:            Gaussian

*** tstart() called on Joses-MacBook-Pro-2.local
*** at Thu Jul 17 15:53:37 2025

   => Loading Basis Set <=

    Name: CC-PVDZ
    Role: ORBITAL
    Keyword: BASIS
    atoms 1 entry S          line   598 file /Users/joseantoniorodriguesromero/anaconda3/share/psi4/basis/cc-pvdz.gbs 
    atoms 2 entry CL         line   658 file /Users/joseantoniorodriguesromero/anaconda3/share/psi4/basis/cc-pvdz.gbs 


         ---------------------------------------------------------
                                   SCF
               by Justin Turney, Rob Parrish, Andy Simmonett
                          and Daniel G. A. Smith
                              UKS Reference
                        1 Threads,    500 MiB Core
         ---------------------------------------------------------

  ==> Geometry <==

    Molecular point group: c2v
    Full point group: C_inf_v

    Geometry (in Angstrom), charge = 1, multiplicity = 1:

       Center              X                  Y                   Z               Mass       
    ------------   -----------------  -----------------  -----------------  -----------------
         S            0.000000000000     0.000000000000     1.002939550256    31.972071174400
         CL           0.000000000000     0.000000000000    -0.916989040962    34.968852682000

  Running in c2v symmetry.

  Rotational constants: A = ************  B =      0.27382  C =      0.27382 [cm^-1]
  Rotational constants: A = ************  B =   8208.93079  C =   8208.93079 [MHz]
  Nuclear repulsion =   74.969559785013956

  Charge       = 1
  Multiplicity = 1
  Electrons    = 32
  Nalpha       = 16
  Nbeta        = 16

  ==> Algorithm <==

  SCF Algorithm Type is DF.
  DIIS enabled.
  MOM disabled.
  Fractional occupation disabled.
  Guess Type is READ.
  Energy threshold   = 1.00e-08
  Density threshold  = 1.00e-08
  Integral threshold = 1.00e-12

  ==> Primary Basis <==

  Basis Set: CC-PVDZ
    Blend: CC-PVDZ
    Number of shells: 16
    Number of basis functions: 36
    Number of Cartesian functions: 38
    Spherical Harmonics?: true
    Max angular momentum: 2

  ==> DFT Potential <==

   => LibXC <=

    Version 6.2.2
    S. Lehtola, C. Steigemann, M. J.T. Oliveira, and M. A.L. Marques.,  SoftwareX 7, 1–5 (2018) (10.1016/j.softx.2017.11.002)

   => Composite Functional: B3LYP <= 

    B3LYP Hyb-GGA Exchange-Correlation Functional

    P. J. Stephens, F. J. Devlin, C. F. Chabalowski, and M. J. Frisch.,  J. Phys. Chem. 98, 11623 (1994) (10.1021/j100096a001)

    Deriv               =              1
    GGA                 =           TRUE
    Meta                =          FALSE

    Exchange Hybrid     =           TRUE
    MP2 Hybrid          =          FALSE

   => Exchange Functionals <=

    0.0800   Slater exchange
    0.7200         Becke 88

   => Exact (HF) Exchange <=

    0.2000               HF 

   => Correlation Functionals <=

    0.1900   Vosko, Wilk & Nusair (VWN5_RPA)
    0.8100   Lee, Yang & Parr

   => LibXC Density Thresholds  <==

    XC_HYB_GGA_XC_B3LYP:  1.00E-15 

   => Molecular Quadrature <=

    Radial Scheme          =       TREUTLER
    Pruning Scheme         =           NONE
    Nuclear Scheme         =       TREUTLER

    Blocking Scheme        =         OCTREE
    BS radius alpha        =              1
    Pruning alpha          =              1
    Radial Points          =             75
    Spherical Points       =            302
    Total Points           =          40206
    Total Blocks           =            360
    Max Points             =            256
    Max Functions          =             36
    Weights Tolerance      =       1.00E-15

   => Loading Basis Set <=

    Name: (CC-PVDZ AUX)
    Role: JKFIT
    Keyword: DF_BASIS_SCF
    atoms 1 entry S          line   593 file /Users/joseantoniorodriguesromero/anaconda3/share/psi4/basis/cc-pvdz-jkfit.gbs 
    atoms 2 entry CL         line   667 file /Users/joseantoniorodriguesromero/anaconda3/share/psi4/basis/cc-pvdz-jkfit.gbs 

   => Loading Basis Set <=

    Name: CC-PVDZ
    Role: ORBITAL
    Keyword: BASIS
    atoms 1 entry S          line   598 file /Users/joseantoniorodriguesromero/anaconda3/share/psi4/basis/cc-pvdz.gbs 
    atoms 2 entry CL         line   658 file /Users/joseantoniorodriguesromero/anaconda3/share/psi4/basis/cc-pvdz.gbs 

  Reading orbitals from file /tmp/singlet_SCl.default.75662.180.npy, no projection.

  ==> Integral Setup <==

  DFHelper Memory: AOs need 0.003 GiB; user supplied 0.325 GiB. 
  Using in-core AOs.

  ==> MemDFJK: Density-Fitted J/K Matrices <==

    J tasked:                   Yes
    K tasked:                   Yes
    wK tasked:                   No
    OpenMP threads:               1
    Memory [MiB]:               333
    Algorithm:                 Core
    Schwarz Cutoff:           1E-12
    Mask sparsity (%):       0.0000
    Fitting Condition:        1E-10

   => Auxiliary Basis Set <=

  Basis Set: (CC-PVDZ AUX)
    Blend: CC-PVDZ-JKFIT
    Number of shells: 72
    Number of basis functions: 224
    Number of Cartesian functions: 260
    Spherical Harmonics?: true
    Max angular momentum: 3

  Cached 100.0% of DFT collocation blocks in 0.041 [GiB].

  Minimum eigenvalue in the overlap matrix is 2.4831090199E-02.
  Reciprocal condition number of the overlap matrix is 9.0193362182E-03.
    Using symmetric orthogonalization.

  ==> Pre-Iterations <==

  SCF Guess: Orbitals guess was supplied from a previous computation.

   -------------------------------------------------------
    Irrep   Nso     Nmo     Nalpha   Nbeta   Ndocc  Nsocc
   -------------------------------------------------------
     A1        18      18       9       9       9       0
     A2         2       2       0       0       0       0
     B1         8       8       4       4       4       0
     B2         8       8       3       3       3       0
   -------------------------------------------------------
    Total      36      36      16      16      16       0
   -------------------------------------------------------

  ==> Iterations <==

                           Total Energy        Delta E     RMS |[F,P]|

   @DF-UKS iter   0:  -857.98042229196710   -8.57980e+02   8.44900e-05 
   @DF-UKS iter   1:  -857.98102355973890   -6.01268e-04   2.09439e-05 DIIS
   @DF-UKS iter   2:  -857.98102323925900    3.20480e-07   3.85330e-05 DIIS/DAMP=1%
   @DF-UKS iter   3:  -857.98100511958171    1.81197e-05   1.05682e-05 DIIS/DAMP=1%
   @DF-UKS iter   4:  -857.98102177960493   -1.66600e-05   4.96384e-07 DIIS/DAMP=1%
   @DF-UKS iter   5:  -857.98102366788964   -1.88828e-06   9.08214e-08 DIIS/DAMP=1%
   @DF-UKS iter   6:  -857.98102365421505    1.36746e-08   1.48291e-08 DIIS/DAMP=1%
   @DF-UKS iter   7:  -857.98102369588821   -4.16732e-08   2.93115e-10 DIIS/DAMP=1%
   @DF-UKS iter   8:  -857.98102369201365    3.87456e-09   1.00864e-10 DIIS/DAMP=1%
  Energy and wave function converged.


  ==> Post-Iterations <==

   Electrons on quadrature grid:
      Nalpha   =   15.9999989255 ; deviation = -1.074e-06
      Nbeta    =   15.9999989255 ; deviation = -1.074e-06
      Ntotal   =   31.9999978510 ; deviation = -2.149e-06 

   @Spin Contamination Metric:   1.953992523E-14
   @S^2 Expected:                0.000000000E+00
   @S^2 Observed:                1.953992523E-14
   @S   Expected:                0.000000000E+00
   @S   Observed:                0.000000000E+00

    Orbital Energies [Eh]
    ---------------------

    Alpha Occupied:                                                       

       1A1  -101.919450     2A1   -89.293334     3A1    -9.835182  
       4A1    -8.347307     5A1    -7.596520     1B2    -7.593857  
       1B1    -7.583267     2B2    -6.316047     6A1    -6.311139  
       2B1    -6.294515     7A1    -1.227354     8A1    -0.982373  
       9A1    -0.739407     3B2    -0.699042     3B1    -0.687157  
       4B1    -0.543654  

    Alpha Virtual:                                                        

       4B2    -0.507133    10A1    -0.335824    11A1     0.048956  
       5B2     0.136607     5B1     0.159217    12A1     0.186732  
       6B2     0.194641     6B1     0.216139    13A1     0.223443  
       1A2     0.248179    14A1     0.251628     7B2     0.273180  
       7B1     0.287568     2A2     0.405582    15A1     0.405852  
      16A1     0.461299    17A1     0.524395     8B2     0.588681  
       8B1     0.609986    18A1     1.024220  

    Beta Occupied:                                                        

       1A1  -101.919450     2A1   -89.293334     3A1    -9.835182  
       4A1    -8.347307     5A1    -7.596520     1B2    -7.593857  
       1B1    -7.583267     2B2    -6.316047     6A1    -6.311139  
       2B1    -6.294515     7A1    -1.227354     8A1    -0.982373  
       9A1    -0.739407     3B2    -0.699042     3B1    -0.687157  
       4B1    -0.543654  

    Beta Virtual:                                                         

       4B2    -0.507133    10A1    -0.335824    11A1     0.048956  
       5B2     0.136607     5B1     0.159217    12A1     0.186732  
       6B2     0.194641     6B1     0.216139    13A1     0.223443  
       1A2     0.248179    14A1     0.251628     7B2     0.273180  
       7B1     0.287568     2A2     0.405582    15A1     0.405852  
      16A1     0.461299    17A1     0.524395     8B2     0.588681  
       8B1     0.609986    18A1     1.024220  

    Final Occupation by Irrep:
             A1    A2    B1    B2 
    DOCC [     9,    0,    4,    3 ]
    SOCC [     0,    0,    0,    0 ]
    NA   [     9,    0,    4,    3 ]
    NB   [     9,    0,    4,    3 ]

  @DF-UKS Final Energy:  -857.98102369201365

   => Energetics <=

    Nuclear Repulsion Energy =             74.9695597850139563
    One-Electron Energy =               -1323.2857937901062542
    Two-Electron Energy =                 433.4879302605097564
    DFT Exchange-Correlation Energy =     -43.1527199474310308
    Empirical Dispersion Energy =           0.0000000000000000
    VV10 Nonlocal Energy =                  0.0000000000000000
    Total Energy =                       -857.9810236920136504

  UHF NO Occupations:
  HONO-2 :    2 B2 2.0000000
  HONO-1 :    9 A1 2.0000000
  HONO-0 :    3 B2 2.0000000
  LUNO+0 :   10 A1 0.0000000
  LUNO+1 :    5 B1 0.0000000
  LUNO+2 :   11 A1 0.0000000
  LUNO+3 :    4 B2 0.0000000


Computation Completed


Properties will be evaluated at   0.000000,   0.000000,   0.000000 [a0]

Properties computed using the SCF density matrix


 Multipole Moments:

 ------------------------------------------------------------------------------------
     Multipole            Electronic (a.u.)      Nuclear  (a.u.)        Total (a.u.)
 ------------------------------------------------------------------------------------

 L = 1.  Multiply by 2.5417464519 to convert [e a0] to [Debye]
 Dipole X            :          0.0000000            0.0000000            0.0000000
 Dipole Y            :          0.0000000            0.0000000            0.0000000
 Dipole Z            :         -0.4926092            0.8659086            0.3732994
 Magnitude           :                                                    0.3732994

 ------------------------------------------------------------------------------------

*** tstop() called on Joses-MacBook-Pro-2.local at Thu Jul 17 15:53:38 2025
Module time:
	user time   =       7.52 seconds =       0.13 minutes
	system time =       2.03 seconds =       0.03 minutes
	total time  =          1 seconds =       0.02 minutes
Total time:
	user time   =     176.83 seconds =       2.95 minutes
	system time =      46.00 seconds =       0.77 minutes
	total time  =         21 seconds =       0.35 minutes

*** tstart() called on Joses-MacBook-Pro-2.local
*** at Thu Jul 17 15:53:38 2025


         ------------------------------------------------------------
                                   SCF GRAD                          
                          Rob Parrish, Justin Turney,                
                       Andy Simmonett, and Alex Sokolov              
         ------------------------------------------------------------

  ==> Geometry <==

    Molecular point group: c2v
    Full point group: C_inf_v

    Geometry (in Angstrom), charge = 1, multiplicity = 1:

       Center              X                  Y                   Z               Mass       
    ------------   -----------------  -----------------  -----------------  -----------------
         S            0.000000000000     0.000000000000     1.002939550256    31.972071174400
         CL           0.000000000000     0.000000000000    -0.916989040962    34.968852682000

  Nuclear repulsion =   74.969559785013956

  ==> Basis Set <==

  Basis Set: CC-PVDZ
    Blend: CC-PVDZ
    Number of shells: 16
    Number of basis functions: 36
    Number of Cartesian functions: 38
    Spherical Harmonics?: true
    Max angular momentum: 2

  ==> DFJKGrad: Density-Fitted SCF Gradients <==

    Gradient:                    1
    J tasked:                  Yes
    K tasked:                  Yes
    wK tasked:                  No
    OpenMP threads:              1
    Integrals threads:           1
    Memory [MiB]:              375
    Schwarz Cutoff:          1E-12
    Fitting Condition:       1E-10

   => Auxiliary Basis Set <=

  Basis Set: (CC-PVDZ AUX)
    Blend: CC-PVDZ-JKFIT
    Number of shells: 72
    Number of basis functions: 224
    Number of Cartesian functions: 260
    Spherical Harmonics?: true
    Max angular momentum: 3

  ==> DFT Potential <==

   => LibXC <=

    Version 6.2.2
    S. Lehtola, C. Steigemann, M. J.T. Oliveira, and M. A.L. Marques.,  SoftwareX 7, 1–5 (2018) (10.1016/j.softx.2017.11.002)

   => Composite Functional: B3LYP <= 

    B3LYP Hyb-GGA Exchange-Correlation Functional

    P. J. Stephens, F. J. Devlin, C. F. Chabalowski, and M. J. Frisch.,  J. Phys. Chem. 98, 11623 (1994) (10.1021/j100096a001)

    Deriv               =              1
    GGA                 =           TRUE
    Meta                =          FALSE

    Exchange Hybrid     =           TRUE
    MP2 Hybrid          =          FALSE

   => Exchange Functionals <=

    0.0800   Slater exchange
    0.7200         Becke 88

   => Exact (HF) Exchange <=

    0.2000               HF 

   => Correlation Functionals <=

    0.1900   Vosko, Wilk & Nusair (VWN5_RPA)
    0.8100   Lee, Yang & Parr

   => LibXC Density Thresholds  <==

    XC_HYB_GGA_XC_B3LYP:  1.00E-15 

   => Molecular Quadrature <=

    Radial Scheme          =       TREUTLER
    Pruning Scheme         =           NONE
    Nuclear Scheme         =       TREUTLER

    Blocking Scheme        =         OCTREE
    BS radius alpha        =              1
    Pruning alpha          =              1
    Radial Points          =             75
    Spherical Points       =            302
    Total Points           =          40206
    Total Blocks           =            360
    Max Points             =            256
    Max Functions          =             36
    Weights Tolerance      =       1.00E-15


  -Total Gradient:
     Atom            X                  Y                   Z
    ------   -----------------  -----------------  -----------------
       1        0.000000000000    -0.000000000000    -0.000054130925
       2        0.000000000000     0.000000000000     0.000065145401


*** tstop() called on Joses-MacBook-Pro-2.local at Thu Jul 17 15:53:38 2025
Module time:
	user time   =       2.59 seconds =       0.04 minutes
	system time =       1.25 seconds =       0.02 minutes
	total time  =          0 seconds =       0.00 minutes
Total time:
	user time   =     179.44 seconds =       2.99 minutes
	system time =      47.25 seconds =       0.79 minutes
	total time  =         21 seconds =       0.35 minutes

    			-----------------------------------------

    			 OPTKING 3.0: for geometry optimizations 

    			     By R.A. King, Bethel University     

    			        with contributions from          

    			    A.V. Copan, J. Cayton, A. Heide      

    			-----------------------------------------

    
	                            ===> Fragment 1 <== 

	 Z (Atomic Numbers)          Masses                          Geom                  
	      16.000000            31.972071          0.00000000  0.00000000  1.89528107   
	      17.000000            34.968853          0.00000000  0.00000000 -1.73285815   

	 - Coordinate -           - BOHR/RAD -       - ANG/DEG -
	 R(1,2)           =         3.628139           1.919929


	        --- Internal Coordinate Step in ANG or DEG, aJ/ANG or AJ/DEG ---
	-------------------------------------------------------------------------------
	           Coordinate      Previous         Force          Change          New 
	           ----------      --------        ------          ------        ------
	               R(1,2)       1.91993        0.00049        0.00010       1.92003
	-------------------------------------------------------------------------------

	                                 ==> Convergence Check <==                                  
    
	Measures of convergence in internal coordinates in au.
    
	Criteria marked as inactive (o), active & met (*), and active & unmet ( ).

	----------------------------------------------------------------------------------------------
	   Step    Total Energy     Delta E     Max Force     RMS Force      Max Disp      RMS Disp   
	----------------------------------------------------------------------------------------------
	  Convergence Criteria     1.00e-06 *    3.00e-04 *             o    1.20e-03 *             o
	----------------------------------------------------------------------------------------------
	    15    -857.98102369   -4.53e-07 *    5.96e-05 *    5.96e-05 o    1.98e-04 *    1.98e-04 o  ~
	----------------------------------------------------------------------------------------------

Next Geometry in Ang 
	Fragment 1 (Ang)

	    S   0.0000000000   0.0000000000   1.0029919047
	   Cl   0.0000000000   0.0000000000  -0.9170413954


    Final optimized geometry and variables:
    Molecular point group: c2v
    Full point group: C_inf_v

    Geometry (in Angstrom), charge = 1, multiplicity = 1:

    S            0.000000000000     0.000000000000     1.002939550256
    CL           0.000000000000     0.000000000000    -0.916989040962


    Psi4 stopped on: Thursday, 17 July 2025 03:53PM
    Psi4 wall time for execution: 0:00:22.16

*** Psi4 exiting successfully. Buy a developer a beer!
