
    -----------------------------------------------------------------------
          Psi4: An Open-Source Ab Initio Electronic Structure Package
                               Psi4 1.9.1 release

                         Git: Rev {} zzzzzzz 


    D. G. A. Smith, L. A. Burns, A. C. Simmonett, R. M. Parrish,
    M. C. Schieber, R. Galvelis, P. Kraus, H. Kruse, R. Di Remigio,
    A. Alenaizan, A. M. James, S. Lehtola, J. P. Misiewicz, M. Scheurer,
    R. A. Shaw, J. B. Schriber, Y. Xie, Z. L. Glick, D. A. Sirianni,
    J. S. O'Brien, J. M. Waldrop, A. Kumar, E. G. Hohenstein,
    B. P. Pritchard, B. R. Brooks, H. F. Schaefer III, A. Yu. Sokolov,
    K. Patkowski, A. E. DePrince III, U. Bozkaya, R. A. King,
    F. A. Evangelista, J. M. Turney, T. D. Crawford, C. D. Sherrill,
    J. Chem. Phys. 152(18) 184108 (2020). https://doi.org/10.1063/5.0006002

                            Additional Code Authors
    E. T. Seidl, C. L. Janssen, E. F. Valeev, M. L. Leininger,
    J. F. Gonthier, R. M. Richard, H. R. McAlexander, M. Saitow, X. Wang,
    P. Verma, M. H. Lechner, A. Jiang, S. Behnle, A. G. Heide,
    M. F. Herbst, and D. L. Poole

             Previous Authors, Complete List of Code Contributors,
                       and Citations for Specific Modules
    https://github.com/psi4/psi4/blob/master/codemeta.json
    https://github.com/psi4/psi4/graphs/contributors
    http://psicode.org/psi4manual/master/introduction.html#citing-psifour

    -----------------------------------------------------------------------


    Psi4 started on: Thursday, 17 July 2025 01:53PM

    Process ID: 74485
    Host:       Joses-MacBook-Pro-2.local
    PSIDATADIR: /Users/joseantoniorodriguesromero/anaconda3/share/psi4
    Memory:     500.0 MiB
    Threads:    1
    
  ==> Input File <==

--------------------------------------------------------------------------
molecule { 
1 1
N   0.00000        0.60000        0.00000
Mg   0.00000       -0.60000        0.00000
}

set { 
basis              cc-pvdz
reference          uks
maxiter            500
geom_maxiter       500
DAMPING_PERCENTAGE 1
guess              SAP
}

optimize('b3lyp')
--------------------------------------------------------------------------

Scratch directory: /tmp/
gradient() will perform analytic gradient computation.
   => Libint2 <=

    Primary   basis highest AM E, G, H:  6, 6, 3
    Auxiliary basis highest AM E, G, H:  7, 7, 4
    Onebody   basis highest AM E, G, H:  -, -, -
    Solid Harmonics ordering:            Gaussian

*** tstart() called on Joses-MacBook-Pro-2.local
*** at Thu Jul 17 13:53:49 2025

   => Loading Basis Set <=

    Name: CC-PVDZ
    Role: ORBITAL
    Keyword: BASIS
    atoms 1 entry N          line   168 file /Users/joseantoniorodriguesromero/anaconda3/share/psi4/basis/cc-pvdz.gbs 
    atoms 2 entry MG         line   353 file /Users/joseantoniorodriguesromero/anaconda3/share/psi4/basis/cc-pvdz.gbs 


         ---------------------------------------------------------
                                   SCF
               by Justin Turney, Rob Parrish, Andy Simmonett
                          and Daniel G. A. Smith
                              UKS Reference
                        1 Threads,    500 MiB Core
         ---------------------------------------------------------

  ==> Geometry <==

    Molecular point group: c2v
    Full point group: C_inf_v

    Geometry (in Angstrom), charge = 1, multiplicity = 1:

       Center              X                  Y                   Z               Mass       
    ------------   -----------------  -----------------  -----------------  -----------------
         N            0.000000000000     0.000000000000     0.757659323316    14.003074004430
         MG           0.000000000000     0.000000000000    -0.442340676684    23.985041697000

  Running in c2v symmetry.

  Rotational constants: A = ************  B =      1.32409  C =      1.32409 [cm^-1]
  Rotational constants: A = ************  B =  39695.25512  C =  39695.25512 [MHz]
  Nuclear repulsion =   37.042404746900004

  Charge       = 1
  Multiplicity = 1
  Electrons    = 18
  Nalpha       = 9
  Nbeta        = 9

  ==> Algorithm <==

  SCF Algorithm Type is DF.
  DIIS enabled.
  MOM disabled.
  Fractional occupation disabled.
  Guess Type is SAP.
  Energy threshold   = 1.00e-08
  Density threshold  = 1.00e-08
  Integral threshold = 1.00e-12

  ==> Primary Basis <==

  Basis Set: CC-PVDZ
    Blend: CC-PVDZ
    Number of shells: 14
    Number of basis functions: 32
    Number of Cartesian functions: 34
    Spherical Harmonics?: true
    Max angular momentum: 2

  ==> DFT Potential <==

   => LibXC <=

    Version 6.2.2
    S. Lehtola, C. Steigemann, M. J.T. Oliveira, and M. A.L. Marques.,  SoftwareX 7, 1–5 (2018) (10.1016/j.softx.2017.11.002)

   => Composite Functional: B3LYP <= 

    B3LYP Hyb-GGA Exchange-Correlation Functional

    P. J. Stephens, F. J. Devlin, C. F. Chabalowski, and M. J. Frisch.,  J. Phys. Chem. 98, 11623 (1994) (10.1021/j100096a001)

    Deriv               =              1
    GGA                 =           TRUE
    Meta                =          FALSE

    Exchange Hybrid     =           TRUE
    MP2 Hybrid          =          FALSE

   => Exchange Functionals <=

    0.0800   Slater exchange
    0.7200         Becke 88

   => Exact (HF) Exchange <=

    0.2000               HF 

   => Correlation Functionals <=

    0.1900   Vosko, Wilk & Nusair (VWN5_RPA)
    0.8100   Lee, Yang & Parr

   => LibXC Density Thresholds  <==

    XC_HYB_GGA_XC_B3LYP:  1.00E-15 

   => Molecular Quadrature <=

    Radial Scheme          =       TREUTLER
    Pruning Scheme         =           NONE
    Nuclear Scheme         =       TREUTLER

    Blocking Scheme        =         OCTREE
    BS radius alpha        =              1
    Pruning alpha          =              1
    Radial Points          =             75
    Spherical Points       =            302
    Total Points           =          43343
    Total Blocks           =            404
    Max Points             =            255
    Max Functions          =             32
    Weights Tolerance      =       1.00E-15

   => Loading Basis Set <=

    Name: (CC-PVDZ AUX)
    Role: JKFIT
    Keyword: DF_BASIS_SCF
    atoms 1 entry N          line   171 file /Users/joseantoniorodriguesromero/anaconda3/share/psi4/basis/cc-pvdz-jkfit.gbs 
    atoms 2 entry MG         line   576 file /Users/joseantoniorodriguesromero/anaconda3/share/psi4/basis/def2-universal-jkfit.gbs 

  ==> Integral Setup <==

  DFHelper Memory: AOs need 0.002 GiB; user supplied 0.327 GiB. 
  Using in-core AOs.

  ==> MemDFJK: Density-Fitted J/K Matrices <==

    J tasked:                   Yes
    K tasked:                   Yes
    wK tasked:                   No
    OpenMP threads:               1
    Memory [MiB]:               335
    Algorithm:                 Core
    Schwarz Cutoff:           1E-12
    Mask sparsity (%):       0.0000
    Fitting Condition:        1E-10

   => Auxiliary Basis Set <=

  Basis Set: (CC-PVDZ AUX)
    Blend: CC-PVDZ-JKFIT + DEF2-UNIVERSAL-JKFIT
    Number of shells: 58
    Number of basis functions: 182
    Number of Cartesian functions: 218
    Spherical Harmonics?: true
    Max angular momentum: 4

  Cached 100.0% of DFT collocation blocks in 0.039 [GiB].

  Minimum eigenvalue in the overlap matrix is 2.5810770833E-03.
  Reciprocal condition number of the overlap matrix is 8.4598560099E-04.
    Using symmetric orthogonalization.

  ==> Pre-Iterations <==

  SCF Guess: Superposition of Atomic Potentials (doi:10.1021/acs.jctc.8b01089).

  ==> SAP guess <==

   => Molecular Quadrature <=

    Radial Scheme          =       TREUTLER
    Pruning Scheme         =           NONE
    Nuclear Scheme         =       TREUTLER

    Blocking Scheme        =         OCTREE
    BS radius alpha        =              1
    Pruning alpha          =              1
    Radial Points          =             75
    Spherical Points       =            302
    Total Points           =          43343
    Total Blocks           =            404
    Max Points             =            255
    Max Functions          =             32
    Weights Tolerance      =       1.00E-15

   -------------------------------------------------------
    Irrep   Nso     Nmo     Nalpha   Nbeta   Ndocc  Nsocc
   -------------------------------------------------------
     A1        16      16       5       5       5       0
     A2         2       2       0       0       0       0
     B1         7       7       2       2       2       0
     B2         7       7       2       2       2       0
   -------------------------------------------------------
    Total      32      32       9       9       9       0
   -------------------------------------------------------

  ==> Iterations <==

                           Total Energy        Delta E     RMS |[F,P]|

    Occupation by irrep:
             A1    A2    B1    B2 
    DOCC [     6,    0,    1,    2 ]
    SOCC [     0,    0,    0,    0 ]
    NA   [     6,    0,    1,    2 ]
    NB   [     6,    0,    1,    2 ]

   @DF-UKS iter   1:  -253.76383209156626   -2.53764e+02   3.24681e-02 DIIS/ADIIS
    Occupation by irrep:
             A1    A2    B1    B2 
    DOCC [     5,    0,    2,    2 ]
    SOCC [     0,    0,    0,    0 ]
    NA   [     5,    0,    2,    2 ]
    NB   [     5,    0,    2,    2 ]

   @DF-UKS iter   2:  -252.58807188958792    1.17576e+00   6.01698e-02 DIIS/ADIIS/DAMP=1%
   @DF-UKS iter   3:  -253.89291183922131   -1.30484e+00   8.09966e-03 DIIS/ADIIS/DAMP=1%
   @DF-UKS iter   4:  -253.94493680492369   -5.20250e-02   2.37181e-03 DIIS/ADIIS/DAMP=1%
   @DF-UKS iter   5:  -253.95312383047104   -8.18703e-03   3.12652e-04 DIIS/ADIIS/DAMP=1%
   @DF-UKS iter   6:  -253.95179571940730    1.32811e-03   1.48435e-05 DIIS/DAMP=1%
   @DF-UKS iter   7:  -253.95196424456486   -1.68525e-04   5.17865e-06 DIIS/DAMP=1%
   @DF-UKS iter   8:  -253.95196254251678    1.70205e-06   5.46629e-07 DIIS/DAMP=1%
   @DF-UKS iter   9:  -253.95196546626519   -2.92375e-06   1.83380e-08 DIIS/DAMP=1%
   @DF-UKS iter  10:  -253.95196564912274   -1.82858e-07   2.71632e-09 DIIS/DAMP=1%
   @DF-UKS iter  11:  -253.95196566063598   -1.15132e-08   1.87108e-10 DIIS/DAMP=1%
   @DF-UKS iter  12:  -253.95196566102180   -3.85825e-10   1.35054e-11 DIIS/DAMP=1%
  Energy and wave function converged.


  ==> Post-Iterations <==

   Electrons on quadrature grid:
      Nalpha   =    8.9999997944 ; deviation = -2.056e-07
      Nbeta    =    8.9999997944 ; deviation = -2.056e-07
      Ntotal   =   17.9999995888 ; deviation = -4.112e-07 

   @Spin Contamination Metric:  -1.065814104E-14
   @S^2 Expected:                0.000000000E+00
   @S^2 Observed:               -1.065814104E-14
   @S   Expected:                0.000000000E+00
   @S   Observed:                0.000000000E+00

    Orbital Energies [Eh]
    ---------------------

    Alpha Occupied:                                                       

       1A1   -47.230229     2A1   -14.607136     3A1    -3.538999  
       4A1    -2.328244     1B2    -2.262089     1B1    -2.262089  
       5A1    -0.940449     2B2    -0.544414     2B1    -0.544414  

    Alpha Virtual:                                                        

       6A1    -0.409474     7A1    -0.313362     3B1    -0.195728  
       3B2    -0.195728     8A1    -0.134330     9A1    -0.072750  
       4B2    -0.023541     4B1    -0.023541    10A1     0.033018  
       1A2     0.061639    11A1     0.061639     5B2     0.226924  
       5B1     0.226924    12A1     0.411958     6B2     0.593029  
       6B1     0.593029    13A1     0.643709    14A1     1.359226  
      15A1     1.559165     2A2     1.559166     7B2     1.612121  
       7B1     1.612121    16A1     1.801139  

    Beta Occupied:                                                        

       1A1   -47.230229     2A1   -14.607136     3A1    -3.538999  
       4A1    -2.328244     1B2    -2.262089     1B1    -2.262089  
       5A1    -0.940449     2B2    -0.544414     2B1    -0.544414  

    Beta Virtual:                                                         

       6A1    -0.409474     7A1    -0.313362     3B1    -0.195728  
       3B2    -0.195728     8A1    -0.134330     9A1    -0.072750  
       4B2    -0.023541     4B1    -0.023541    10A1     0.033018  
       1A2     0.061639    11A1     0.061639     5B2     0.226924  
       5B1     0.226924    12A1     0.411958     6B2     0.593029  
       6B1     0.593029    13A1     0.643709    14A1     1.359226  
      15A1     1.559165     2A2     1.559166     7B2     1.612121  
       7B1     1.612121    16A1     1.801139  

    Final Occupation by Irrep:
             A1    A2    B1    B2 
    DOCC [     5,    0,    2,    2 ]
    SOCC [     0,    0,    0,    0 ]
    NA   [     5,    0,    2,    2 ]
    NB   [     5,    0,    2,    2 ]

  @DF-UKS Final Energy:  -253.95196566102180

   => Energetics <=

    Nuclear Repulsion Energy =             37.0424047469000044
    One-Electron Energy =                -419.9904665470741065
    Two-Electron Energy =                 147.8377617543680742
    DFT Exchange-Correlation Energy =     -18.8416656152157529
    Empirical Dispersion Energy =           0.0000000000000000
    VV10 Nonlocal Energy =                  0.0000000000000000
    Total Energy =                       -253.9519656610218021

  UHF NO Occupations:
  HONO-2 :    4 A1 2.0000000
  HONO-1 :    2 B1 2.0000000
  HONO-0 :    5 A1 2.0000000
  LUNO+0 :    6 A1 0.0000000
  LUNO+1 :    7 A1 0.0000000
  LUNO+2 :    8 A1 0.0000000
  LUNO+3 :    3 B2 0.0000000


Computation Completed


Properties will be evaluated at   0.000000,   0.000000,   0.000000 [a0]

Properties computed using the SCF density matrix


 Multipole Moments:

 ------------------------------------------------------------------------------------
     Multipole            Electronic (a.u.)      Nuclear  (a.u.)        Total (a.u.)
 ------------------------------------------------------------------------------------

 L = 1.  Multiply by 2.5417464519 to convert [e a0] to [Debye]
 Dipole X            :          0.0000000            0.0000000            0.0000000
 Dipole Y            :          0.0000000            0.0000000            0.0000000
 Dipole Z            :         -2.1917794           -0.0084525           -2.2002319
 Magnitude           :                                                    2.2002319

 ------------------------------------------------------------------------------------

*** tstop() called on Joses-MacBook-Pro-2.local at Thu Jul 17 13:53:50 2025
Module time:
	user time   =       3.10 seconds =       0.05 minutes
	system time =       6.69 seconds =       0.11 minutes
	total time  =          1 seconds =       0.02 minutes
Total time:
	user time   =       3.10 seconds =       0.05 minutes
	system time =       6.69 seconds =       0.11 minutes
	total time  =          1 seconds =       0.02 minutes

*** tstart() called on Joses-MacBook-Pro-2.local
*** at Thu Jul 17 13:53:50 2025


         ------------------------------------------------------------
                                   SCF GRAD                          
                          Rob Parrish, Justin Turney,                
                       Andy Simmonett, and Alex Sokolov              
         ------------------------------------------------------------

  ==> Geometry <==

    Molecular point group: c2v
    Full point group: C_inf_v

    Geometry (in Angstrom), charge = 1, multiplicity = 1:

       Center              X                  Y                   Z               Mass       
    ------------   -----------------  -----------------  -----------------  -----------------
         N            0.000000000000     0.000000000000     0.757659323316    14.003074004430
         MG           0.000000000000     0.000000000000    -0.442340676684    23.985041697000

  Nuclear repulsion =   37.042404746900004

  ==> Basis Set <==

  Basis Set: CC-PVDZ
    Blend: CC-PVDZ
    Number of shells: 14
    Number of basis functions: 32
    Number of Cartesian functions: 34
    Spherical Harmonics?: true
    Max angular momentum: 2

  ==> DFJKGrad: Density-Fitted SCF Gradients <==

    Gradient:                    1
    J tasked:                  Yes
    K tasked:                  Yes
    wK tasked:                  No
    OpenMP threads:              1
    Integrals threads:           1
    Memory [MiB]:              375
    Schwarz Cutoff:          1E-12
    Fitting Condition:       1E-10

   => Auxiliary Basis Set <=

  Basis Set: (CC-PVDZ AUX)
    Blend: CC-PVDZ-JKFIT + DEF2-UNIVERSAL-JKFIT
    Number of shells: 58
    Number of basis functions: 182
    Number of Cartesian functions: 218
    Spherical Harmonics?: true
    Max angular momentum: 4

  ==> DFT Potential <==

   => LibXC <=

    Version 6.2.2
    S. Lehtola, C. Steigemann, M. J.T. Oliveira, and M. A.L. Marques.,  SoftwareX 7, 1–5 (2018) (10.1016/j.softx.2017.11.002)

   => Composite Functional: B3LYP <= 

    B3LYP Hyb-GGA Exchange-Correlation Functional

    P. J. Stephens, F. J. Devlin, C. F. Chabalowski, and M. J. Frisch.,  J. Phys. Chem. 98, 11623 (1994) (10.1021/j100096a001)

    Deriv               =              1
    GGA                 =           TRUE
    Meta                =          FALSE

    Exchange Hybrid     =           TRUE
    MP2 Hybrid          =          FALSE

   => Exchange Functionals <=

    0.0800   Slater exchange
    0.7200         Becke 88

   => Exact (HF) Exchange <=

    0.2000               HF 

   => Correlation Functionals <=

    0.1900   Vosko, Wilk & Nusair (VWN5_RPA)
    0.8100   Lee, Yang & Parr

   => LibXC Density Thresholds  <==

    XC_HYB_GGA_XC_B3LYP:  1.00E-15 

   => Molecular Quadrature <=

    Radial Scheme          =       TREUTLER
    Pruning Scheme         =           NONE
    Nuclear Scheme         =       TREUTLER

    Blocking Scheme        =         OCTREE
    BS radius alpha        =              1
    Pruning alpha          =              1
    Radial Points          =             75
    Spherical Points       =            302
    Total Points           =          43343
    Total Blocks           =            404
    Max Points             =            255
    Max Functions          =             32
    Weights Tolerance      =       1.00E-15


  -Total Gradient:
     Atom            X                  Y                   Z
    ------   -----------------  -----------------  -----------------
       1        0.000000000000     0.000000000000    -0.884304254626
       2        0.000000000000     0.000000000000     0.884283630240


*** tstop() called on Joses-MacBook-Pro-2.local at Thu Jul 17 13:53:50 2025
Module time:
	user time   =       0.73 seconds =       0.01 minutes
	system time =       1.89 seconds =       0.03 minutes
	total time  =          0 seconds =       0.00 minutes
Total time:
	user time   =       3.83 seconds =       0.06 minutes
	system time =       8.59 seconds =       0.14 minutes
	total time  =          1 seconds =       0.02 minutes

    			-----------------------------------------

    			 OPTKING 3.0: for geometry optimizations 

    			     By R.A. King, Bethel University     

    			        with contributions from          

    			    A.V. Copan, J. Cayton, A. Heide      

    			-----------------------------------------

    
	                            ===> Fragment 1 <== 

	 Z (Atomic Numbers)          Masses                          Geom                  
	       7.000000            14.003074          0.00000000  0.00000000  1.43176862   
	      12.000000            23.985042          0.00000000  0.00000000 -0.83590273   

	 - Coordinate -           - BOHR/RAD -       - ANG/DEG -
	 R(1,2)           =         2.267671           1.200000


	        --- Internal Coordinate Step in ANG or DEG, aJ/ANG or AJ/DEG ---
	-------------------------------------------------------------------------------
	           Coordinate      Previous         Force          Change          New 
	           ----------      --------        ------          ------        ------
	               R(1,2)       1.20000        7.28545        0.10729       1.30729
	-------------------------------------------------------------------------------

	                                 ==> Convergence Check <==                                  
    
	Measures of convergence in internal coordinates in au.
    
	Criteria marked as inactive (o), active & met (*), and active & unmet ( ).

	----------------------------------------------------------------------------------------------
	   Step    Total Energy     Delta E     Max Force     RMS Force      Max Disp      RMS Disp   
	----------------------------------------------------------------------------------------------
	  Convergence Criteria     1.00e-06 *    3.00e-04 *             o    1.20e-03 *             o
	----------------------------------------------------------------------------------------------
	     1    -253.95196566   -2.54e+02      8.84e-01      8.84e-01 o    2.03e-01      2.03e-01 o  ~
	----------------------------------------------------------------------------------------------

Next Geometry in Ang 
	Fragment 1 (Ang)

	    N   0.0000000000   0.0000000000   0.8113045447
	   Mg   0.0000000000   0.0000000000  -0.4959858981


    Structure for next step:
    Molecular point group: c2v
    Full point group: C_inf_v

    Geometry (in Angstrom), charge = 1, multiplicity = 1:

    N            0.000000000000     0.000000000000     0.825400660187
    MG           0.000000000000     0.000000000000    -0.481889782553


Scratch directory: /tmp/
gradient() will perform analytic gradient computation.
   => Libint2 <=

    Primary   basis highest AM E, G, H:  6, 6, 3
    Auxiliary basis highest AM E, G, H:  7, 7, 4
    Onebody   basis highest AM E, G, H:  -, -, -
    Solid Harmonics ordering:            Gaussian

*** tstart() called on Joses-MacBook-Pro-2.local
*** at Thu Jul 17 13:53:50 2025

   => Loading Basis Set <=

    Name: CC-PVDZ
    Role: ORBITAL
    Keyword: BASIS
    atoms 1 entry N          line   168 file /Users/joseantoniorodriguesromero/anaconda3/share/psi4/basis/cc-pvdz.gbs 
    atoms 2 entry MG         line   353 file /Users/joseantoniorodriguesromero/anaconda3/share/psi4/basis/cc-pvdz.gbs 


         ---------------------------------------------------------
                                   SCF
               by Justin Turney, Rob Parrish, Andy Simmonett
                          and Daniel G. A. Smith
                              UKS Reference
                        1 Threads,    500 MiB Core
         ---------------------------------------------------------

  ==> Geometry <==

    Molecular point group: c2v
    Full point group: C_inf_v

    Geometry (in Angstrom), charge = 1, multiplicity = 1:

       Center              X                  Y                   Z               Mass       
    ------------   -----------------  -----------------  -----------------  -----------------
         N            0.000000000000     0.000000000000     0.825400660187    14.003074004430
         MG           0.000000000000     0.000000000000    -0.481889782553    23.985041697000

  Running in c2v symmetry.

  Rotational constants: A = ************  B =      1.11567  C =      1.11567 [cm^-1]
  Rotational constants: A = ************  B =  33446.98052  C =  33446.98052 [MHz]
  Nuclear repulsion =   34.002302964217094

  Charge       = 1
  Multiplicity = 1
  Electrons    = 18
  Nalpha       = 9
  Nbeta        = 9

  ==> Algorithm <==

  SCF Algorithm Type is DF.
  DIIS enabled.
  MOM disabled.
  Fractional occupation disabled.
  Guess Type is READ.
  Energy threshold   = 1.00e-08
  Density threshold  = 1.00e-08
  Integral threshold = 1.00e-12

  ==> Primary Basis <==

  Basis Set: CC-PVDZ
    Blend: CC-PVDZ
    Number of shells: 14
    Number of basis functions: 32
    Number of Cartesian functions: 34
    Spherical Harmonics?: true
    Max angular momentum: 2

  ==> DFT Potential <==

   => LibXC <=

    Version 6.2.2
    S. Lehtola, C. Steigemann, M. J.T. Oliveira, and M. A.L. Marques.,  SoftwareX 7, 1–5 (2018) (10.1016/j.softx.2017.11.002)

   => Composite Functional: B3LYP <= 

    B3LYP Hyb-GGA Exchange-Correlation Functional

    P. J. Stephens, F. J. Devlin, C. F. Chabalowski, and M. J. Frisch.,  J. Phys. Chem. 98, 11623 (1994) (10.1021/j100096a001)

    Deriv               =              1
    GGA                 =           TRUE
    Meta                =          FALSE

    Exchange Hybrid     =           TRUE
    MP2 Hybrid          =          FALSE

   => Exchange Functionals <=

    0.0800   Slater exchange
    0.7200         Becke 88

   => Exact (HF) Exchange <=

    0.2000               HF 

   => Correlation Functionals <=

    0.1900   Vosko, Wilk & Nusair (VWN5_RPA)
    0.8100   Lee, Yang & Parr

   => LibXC Density Thresholds  <==

    XC_HYB_GGA_XC_B3LYP:  1.00E-15 

   => Molecular Quadrature <=

    Radial Scheme          =       TREUTLER
    Pruning Scheme         =           NONE
    Nuclear Scheme         =       TREUTLER

    Blocking Scheme        =         OCTREE
    BS radius alpha        =              1
    Pruning alpha          =              1
    Radial Points          =             75
    Spherical Points       =            302
    Total Points           =          43347
    Total Blocks           =            408
    Max Points             =            252
    Max Functions          =             32
    Weights Tolerance      =       1.00E-15

   => Loading Basis Set <=

    Name: (CC-PVDZ AUX)
    Role: JKFIT
    Keyword: DF_BASIS_SCF
    atoms 1 entry N          line   171 file /Users/joseantoniorodriguesromero/anaconda3/share/psi4/basis/cc-pvdz-jkfit.gbs 
    atoms 2 entry MG         line   576 file /Users/joseantoniorodriguesromero/anaconda3/share/psi4/basis/def2-universal-jkfit.gbs 

   => Loading Basis Set <=

    Name: CC-PVDZ
    Role: ORBITAL
    Keyword: BASIS
    atoms 1 entry N          line   168 file /Users/joseantoniorodriguesromero/anaconda3/share/psi4/basis/cc-pvdz.gbs 
    atoms 2 entry MG         line   353 file /Users/joseantoniorodriguesromero/anaconda3/share/psi4/basis/cc-pvdz.gbs 

  Reading orbitals from file /tmp/singlet_NMg.default.74485.180.npy, no projection.

  ==> Integral Setup <==

  DFHelper Memory: AOs need 0.002 GiB; user supplied 0.327 GiB. 
  Using in-core AOs.

  ==> MemDFJK: Density-Fitted J/K Matrices <==

    J tasked:                   Yes
    K tasked:                   Yes
    wK tasked:                   No
    OpenMP threads:               1
    Memory [MiB]:               335
    Algorithm:                 Core
    Schwarz Cutoff:           1E-12
    Mask sparsity (%):       0.0000
    Fitting Condition:        1E-10

   => Auxiliary Basis Set <=

  Basis Set: (CC-PVDZ AUX)
    Blend: CC-PVDZ-JKFIT + DEF2-UNIVERSAL-JKFIT
    Number of shells: 58
    Number of basis functions: 182
    Number of Cartesian functions: 218
    Spherical Harmonics?: true
    Max angular momentum: 4

  Cached 100.0% of DFT collocation blocks in 0.039 [GiB].

  Minimum eigenvalue in the overlap matrix is 2.3973720743E-03.
  Reciprocal condition number of the overlap matrix is 7.8641281666E-04.
    Using symmetric orthogonalization.

  ==> Pre-Iterations <==

  SCF Guess: Orbitals guess was supplied from a previous computation.

   -------------------------------------------------------
    Irrep   Nso     Nmo     Nalpha   Nbeta   Ndocc  Nsocc
   -------------------------------------------------------
     A1        16      16       5       5       5       0
     A2         2       2       0       0       0       0
     B1         7       7       2       2       2       0
     B2         7       7       2       2       2       0
   -------------------------------------------------------
    Total      32      32       9       9       9       0
   -------------------------------------------------------

  ==> Iterations <==

                           Total Energy        Delta E     RMS |[F,P]|

   @DF-UKS iter   0:  -254.04727058534834   -2.54047e+02   2.29570e-02 
   @DF-UKS iter   1:  -254.09184974405844   -4.45792e-02   4.37278e-03 DIIS/ADIIS
   @DF-UKS iter   2:  -254.08977255485343    2.07719e-03   5.53632e-03 DIIS/ADIIS/DAMP=1%
   @DF-UKS iter   3:  -254.09774589508891   -7.97334e-03   6.59928e-05 DIIS/DAMP=1%
   @DF-UKS iter   4:  -254.09561260067707    2.13329e-03   4.17261e-05 DIIS/DAMP=1%
   @DF-UKS iter   5:  -254.09556135426686    5.12464e-05   1.09767e-05 DIIS/DAMP=1%
   @DF-UKS iter   6:  -254.09557006488714   -8.71062e-06   7.11133e-07 DIIS/DAMP=1%
   @DF-UKS iter   7:  -254.09556370365038    6.36124e-06   5.21761e-08 DIIS/DAMP=1%
   @DF-UKS iter   8:  -254.09556386789424   -1.64244e-07   2.59906e-09 DIIS/DAMP=1%
   @DF-UKS iter   9:  -254.09556387502192   -7.12768e-09   3.12075e-10 DIIS/DAMP=1%
  Energy and wave function converged.


  ==> Post-Iterations <==

   Electrons on quadrature grid:
      Nalpha   =    8.9999999959 ; deviation = -4.089e-09
      Nbeta    =    8.9999999959 ; deviation = -4.089e-09
      Ntotal   =   17.9999999918 ; deviation = -8.179e-09 

   @Spin Contamination Metric:   7.105427358E-15
   @S^2 Expected:                0.000000000E+00
   @S^2 Observed:                7.105427358E-15
   @S   Expected:                0.000000000E+00
   @S   Observed:                0.000000000E+00

    Orbital Energies [Eh]
    ---------------------

    Alpha Occupied:                                                       

       1A1   -47.204645     2A1   -14.600269     3A1    -3.503663  
       4A1    -2.277007     1B1    -2.235546     1B2    -2.235546  
       5A1    -0.952158     2B1    -0.524887     2B2    -0.524887  

    Alpha Virtual:                                                        

       6A1    -0.426588     7A1    -0.329047     3B1    -0.197392  
       3B2    -0.197392     8A1    -0.135975     9A1    -0.074030  
       4B1    -0.024375     4B2    -0.024375    10A1     0.033261  
      11A1     0.065377     1A2     0.065378     5B2     0.209465  
       5B1     0.209465    12A1     0.404810     6B2     0.598846  
       6B1     0.598846    13A1     0.651430    14A1     1.403083  
       2A2     1.567138    15A1     1.567139     7B2     1.637351  
       7B1     1.637351    16A1     1.662258  

    Beta Occupied:                                                        

       1A1   -47.204645     2A1   -14.600269     3A1    -3.503663  
       4A1    -2.277007     1B1    -2.235546     1B2    -2.235546  
       5A1    -0.952158     2B1    -0.524887     2B2    -0.524887  

    Beta Virtual:                                                         

       6A1    -0.426588     7A1    -0.329047     3B1    -0.197392  
       3B2    -0.197392     8A1    -0.135975     9A1    -0.074030  
       4B1    -0.024375     4B2    -0.024375    10A1     0.033261  
      11A1     0.065377     1A2     0.065378     5B2     0.209465  
       5B1     0.209465    12A1     0.404810     6B2     0.598846  
       6B1     0.598846    13A1     0.651430    14A1     1.403083  
       2A2     1.567138    15A1     1.567139     7B2     1.637351  
       7B1     1.637351    16A1     1.662258  

    Final Occupation by Irrep:
             A1    A2    B1    B2 
    DOCC [     5,    0,    2,    2 ]
    SOCC [     0,    0,    0,    0 ]
    NA   [     5,    0,    2,    2 ]
    NB   [     5,    0,    2,    2 ]

  @DF-UKS Final Energy:  -254.09556387502192

   => Energetics <=

    Nuclear Repulsion Energy =             34.0023029642170940
    One-Electron Energy =                -414.6318081152219293
    Two-Electron Energy =                 145.3232467584961967
    DFT Exchange-Correlation Energy =     -18.7893054825133134
    Empirical Dispersion Energy =           0.0000000000000000
    VV10 Nonlocal Energy =                  0.0000000000000000
    Total Energy =                       -254.0955638750219236

  UHF NO Occupations:
  HONO-2 :    4 A1 2.0000000
  HONO-1 :    2 B2 2.0000000
  HONO-0 :    5 A1 2.0000000
  LUNO+0 :    6 A1 0.0000000
  LUNO+1 :    3 B2 0.0000000
  LUNO+2 :    3 B1 0.0000000
  LUNO+3 :    7 A1 0.0000000


Computation Completed


Properties will be evaluated at   0.000000,   0.000000,   0.000000 [a0]

Properties computed using the SCF density matrix


 Multipole Moments:

 ------------------------------------------------------------------------------------
     Multipole            Electronic (a.u.)      Nuclear  (a.u.)        Total (a.u.)
 ------------------------------------------------------------------------------------

 L = 1.  Multiply by 2.5417464519 to convert [e a0] to [Debye]
 Dipole X            :          0.0000000            0.0000000            0.0000000
 Dipole Y            :          0.0000000            0.0000000            0.0000000
 Dipole Z            :         -2.2334292           -0.0092082           -2.2426374
 Magnitude           :                                                    2.2426374

 ------------------------------------------------------------------------------------

*** tstop() called on Joses-MacBook-Pro-2.local at Thu Jul 17 13:53:51 2025
Module time:
	user time   =       2.33 seconds =       0.04 minutes
	system time =       5.31 seconds =       0.09 minutes
	total time  =          1 seconds =       0.02 minutes
Total time:
	user time   =       6.20 seconds =       0.10 minutes
	system time =      14.15 seconds =       0.24 minutes
	total time  =          2 seconds =       0.03 minutes

*** tstart() called on Joses-MacBook-Pro-2.local
*** at Thu Jul 17 13:53:51 2025


         ------------------------------------------------------------
                                   SCF GRAD                          
                          Rob Parrish, Justin Turney,                
                       Andy Simmonett, and Alex Sokolov              
         ------------------------------------------------------------

  ==> Geometry <==

    Molecular point group: c2v
    Full point group: C_inf_v

    Geometry (in Angstrom), charge = 1, multiplicity = 1:

       Center              X                  Y                   Z               Mass       
    ------------   -----------------  -----------------  -----------------  -----------------
         N            0.000000000000     0.000000000000     0.825400660187    14.003074004430
         MG           0.000000000000     0.000000000000    -0.481889782553    23.985041697000

  Nuclear repulsion =   34.002302964217094

  ==> Basis Set <==

  Basis Set: CC-PVDZ
    Blend: CC-PVDZ
    Number of shells: 14
    Number of basis functions: 32
    Number of Cartesian functions: 34
    Spherical Harmonics?: true
    Max angular momentum: 2

  ==> DFJKGrad: Density-Fitted SCF Gradients <==

    Gradient:                    1
    J tasked:                  Yes
    K tasked:                  Yes
    wK tasked:                  No
    OpenMP threads:              1
    Integrals threads:           1
    Memory [MiB]:              375
    Schwarz Cutoff:          1E-12
    Fitting Condition:       1E-10

   => Auxiliary Basis Set <=

  Basis Set: (CC-PVDZ AUX)
    Blend: CC-PVDZ-JKFIT + DEF2-UNIVERSAL-JKFIT
    Number of shells: 58
    Number of basis functions: 182
    Number of Cartesian functions: 218
    Spherical Harmonics?: true
    Max angular momentum: 4

  ==> DFT Potential <==

   => LibXC <=

    Version 6.2.2
    S. Lehtola, C. Steigemann, M. J.T. Oliveira, and M. A.L. Marques.,  SoftwareX 7, 1–5 (2018) (10.1016/j.softx.2017.11.002)

   => Composite Functional: B3LYP <= 

    B3LYP Hyb-GGA Exchange-Correlation Functional

    P. J. Stephens, F. J. Devlin, C. F. Chabalowski, and M. J. Frisch.,  J. Phys. Chem. 98, 11623 (1994) (10.1021/j100096a001)

    Deriv               =              1
    GGA                 =           TRUE
    Meta                =          FALSE

    Exchange Hybrid     =           TRUE
    MP2 Hybrid          =          FALSE

   => Exchange Functionals <=

    0.0800   Slater exchange
    0.7200         Becke 88

   => Exact (HF) Exchange <=

    0.2000               HF 

   => Correlation Functionals <=

    0.1900   Vosko, Wilk & Nusair (VWN5_RPA)
    0.8100   Lee, Yang & Parr

   => LibXC Density Thresholds  <==

    XC_HYB_GGA_XC_B3LYP:  1.00E-15 

   => Molecular Quadrature <=

    Radial Scheme          =       TREUTLER
    Pruning Scheme         =           NONE
    Nuclear Scheme         =       TREUTLER

    Blocking Scheme        =         OCTREE
    BS radius alpha        =              1
    Pruning alpha          =              1
    Radial Points          =             75
    Spherical Points       =            302
    Total Points           =          43347
    Total Blocks           =            408
    Max Points             =            252
    Max Functions          =             32
    Weights Tolerance      =       1.00E-15


  -Total Gradient:
     Atom            X                  Y                   Z
    ------   -----------------  -----------------  -----------------
       1        0.000000000000     0.000000000000    -0.552038331197
       2        0.000000000000     0.000000000000     0.552028868520


*** tstop() called on Joses-MacBook-Pro-2.local at Thu Jul 17 13:53:51 2025
Module time:
	user time   =       0.74 seconds =       0.01 minutes
	system time =       1.83 seconds =       0.03 minutes
	total time  =          0 seconds =       0.00 minutes
Total time:
	user time   =       6.95 seconds =       0.12 minutes
	system time =      16.00 seconds =       0.27 minutes
	total time  =          2 seconds =       0.03 minutes

    			-----------------------------------------

    			 OPTKING 3.0: for geometry optimizations 

    			     By R.A. King, Bethel University     

    			        with contributions from          

    			    A.V. Copan, J. Cayton, A. Heide      

    			-----------------------------------------

    
	                            ===> Fragment 1 <== 

	 Z (Atomic Numbers)          Masses                          Geom                  
	       7.000000            14.003074          0.00000000  0.00000000  1.55978119   
	      12.000000            23.985042          0.00000000  0.00000000 -0.91063971   

	 - Coordinate -           - BOHR/RAD -       - ANG/DEG -
	 R(1,2)           =         2.470421           1.307290


	        --- Internal Coordinate Step in ANG or DEG, aJ/ANG or AJ/DEG ---
	-------------------------------------------------------------------------------
	           Coordinate      Previous         Force          Change          New 
	           ----------      --------        ------          ------        ------
	               R(1,2)       1.30729        4.54805        0.13112       1.43841
	-------------------------------------------------------------------------------

	                                 ==> Convergence Check <==                                  
    
	Measures of convergence in internal coordinates in au.
    
	Criteria marked as inactive (o), active & met (*), and active & unmet ( ).

	----------------------------------------------------------------------------------------------
	   Step    Total Energy     Delta E     Max Force     RMS Force      Max Disp      RMS Disp   
	----------------------------------------------------------------------------------------------
	  Convergence Criteria     1.00e-06 *    3.00e-04 *             o    1.20e-03 *             o
	----------------------------------------------------------------------------------------------
	     2    -254.09556388   -1.44e-01      5.52e-01      5.52e-01 o    2.48e-01      2.48e-01 o  ~
	----------------------------------------------------------------------------------------------

Next Geometry in Ang 
	Fragment 1 (Ang)

	    N   0.0000000000   0.0000000000   0.8909611503
	   Mg   0.0000000000   0.0000000000  -0.5474502727


    Structure for next step:
    Molecular point group: c2v
    Full point group: C_inf_v

    Geometry (in Angstrom), charge = 1, multiplicity = 1:

    N            0.000000000000     0.000000000000     0.908188187831
    MG           0.000000000000     0.000000000000    -0.530223235165


Scratch directory: /tmp/
gradient() will perform analytic gradient computation.
   => Libint2 <=

    Primary   basis highest AM E, G, H:  6, 6, 3
    Auxiliary basis highest AM E, G, H:  7, 7, 4
    Onebody   basis highest AM E, G, H:  -, -, -
    Solid Harmonics ordering:            Gaussian

*** tstart() called on Joses-MacBook-Pro-2.local
*** at Thu Jul 17 13:53:51 2025

   => Loading Basis Set <=

    Name: CC-PVDZ
    Role: ORBITAL
    Keyword: BASIS
    atoms 1 entry N          line   168 file /Users/joseantoniorodriguesromero/anaconda3/share/psi4/basis/cc-pvdz.gbs 
    atoms 2 entry MG         line   353 file /Users/joseantoniorodriguesromero/anaconda3/share/psi4/basis/cc-pvdz.gbs 


         ---------------------------------------------------------
                                   SCF
               by Justin Turney, Rob Parrish, Andy Simmonett
                          and Daniel G. A. Smith
                              UKS Reference
                        1 Threads,    500 MiB Core
         ---------------------------------------------------------

  ==> Geometry <==

    Molecular point group: c2v
    Full point group: C_inf_v

    Geometry (in Angstrom), charge = 1, multiplicity = 1:

       Center              X                  Y                   Z               Mass       
    ------------   -----------------  -----------------  -----------------  -----------------
         N            0.000000000000     0.000000000000     0.908188187831    14.003074004430
         MG           0.000000000000     0.000000000000    -0.530223235165    23.985041697000

  Running in c2v symmetry.

  Rotational constants: A = ************  B =      0.92154  C =      0.92154 [cm^-1]
  Rotational constants: A = ************  B =  27627.07095  C =  27627.07095 [MHz]
  Nuclear repulsion =   30.902761884161823

  Charge       = 1
  Multiplicity = 1
  Electrons    = 18
  Nalpha       = 9
  Nbeta        = 9

  ==> Algorithm <==

  SCF Algorithm Type is DF.
  DIIS enabled.
  MOM disabled.
  Fractional occupation disabled.
  Guess Type is READ.
  Energy threshold   = 1.00e-08
  Density threshold  = 1.00e-08
  Integral threshold = 1.00e-12

  ==> Primary Basis <==

  Basis Set: CC-PVDZ
    Blend: CC-PVDZ
    Number of shells: 14
    Number of basis functions: 32
    Number of Cartesian functions: 34
    Spherical Harmonics?: true
    Max angular momentum: 2

  ==> DFT Potential <==

   => LibXC <=

    Version 6.2.2
    S. Lehtola, C. Steigemann, M. J.T. Oliveira, and M. A.L. Marques.,  SoftwareX 7, 1–5 (2018) (10.1016/j.softx.2017.11.002)

   => Composite Functional: B3LYP <= 

    B3LYP Hyb-GGA Exchange-Correlation Functional

    P. J. Stephens, F. J. Devlin, C. F. Chabalowski, and M. J. Frisch.,  J. Phys. Chem. 98, 11623 (1994) (10.1021/j100096a001)

    Deriv               =              1
    GGA                 =           TRUE
    Meta                =          FALSE

    Exchange Hybrid     =           TRUE
    MP2 Hybrid          =          FALSE

   => Exchange Functionals <=

    0.0800   Slater exchange
    0.7200         Becke 88

   => Exact (HF) Exchange <=

    0.2000               HF 

   => Correlation Functionals <=

    0.1900   Vosko, Wilk & Nusair (VWN5_RPA)
    0.8100   Lee, Yang & Parr

   => LibXC Density Thresholds  <==

    XC_HYB_GGA_XC_B3LYP:  1.00E-15 

   => Molecular Quadrature <=

    Radial Scheme          =       TREUTLER
    Pruning Scheme         =           NONE
    Nuclear Scheme         =       TREUTLER

    Blocking Scheme        =         OCTREE
    BS radius alpha        =              1
    Pruning alpha          =              1
    Radial Points          =             75
    Spherical Points       =            302
    Total Points           =          43375
    Total Blocks           =            408
    Max Points             =            256
    Max Functions          =             32
    Weights Tolerance      =       1.00E-15

   => Loading Basis Set <=

    Name: (CC-PVDZ AUX)
    Role: JKFIT
    Keyword: DF_BASIS_SCF
    atoms 1 entry N          line   171 file /Users/joseantoniorodriguesromero/anaconda3/share/psi4/basis/cc-pvdz-jkfit.gbs 
    atoms 2 entry MG         line   576 file /Users/joseantoniorodriguesromero/anaconda3/share/psi4/basis/def2-universal-jkfit.gbs 

   => Loading Basis Set <=

    Name: CC-PVDZ
    Role: ORBITAL
    Keyword: BASIS
    atoms 1 entry N          line   168 file /Users/joseantoniorodriguesromero/anaconda3/share/psi4/basis/cc-pvdz.gbs 
    atoms 2 entry MG         line   353 file /Users/joseantoniorodriguesromero/anaconda3/share/psi4/basis/cc-pvdz.gbs 

  Reading orbitals from file /tmp/singlet_NMg.default.74485.180.npy, no projection.

  ==> Integral Setup <==

  DFHelper Memory: AOs need 0.002 GiB; user supplied 0.327 GiB. 
  Using in-core AOs.

  ==> MemDFJK: Density-Fitted J/K Matrices <==

    J tasked:                   Yes
    K tasked:                   Yes
    wK tasked:                   No
    OpenMP threads:               1
    Memory [MiB]:               335
    Algorithm:                 Core
    Schwarz Cutoff:           1E-12
    Mask sparsity (%):       0.0000
    Fitting Condition:        1E-10

   => Auxiliary Basis Set <=

  Basis Set: (CC-PVDZ AUX)
    Blend: CC-PVDZ-JKFIT + DEF2-UNIVERSAL-JKFIT
    Number of shells: 58
    Number of basis functions: 182
    Number of Cartesian functions: 218
    Spherical Harmonics?: true
    Max angular momentum: 4

  Cached 100.0% of DFT collocation blocks in 0.039 [GiB].

  Minimum eigenvalue in the overlap matrix is 2.3240714337E-03.
  Reciprocal condition number of the overlap matrix is 7.6459609050E-04.
    Using symmetric orthogonalization.

  ==> Pre-Iterations <==

  SCF Guess: Orbitals guess was supplied from a previous computation.

   -------------------------------------------------------
    Irrep   Nso     Nmo     Nalpha   Nbeta   Ndocc  Nsocc
   -------------------------------------------------------
     A1        16      16       5       5       5       0
     A2         2       2       0       0       0       0
     B1         7       7       2       2       2       0
     B2         7       7       2       2       2       0
   -------------------------------------------------------
    Total      32      32       9       9       9       0
   -------------------------------------------------------

  ==> Iterations <==

                           Total Energy        Delta E     RMS |[F,P]|

   @DF-UKS iter   0:  -254.14986754862866   -2.54150e+02   2.24550e-02 
   @DF-UKS iter   1:  -254.19412102875265   -4.42535e-02   3.44756e-03 DIIS/ADIIS
   @DF-UKS iter   2:  -254.19241248480182    1.70854e-03   4.54951e-03 DIIS/ADIIS/DAMP=1%
   @DF-UKS iter   3:  -254.19830571775253   -5.89323e-03   1.80794e-04 DIIS/ADIIS/DAMP=1%
   @DF-UKS iter   4:  -254.19646617877635    1.83954e-03   3.36672e-05 DIIS/DAMP=1%
   @DF-UKS iter   5:  -254.19642377414044    4.24046e-05   5.58548e-06 DIIS/DAMP=1%
   @DF-UKS iter   6:  -254.19641668610700    7.08803e-06   9.37702e-07 DIIS/DAMP=1%
   @DF-UKS iter   7:  -254.19641445840523    2.22770e-06   5.13818e-08 DIIS/DAMP=1%
   @DF-UKS iter   8:  -254.19641476969679   -3.11292e-07   8.61926e-09 DIIS/DAMP=1%
   @DF-UKS iter   9:  -254.19641477524340   -5.54661e-09   7.79801e-11 DIIS/DAMP=1%
  Energy and wave function converged.


  ==> Post-Iterations <==

   Electrons on quadrature grid:
      Nalpha   =    8.9999993632 ; deviation = -6.368e-07
      Nbeta    =    8.9999993632 ; deviation = -6.368e-07
      Ntotal   =   17.9999987263 ; deviation = -1.274e-06 

   @Spin Contamination Metric:   0.000000000E+00
   @S^2 Expected:                0.000000000E+00
   @S^2 Observed:                0.000000000E+00
   @S   Expected:                0.000000000E+00
   @S   Observed:                0.000000000E+00

    Orbital Energies [Eh]
    ---------------------

    Alpha Occupied:                                                       

       1A1   -47.201313     2A1   -14.595873     3A1    -3.488962  
       4A1    -2.249009     1B1    -2.226607     1B2    -2.226607  
       5A1    -0.951166     2B2    -0.502824     2B1    -0.502824  

    Alpha Virtual:                                                        

       6A1    -0.438156     7A1    -0.338290     3B2    -0.202463  
       3B1    -0.202463     8A1    -0.138000     9A1    -0.076553  
       4B2    -0.026913     4B1    -0.026913    10A1     0.033018  
      11A1     0.066465     1A2     0.066465     5B1     0.185930  
       5B2     0.185930    12A1     0.394814     6B2     0.606894  
       6B1     0.606894    13A1     0.661017    14A1     1.410716  
      15A1     1.565233     2A2     1.576768    16A1     1.576776  
       7B2     1.658911     7B1     1.658911  

    Beta Occupied:                                                        

       1A1   -47.201313     2A1   -14.595873     3A1    -3.488962  
       4A1    -2.249009     1B1    -2.226607     1B2    -2.226607  
       5A1    -0.951166     2B2    -0.502824     2B1    -0.502824  

    Beta Virtual:                                                         

       6A1    -0.438156     7A1    -0.338290     3B2    -0.202463  
       3B1    -0.202463     8A1    -0.138000     9A1    -0.076553  
       4B2    -0.026913     4B1    -0.026913    10A1     0.033018  
      11A1     0.066465     1A2     0.066465     5B1     0.185930  
       5B2     0.185930    12A1     0.394814     6B2     0.606894  
       6B1     0.606894    13A1     0.661017    14A1     1.410716  
      15A1     1.565233     2A2     1.576768    16A1     1.576776  
       7B1     1.658911     7B2     1.658911  

    Final Occupation by Irrep:
             A1    A2    B1    B2 
    DOCC [     5,    0,    2,    2 ]
    SOCC [     0,    0,    0,    0 ]
    NA   [     5,    0,    2,    2 ]
    NB   [     5,    0,    2,    2 ]

  @DF-UKS Final Energy:  -254.19641477524340

   => Energetics <=

    Nuclear Repulsion Energy =             30.9027618841618228
    One-Electron Energy =                -408.9005842528976586
    Two-Electron Energy =                 142.5330218279520693
    DFT Exchange-Correlation Energy =     -18.7316142344596095
    Empirical Dispersion Energy =           0.0000000000000000
    VV10 Nonlocal Energy =                  0.0000000000000000
    Total Energy =                       -254.1964147752433973

  UHF NO Occupations:
  HONO-2 :    4 A1 2.0000000
  HONO-1 :    2 B2 2.0000000
  HONO-0 :    5 A1 2.0000000
  LUNO+0 :    6 A1 0.0000000
  LUNO+1 :    7 A1 0.0000000
  LUNO+2 :    8 A1 0.0000000
  LUNO+3 :    3 B1 0.0000000


Computation Completed


Properties will be evaluated at   0.000000,   0.000000,   0.000000 [a0]

Properties computed using the SCF density matrix


 Multipole Moments:

 ------------------------------------------------------------------------------------
     Multipole            Electronic (a.u.)      Nuclear  (a.u.)        Total (a.u.)
 ------------------------------------------------------------------------------------

 L = 1.  Multiply by 2.5417464519 to convert [e a0] to [Debye]
 Dipole X            :          0.0000000            0.0000000            0.0000000
 Dipole Y            :          0.0000000            0.0000000            0.0000000
 Dipole Z            :         -2.3525845           -0.0101318           -2.3627163
 Magnitude           :                                                    2.3627163

 ------------------------------------------------------------------------------------

*** tstop() called on Joses-MacBook-Pro-2.local at Thu Jul 17 13:53:52 2025
Module time:
	user time   =       2.33 seconds =       0.04 minutes
	system time =       5.28 seconds =       0.09 minutes
	total time  =          1 seconds =       0.02 minutes
Total time:
	user time   =       9.33 seconds =       0.16 minutes
	system time =      21.58 seconds =       0.36 minutes
	total time  =          3 seconds =       0.05 minutes

*** tstart() called on Joses-MacBook-Pro-2.local
*** at Thu Jul 17 13:53:52 2025


         ------------------------------------------------------------
                                   SCF GRAD                          
                          Rob Parrish, Justin Turney,                
                       Andy Simmonett, and Alex Sokolov              
         ------------------------------------------------------------

  ==> Geometry <==

    Molecular point group: c2v
    Full point group: C_inf_v

    Geometry (in Angstrom), charge = 1, multiplicity = 1:

       Center              X                  Y                   Z               Mass       
    ------------   -----------------  -----------------  -----------------  -----------------
         N            0.000000000000     0.000000000000     0.908188187831    14.003074004430
         MG           0.000000000000     0.000000000000    -0.530223235165    23.985041697000

  Nuclear repulsion =   30.902761884161823

  ==> Basis Set <==

  Basis Set: CC-PVDZ
    Blend: CC-PVDZ
    Number of shells: 14
    Number of basis functions: 32
    Number of Cartesian functions: 34
    Spherical Harmonics?: true
    Max angular momentum: 2

  ==> DFJKGrad: Density-Fitted SCF Gradients <==

    Gradient:                    1
    J tasked:                  Yes
    K tasked:                  Yes
    wK tasked:                  No
    OpenMP threads:              1
    Integrals threads:           1
    Memory [MiB]:              375
    Schwarz Cutoff:          1E-12
    Fitting Condition:       1E-10

   => Auxiliary Basis Set <=

  Basis Set: (CC-PVDZ AUX)
    Blend: CC-PVDZ-JKFIT + DEF2-UNIVERSAL-JKFIT
    Number of shells: 58
    Number of basis functions: 182
    Number of Cartesian functions: 218
    Spherical Harmonics?: true
    Max angular momentum: 4

  ==> DFT Potential <==

   => LibXC <=

    Version 6.2.2
    S. Lehtola, C. Steigemann, M. J.T. Oliveira, and M. A.L. Marques.,  SoftwareX 7, 1–5 (2018) (10.1016/j.softx.2017.11.002)

   => Composite Functional: B3LYP <= 

    B3LYP Hyb-GGA Exchange-Correlation Functional

    P. J. Stephens, F. J. Devlin, C. F. Chabalowski, and M. J. Frisch.,  J. Phys. Chem. 98, 11623 (1994) (10.1021/j100096a001)

    Deriv               =              1
    GGA                 =           TRUE
    Meta                =          FALSE

    Exchange Hybrid     =           TRUE
    MP2 Hybrid          =          FALSE

   => Exchange Functionals <=

    0.0800   Slater exchange
    0.7200         Becke 88

   => Exact (HF) Exchange <=

    0.2000               HF 

   => Correlation Functionals <=

    0.1900   Vosko, Wilk & Nusair (VWN5_RPA)
    0.8100   Lee, Yang & Parr

   => LibXC Density Thresholds  <==

    XC_HYB_GGA_XC_B3LYP:  1.00E-15 

   => Molecular Quadrature <=

    Radial Scheme          =       TREUTLER
    Pruning Scheme         =           NONE
    Nuclear Scheme         =       TREUTLER

    Blocking Scheme        =         OCTREE
    BS radius alpha        =              1
    Pruning alpha          =              1
    Radial Points          =             75
    Spherical Points       =            302
    Total Points           =          43375
    Total Blocks           =            408
    Max Points             =            256
    Max Functions          =             32
    Weights Tolerance      =       1.00E-15


  -Total Gradient:
     Atom            X                  Y                   Z
    ------   -----------------  -----------------  -----------------
       1       -0.000000000000     0.000000000000    -0.283446776076
       2       -0.000000000000    -0.000000000000     0.283407532568


*** tstop() called on Joses-MacBook-Pro-2.local at Thu Jul 17 13:53:52 2025
Module time:
	user time   =       0.72 seconds =       0.01 minutes
	system time =       2.44 seconds =       0.04 minutes
	total time  =          0 seconds =       0.00 minutes
Total time:
	user time   =      10.05 seconds =       0.17 minutes
	system time =      24.03 seconds =       0.40 minutes
	total time  =          3 seconds =       0.05 minutes

    			-----------------------------------------

    			 OPTKING 3.0: for geometry optimizations 

    			     By R.A. King, Bethel University     

    			        with contributions from          

    			    A.V. Copan, J. Cayton, A. Heide      

    			-----------------------------------------

    
	                            ===> Fragment 1 <== 

	 Z (Atomic Numbers)          Masses                          Geom                  
	       7.000000            14.003074          0.00000000  0.00000000  1.71622695   
	      12.000000            23.985042          0.00000000  0.00000000 -1.00197670   

	 - Coordinate -           - BOHR/RAD -       - ANG/DEG -
	 R(1,2)           =         2.718204           1.438411


	        --- Internal Coordinate Step in ANG or DEG, aJ/ANG or AJ/DEG ---
	-------------------------------------------------------------------------------
	           Coordinate      Previous         Force          Change          New 
	           ----------      --------        ------          ------        ------
	               R(1,2)       1.43841        2.33508        0.10779       1.54620
	-------------------------------------------------------------------------------

	                                 ==> Convergence Check <==                                  
    
	Measures of convergence in internal coordinates in au.
    
	Criteria marked as inactive (o), active & met (*), and active & unmet ( ).

	----------------------------------------------------------------------------------------------
	   Step    Total Energy     Delta E     Max Force     RMS Force      Max Disp      RMS Disp   
	----------------------------------------------------------------------------------------------
	  Convergence Criteria     1.00e-06 *    3.00e-04 *             o    1.20e-03 *             o
	----------------------------------------------------------------------------------------------
	     3    -254.19641478   -1.01e-01      2.83e-01      2.83e-01 o    2.04e-01      2.04e-01 o  ~
	----------------------------------------------------------------------------------------------

Next Geometry in Ang 
	Fragment 1 (Ang)

	    N   0.0000000000   0.0000000000   0.9620841022
	   Mg   0.0000000000   0.0000000000  -0.5841191495


    Structure for next step:
    Molecular point group: c2v
    Full point group: C_inf_v

    Geometry (in Angstrom), charge = 1, multiplicity = 1:

    N            0.000000000000     0.000000000000     0.976246091193
    MG           0.000000000000     0.000000000000    -0.569957160559


Scratch directory: /tmp/
gradient() will perform analytic gradient computation.
   => Libint2 <=

    Primary   basis highest AM E, G, H:  6, 6, 3
    Auxiliary basis highest AM E, G, H:  7, 7, 4
    Onebody   basis highest AM E, G, H:  -, -, -
    Solid Harmonics ordering:            Gaussian

*** tstart() called on Joses-MacBook-Pro-2.local
*** at Thu Jul 17 13:53:52 2025

   => Loading Basis Set <=

    Name: CC-PVDZ
    Role: ORBITAL
    Keyword: BASIS
    atoms 1 entry N          line   168 file /Users/joseantoniorodriguesromero/anaconda3/share/psi4/basis/cc-pvdz.gbs 
    atoms 2 entry MG         line   353 file /Users/joseantoniorodriguesromero/anaconda3/share/psi4/basis/cc-pvdz.gbs 


         ---------------------------------------------------------
                                   SCF
               by Justin Turney, Rob Parrish, Andy Simmonett
                          and Daniel G. A. Smith
                              UKS Reference
                        1 Threads,    500 MiB Core
         ---------------------------------------------------------

  ==> Geometry <==

    Molecular point group: c2v
    Full point group: C_inf_v

    Geometry (in Angstrom), charge = 1, multiplicity = 1:

       Center              X                  Y                   Z               Mass       
    ------------   -----------------  -----------------  -----------------  -----------------
         N            0.000000000000     0.000000000000     0.976246091193    14.003074004430
         MG           0.000000000000     0.000000000000    -0.569957160559    23.985041697000

  Running in c2v symmetry.

  Rotational constants: A = ************  B =      0.79753  C =      0.79753 [cm^-1]
  Rotational constants: A = ************  B =  23909.35856  C =  23909.35856 [MHz]
  Nuclear repulsion =   28.748410434343338

  Charge       = 1
  Multiplicity = 1
  Electrons    = 18
  Nalpha       = 9
  Nbeta        = 9

  ==> Algorithm <==

  SCF Algorithm Type is DF.
  DIIS enabled.
  MOM disabled.
  Fractional occupation disabled.
  Guess Type is READ.
  Energy threshold   = 1.00e-08
  Density threshold  = 1.00e-08
  Integral threshold = 1.00e-12

  ==> Primary Basis <==

  Basis Set: CC-PVDZ
    Blend: CC-PVDZ
    Number of shells: 14
    Number of basis functions: 32
    Number of Cartesian functions: 34
    Spherical Harmonics?: true
    Max angular momentum: 2

  ==> DFT Potential <==

   => LibXC <=

    Version 6.2.2
    S. Lehtola, C. Steigemann, M. J.T. Oliveira, and M. A.L. Marques.,  SoftwareX 7, 1–5 (2018) (10.1016/j.softx.2017.11.002)

   => Composite Functional: B3LYP <= 

    B3LYP Hyb-GGA Exchange-Correlation Functional

    P. J. Stephens, F. J. Devlin, C. F. Chabalowski, and M. J. Frisch.,  J. Phys. Chem. 98, 11623 (1994) (10.1021/j100096a001)

    Deriv               =              1
    GGA                 =           TRUE
    Meta                =          FALSE

    Exchange Hybrid     =           TRUE
    MP2 Hybrid          =          FALSE

   => Exchange Functionals <=

    0.0800   Slater exchange
    0.7200         Becke 88

   => Exact (HF) Exchange <=

    0.2000               HF 

   => Correlation Functionals <=

    0.1900   Vosko, Wilk & Nusair (VWN5_RPA)
    0.8100   Lee, Yang & Parr

   => LibXC Density Thresholds  <==

    XC_HYB_GGA_XC_B3LYP:  1.00E-15 

   => Molecular Quadrature <=

    Radial Scheme          =       TREUTLER
    Pruning Scheme         =           NONE
    Nuclear Scheme         =       TREUTLER

    Blocking Scheme        =         OCTREE
    BS radius alpha        =              1
    Pruning alpha          =              1
    Radial Points          =             75
    Spherical Points       =            302
    Total Points           =          43402
    Total Blocks           =            407
    Max Points             =            256
    Max Functions          =             32
    Weights Tolerance      =       1.00E-15

   => Loading Basis Set <=

    Name: (CC-PVDZ AUX)
    Role: JKFIT
    Keyword: DF_BASIS_SCF
    atoms 1 entry N          line   171 file /Users/joseantoniorodriguesromero/anaconda3/share/psi4/basis/cc-pvdz-jkfit.gbs 
    atoms 2 entry MG         line   576 file /Users/joseantoniorodriguesromero/anaconda3/share/psi4/basis/def2-universal-jkfit.gbs 

   => Loading Basis Set <=

    Name: CC-PVDZ
    Role: ORBITAL
    Keyword: BASIS
    atoms 1 entry N          line   168 file /Users/joseantoniorodriguesromero/anaconda3/share/psi4/basis/cc-pvdz.gbs 
    atoms 2 entry MG         line   353 file /Users/joseantoniorodriguesromero/anaconda3/share/psi4/basis/cc-pvdz.gbs 

  Reading orbitals from file /tmp/singlet_NMg.default.74485.180.npy, no projection.

  ==> Integral Setup <==

  DFHelper Memory: AOs need 0.002 GiB; user supplied 0.327 GiB. 
  Using in-core AOs.

  ==> MemDFJK: Density-Fitted J/K Matrices <==

    J tasked:                   Yes
    K tasked:                   Yes
    wK tasked:                   No
    OpenMP threads:               1
    Memory [MiB]:               335
    Algorithm:                 Core
    Schwarz Cutoff:           1E-12
    Mask sparsity (%):       0.0000
    Fitting Condition:        1E-10

   => Auxiliary Basis Set <=

  Basis Set: (CC-PVDZ AUX)
    Blend: CC-PVDZ-JKFIT + DEF2-UNIVERSAL-JKFIT
    Number of shells: 58
    Number of basis functions: 182
    Number of Cartesian functions: 218
    Spherical Harmonics?: true
    Max angular momentum: 4

  Cached 100.0% of DFT collocation blocks in 0.039 [GiB].

  Minimum eigenvalue in the overlap matrix is 2.5384186526E-03.
  Reciprocal condition number of the overlap matrix is 8.3853942732E-04.
    Using symmetric orthogonalization.

  ==> Pre-Iterations <==

  SCF Guess: Orbitals guess was supplied from a previous computation.

   -------------------------------------------------------
    Irrep   Nso     Nmo     Nalpha   Nbeta   Ndocc  Nsocc
   -------------------------------------------------------
     A1        16      16       5       5       5       0
     A2         2       2       0       0       0       0
     B1         7       7       2       2       2       0
     B2         7       7       2       2       2       0
   -------------------------------------------------------
    Total      32      32       9       9       9       0
   -------------------------------------------------------

  ==> Iterations <==

                           Total Energy        Delta E     RMS |[F,P]|

   @DF-UKS iter   0:  -254.20020233614585   -2.54200e+02   1.46540e-02 
   @DF-UKS iter   1:  -254.23851920619066   -3.83169e-02   1.59602e-03 DIIS/ADIIS
   @DF-UKS iter   2:  -254.23819405700434    3.25149e-04   2.01529e-03 DIIS/ADIIS/DAMP=1%
   @DF-UKS iter   3:  -254.23992390993757   -1.72985e-03   2.20933e-04 DIIS/ADIIS/DAMP=1%
   @DF-UKS iter   4:  -254.23898688150734    9.37028e-04   8.51807e-06 DIIS/DAMP=1%
   @DF-UKS iter   5:  -254.23898353238604    3.34912e-06   3.12205e-06 DIIS/DAMP=1%
   @DF-UKS iter   6:  -254.23898522253302   -1.69015e-06   2.20103e-07 DIIS/DAMP=1%
   @DF-UKS iter   7:  -254.23898523973858   -1.72056e-08   1.61710e-08 DIIS/DAMP=1%
   @DF-UKS iter   8:  -254.23898529627471   -5.65361e-08   2.65950e-09 DIIS/DAMP=1%
   @DF-UKS iter   9:  -254.23898529179388    4.48082e-09   2.31262e-10 DIIS/DAMP=1%
  Energy and wave function converged.


  ==> Post-Iterations <==

   Electrons on quadrature grid:
      Nalpha   =    8.9999999687 ; deviation = -3.133e-08
      Nbeta    =    8.9999999687 ; deviation = -3.133e-08
      Ntotal   =   17.9999999373 ; deviation = -6.265e-08 

   @Spin Contamination Metric:  -3.019806627E-14
   @S^2 Expected:                0.000000000E+00
   @S^2 Observed:               -3.019806627E-14
   @S   Expected:                0.000000000E+00
   @S   Observed:                0.000000000E+00

    Orbital Energies [Eh]
    ---------------------

    Alpha Occupied:                                                       

       1A1   -47.209477     2A1   -14.592353     3A1    -3.489510  
       4A1    -2.242991     1B1    -2.229740     1B2    -2.229740  
       5A1    -0.942188     2B2    -0.485994     2B1    -0.485994  

    Alpha Virtual:                                                        

       6A1    -0.441038     7A1    -0.343667     3B1    -0.208236  
       3B2    -0.208236     8A1    -0.140313     9A1    -0.079075  
       4B1    -0.029634     4B2    -0.029634    10A1     0.030907  
       1A2     0.065103    11A1     0.065103     5B2     0.166281  
       5B1     0.166281    12A1     0.387112     6B2     0.613676  
       6B1     0.613676    13A1     0.663263    14A1     1.355813  
       2A2     1.585141    15A1     1.585151    16A1     1.594101  
       7B2     1.666661     7B1     1.666661  

    Beta Occupied:                                                        

       1A1   -47.209477     2A1   -14.592353     3A1    -3.489510  
       4A1    -2.242991     1B1    -2.229740     1B2    -2.229740  
       5A1    -0.942188     2B2    -0.485994     2B1    -0.485994  

    Beta Virtual:                                                         

       6A1    -0.441038     7A1    -0.343667     3B1    -0.208236  
       3B2    -0.208236     8A1    -0.140313     9A1    -0.079075  
       4B1    -0.029634     4B2    -0.029634    10A1     0.030907  
       1A2     0.065103    11A1     0.065103     5B2     0.166281  
       5B1     0.166281    12A1     0.387112     6B2     0.613676  
       6B1     0.613676    13A1     0.663263    14A1     1.355813  
       2A2     1.585141    15A1     1.585151    16A1     1.594101  
       7B2     1.666661     7B1     1.666661  

    Final Occupation by Irrep:
             A1    A2    B1    B2 
    DOCC [     5,    0,    2,    2 ]
    SOCC [     0,    0,    0,    0 ]
    NA   [     5,    0,    2,    2 ]
    NB   [     5,    0,    2,    2 ]

  @DF-UKS Final Energy:  -254.23898529179388

   => Energetics <=

    Nuclear Repulsion Energy =             28.7484104343433380
    One-Electron Energy =                -404.7788924604805061
    Two-Electron Energy =                 140.4829569882997760
    DFT Exchange-Correlation Energy =     -18.6914602539564889
    Empirical Dispersion Energy =           0.0000000000000000
    VV10 Nonlocal Energy =                  0.0000000000000000
    Total Energy =                       -254.2389852917938811

  UHF NO Occupations:
  HONO-2 :    2 B1 2.0000000
  HONO-1 :    5 A1 2.0000000
  HONO-0 :    2 B2 2.0000000
  LUNO+0 :    6 A1 0.0000000
  LUNO+1 :    7 A1 0.0000000
  LUNO+2 :    8 A1 0.0000000
  LUNO+3 :    3 B2 0.0000000


Computation Completed


Properties will be evaluated at   0.000000,   0.000000,   0.000000 [a0]

Properties computed using the SCF density matrix


 Multipole Moments:

 ------------------------------------------------------------------------------------
     Multipole            Electronic (a.u.)      Nuclear  (a.u.)        Total (a.u.)
 ------------------------------------------------------------------------------------

 L = 1.  Multiply by 2.5417464519 to convert [e a0] to [Debye]
 Dipole X            :          0.0000000            0.0000000            0.0000000
 Dipole Y            :          0.0000000            0.0000000            0.0000000
 Dipole Z            :         -2.4891545           -0.0108910           -2.5000456
 Magnitude           :                                                    2.5000456

 ------------------------------------------------------------------------------------

*** tstop() called on Joses-MacBook-Pro-2.local at Thu Jul 17 13:53:53 2025
Module time:
	user time   =       2.41 seconds =       0.04 minutes
	system time =       5.50 seconds =       0.09 minutes
	total time  =          1 seconds =       0.02 minutes
Total time:
	user time   =      12.51 seconds =       0.21 minutes
	system time =      29.84 seconds =       0.50 minutes
	total time  =          4 seconds =       0.07 minutes

*** tstart() called on Joses-MacBook-Pro-2.local
*** at Thu Jul 17 13:53:53 2025


         ------------------------------------------------------------
                                   SCF GRAD                          
                          Rob Parrish, Justin Turney,                
                       Andy Simmonett, and Alex Sokolov              
         ------------------------------------------------------------

  ==> Geometry <==

    Molecular point group: c2v
    Full point group: C_inf_v

    Geometry (in Angstrom), charge = 1, multiplicity = 1:

       Center              X                  Y                   Z               Mass       
    ------------   -----------------  -----------------  -----------------  -----------------
         N            0.000000000000     0.000000000000     0.976246091193    14.003074004430
         MG           0.000000000000     0.000000000000    -0.569957160559    23.985041697000

  Nuclear repulsion =   28.748410434343338

  ==> Basis Set <==

  Basis Set: CC-PVDZ
    Blend: CC-PVDZ
    Number of shells: 14
    Number of basis functions: 32
    Number of Cartesian functions: 34
    Spherical Harmonics?: true
    Max angular momentum: 2

  ==> DFJKGrad: Density-Fitted SCF Gradients <==

    Gradient:                    1
    J tasked:                  Yes
    K tasked:                  Yes
    wK tasked:                  No
    OpenMP threads:              1
    Integrals threads:           1
    Memory [MiB]:              375
    Schwarz Cutoff:          1E-12
    Fitting Condition:       1E-10

   => Auxiliary Basis Set <=

  Basis Set: (CC-PVDZ AUX)
    Blend: CC-PVDZ-JKFIT + DEF2-UNIVERSAL-JKFIT
    Number of shells: 58
    Number of basis functions: 182
    Number of Cartesian functions: 218
    Spherical Harmonics?: true
    Max angular momentum: 4

  ==> DFT Potential <==

   => LibXC <=

    Version 6.2.2
    S. Lehtola, C. Steigemann, M. J.T. Oliveira, and M. A.L. Marques.,  SoftwareX 7, 1–5 (2018) (10.1016/j.softx.2017.11.002)

   => Composite Functional: B3LYP <= 

    B3LYP Hyb-GGA Exchange-Correlation Functional

    P. J. Stephens, F. J. Devlin, C. F. Chabalowski, and M. J. Frisch.,  J. Phys. Chem. 98, 11623 (1994) (10.1021/j100096a001)

    Deriv               =              1
    GGA                 =           TRUE
    Meta                =          FALSE

    Exchange Hybrid     =           TRUE
    MP2 Hybrid          =          FALSE

   => Exchange Functionals <=

    0.0800   Slater exchange
    0.7200         Becke 88

   => Exact (HF) Exchange <=

    0.2000               HF 

   => Correlation Functionals <=

    0.1900   Vosko, Wilk & Nusair (VWN5_RPA)
    0.8100   Lee, Yang & Parr

   => LibXC Density Thresholds  <==

    XC_HYB_GGA_XC_B3LYP:  1.00E-15 

   => Molecular Quadrature <=

    Radial Scheme          =       TREUTLER
    Pruning Scheme         =           NONE
    Nuclear Scheme         =       TREUTLER

    Blocking Scheme        =         OCTREE
    BS radius alpha        =              1
    Pruning alpha          =              1
    Radial Points          =             75
    Spherical Points       =            302
    Total Points           =          43402
    Total Blocks           =            407
    Max Points             =            256
    Max Functions          =             32
    Weights Tolerance      =       1.00E-15


  -Total Gradient:
     Atom            X                  Y                   Z
    ------   -----------------  -----------------  -----------------
       1        0.000000000000    -0.000000000000    -0.144789680776
       2        0.000000000000    -0.000000000000     0.144819312529


*** tstop() called on Joses-MacBook-Pro-2.local at Thu Jul 17 13:53:54 2025
Module time:
	user time   =       0.67 seconds =       0.01 minutes
	system time =       2.71 seconds =       0.05 minutes
	total time  =          1 seconds =       0.02 minutes
Total time:
	user time   =      13.18 seconds =       0.22 minutes
	system time =      32.56 seconds =       0.54 minutes
	total time  =          5 seconds =       0.08 minutes

    			-----------------------------------------

    			 OPTKING 3.0: for geometry optimizations 

    			     By R.A. King, Bethel University     

    			        with contributions from          

    			    A.V. Copan, J. Cayton, A. Heide      

    			-----------------------------------------

    
	                            ===> Fragment 1 <== 

	 Z (Atomic Numbers)          Masses                          Geom                  
	       7.000000            14.003074          0.00000000  0.00000000  1.84483774   
	      12.000000            23.985042          0.00000000  0.00000000 -1.07706294   

	 - Coordinate -           - BOHR/RAD -       - ANG/DEG -
	 R(1,2)           =         2.921901           1.546203


	        --- Internal Coordinate Step in ANG or DEG, aJ/ANG or AJ/DEG ---
	-------------------------------------------------------------------------------
	           Coordinate      Previous         Force          Change          New 
	           ----------      --------        ------          ------        ------
	               R(1,2)       1.54620        1.19300        0.08287       1.62907
	-------------------------------------------------------------------------------

	                                 ==> Convergence Check <==                                  
    
	Measures of convergence in internal coordinates in au.
    
	Criteria marked as inactive (o), active & met (*), and active & unmet ( ).

	----------------------------------------------------------------------------------------------
	   Step    Total Energy     Delta E     Max Force     RMS Force      Max Disp      RMS Disp   
	----------------------------------------------------------------------------------------------
	  Convergence Criteria     1.00e-06 *    3.00e-04 *             o    1.20e-03 *             o
	----------------------------------------------------------------------------------------------
	     4    -254.23898529   -4.26e-02      1.45e-01      1.45e-01 o    1.57e-01      1.57e-01 o  ~
	----------------------------------------------------------------------------------------------

Next Geometry in Ang 
	Fragment 1 (Ang)

	    N   0.0000000000   0.0000000000   1.0176812635
	   Mg   0.0000000000   0.0000000000  -0.6113923329


    Structure for next step:
    Molecular point group: c2v
    Full point group: C_inf_v

    Geometry (in Angstrom), charge = 1, multiplicity = 1:

    N            0.000000000000     0.000000000000     1.028568998911
    MG           0.000000000000     0.000000000000    -0.600504597505


Scratch directory: /tmp/
gradient() will perform analytic gradient computation.
   => Libint2 <=

    Primary   basis highest AM E, G, H:  6, 6, 3
    Auxiliary basis highest AM E, G, H:  7, 7, 4
    Onebody   basis highest AM E, G, H:  -, -, -
    Solid Harmonics ordering:            Gaussian

*** tstart() called on Joses-MacBook-Pro-2.local
*** at Thu Jul 17 13:53:54 2025

   => Loading Basis Set <=

    Name: CC-PVDZ
    Role: ORBITAL
    Keyword: BASIS
    atoms 1 entry N          line   168 file /Users/joseantoniorodriguesromero/anaconda3/share/psi4/basis/cc-pvdz.gbs 
    atoms 2 entry MG         line   353 file /Users/joseantoniorodriguesromero/anaconda3/share/psi4/basis/cc-pvdz.gbs 


         ---------------------------------------------------------
                                   SCF
               by Justin Turney, Rob Parrish, Andy Simmonett
                          and Daniel G. A. Smith
                              UKS Reference
                        1 Threads,    500 MiB Core
         ---------------------------------------------------------

  ==> Geometry <==

    Molecular point group: c2v
    Full point group: C_inf_v

    Geometry (in Angstrom), charge = 1, multiplicity = 1:

       Center              X                  Y                   Z               Mass       
    ------------   -----------------  -----------------  -----------------  -----------------
         N            0.000000000000     0.000000000000     1.028568998911    14.003074004430
         MG           0.000000000000     0.000000000000    -0.600504597505    23.985041697000

  Running in c2v symmetry.

  Rotational constants: A = ************  B =      0.71845  C =      0.71845 [cm^-1]
  Rotational constants: A = ************  B =  21538.70956  C =  21538.70956 [MHz]
  Nuclear repulsion =   27.285989898844413

  Charge       = 1
  Multiplicity = 1
  Electrons    = 18
  Nalpha       = 9
  Nbeta        = 9

  ==> Algorithm <==

  SCF Algorithm Type is DF.
  DIIS enabled.
  MOM disabled.
  Fractional occupation disabled.
  Guess Type is READ.
  Energy threshold   = 1.00e-08
  Density threshold  = 1.00e-08
  Integral threshold = 1.00e-12

  ==> Primary Basis <==

  Basis Set: CC-PVDZ
    Blend: CC-PVDZ
    Number of shells: 14
    Number of basis functions: 32
    Number of Cartesian functions: 34
    Spherical Harmonics?: true
    Max angular momentum: 2

  ==> DFT Potential <==

   => LibXC <=

    Version 6.2.2
[...]
    
	Measures of convergence in internal coordinates in au.
    
	Criteria marked as inactive (o), active & met (*), and active & unmet ( ).

	----------------------------------------------------------------------------------------------
	   Step    Total Energy     Delta E     Max Force     RMS Force      Max Disp      RMS Disp   
	----------------------------------------------------------------------------------------------
	  Convergence Criteria     1.00e-06 *    3.00e-04 *             o    1.20e-03 *             o
	----------------------------------------------------------------------------------------------
	    10    -254.26461224   -1.36e-05      6.66e-04      6.66e-04 o    2.77e-03      2.77e-03 o  ~
	----------------------------------------------------------------------------------------------

Next Geometry in Ang 
	Fragment 1 (Ang)

	    N   0.0000000000   0.0000000000   1.1166566491
	   Mg   0.0000000000   0.0000000000  -0.6522371766


    Structure for next step:
    Molecular point group: c2v
    Full point group: C_inf_v

    Geometry (in Angstrom), charge = 1, multiplicity = 1:

    N            0.000000000000     0.000000000000     1.116849082449
    MG           0.000000000000     0.000000000000    -0.652044743173


Scratch directory: /tmp/
gradient() will perform analytic gradient computation.
   => Libint2 <=

    Primary   basis highest AM E, G, H:  6, 6, 3
    Auxiliary basis highest AM E, G, H:  7, 7, 4
    Onebody   basis highest AM E, G, H:  -, -, -
    Solid Harmonics ordering:            Gaussian

*** tstart() called on Joses-MacBook-Pro-2.local
*** at Thu Jul 17 13:54:01 2025

   => Loading Basis Set <=

    Name: CC-PVDZ
    Role: ORBITAL
    Keyword: BASIS
    atoms 1 entry N          line   168 file /Users/joseantoniorodriguesromero/anaconda3/share/psi4/basis/cc-pvdz.gbs 
    atoms 2 entry MG         line   353 file /Users/joseantoniorodriguesromero/anaconda3/share/psi4/basis/cc-pvdz.gbs 


         ---------------------------------------------------------
                                   SCF
               by Justin Turney, Rob Parrish, Andy Simmonett
                          and Daniel G. A. Smith
                              UKS Reference
                        1 Threads,    500 MiB Core
         ---------------------------------------------------------

  ==> Geometry <==

    Molecular point group: c2v
    Full point group: C_inf_v

    Geometry (in Angstrom), charge = 1, multiplicity = 1:

       Center              X                  Y                   Z               Mass       
    ------------   -----------------  -----------------  -----------------  -----------------
         N            0.000000000000     0.000000000000     1.116849082449    14.003074004430
         MG           0.000000000000     0.000000000000    -0.652044743173    23.985041697000

  Running in c2v symmetry.

  Rotational constants: A = ************  B =      0.60936  C =      0.60936 [cm^-1]
  Rotational constants: A = ************  B =  18268.27571  C =  18268.27571 [MHz]
  Nuclear repulsion =   25.129199419673174

  Charge       = 1
  Multiplicity = 1
  Electrons    = 18
  Nalpha       = 9
  Nbeta        = 9

  ==> Algorithm <==

  SCF Algorithm Type is DF.
  DIIS enabled.
  MOM disabled.
  Fractional occupation disabled.
  Guess Type is READ.
  Energy threshold   = 1.00e-08
  Density threshold  = 1.00e-08
  Integral threshold = 1.00e-12

  ==> Primary Basis <==

  Basis Set: CC-PVDZ
    Blend: CC-PVDZ
    Number of shells: 14
    Number of basis functions: 32
    Number of Cartesian functions: 34
    Spherical Harmonics?: true
    Max angular momentum: 2

  ==> DFT Potential <==

   => LibXC <=

    Version 6.2.2
    S. Lehtola, C. Steigemann, M. J.T. Oliveira, and M. A.L. Marques.,  SoftwareX 7, 1–5 (2018) (10.1016/j.softx.2017.11.002)

   => Composite Functional: B3LYP <= 

    B3LYP Hyb-GGA Exchange-Correlation Functional

    P. J. Stephens, F. J. Devlin, C. F. Chabalowski, and M. J. Frisch.,  J. Phys. Chem. 98, 11623 (1994) (10.1021/j100096a001)

    Deriv               =              1
    GGA                 =           TRUE
    Meta                =          FALSE

    Exchange Hybrid     =           TRUE
    MP2 Hybrid          =          FALSE

   => Exchange Functionals <=

    0.0800   Slater exchange
    0.7200         Becke 88

   => Exact (HF) Exchange <=

    0.2000               HF 

   => Correlation Functionals <=

    0.1900   Vosko, Wilk & Nusair (VWN5_RPA)
    0.8100   Lee, Yang & Parr

   => LibXC Density Thresholds  <==

    XC_HYB_GGA_XC_B3LYP:  1.00E-15 

   => Molecular Quadrature <=

    Radial Scheme          =       TREUTLER
    Pruning Scheme         =           NONE
    Nuclear Scheme         =       TREUTLER

    Blocking Scheme        =         OCTREE
    BS radius alpha        =              1
    Pruning alpha          =              1
    Radial Points          =             75
    Spherical Points       =            302
    Total Points           =          43411
    Total Blocks           =            412
    Max Points             =            254
    Max Functions          =             32
    Weights Tolerance      =       1.00E-15

   => Loading Basis Set <=

    Name: (CC-PVDZ AUX)
    Role: JKFIT
    Keyword: DF_BASIS_SCF
    atoms 1 entry N          line   171 file /Users/joseantoniorodriguesromero/anaconda3/share/psi4/basis/cc-pvdz-jkfit.gbs 
    atoms 2 entry MG         line   576 file /Users/joseantoniorodriguesromero/anaconda3/share/psi4/basis/def2-universal-jkfit.gbs 

   => Loading Basis Set <=

    Name: CC-PVDZ
    Role: ORBITAL
    Keyword: BASIS
    atoms 1 entry N          line   168 file /Users/joseantoniorodriguesromero/anaconda3/share/psi4/basis/cc-pvdz.gbs 
    atoms 2 entry MG         line   353 file /Users/joseantoniorodriguesromero/anaconda3/share/psi4/basis/cc-pvdz.gbs 

  Reading orbitals from file /tmp/singlet_NMg.default.74485.180.npy, no projection.

  ==> Integral Setup <==

  DFHelper Memory: AOs need 0.002 GiB; user supplied 0.327 GiB. 
  Using in-core AOs.

  ==> MemDFJK: Density-Fitted J/K Matrices <==

    J tasked:                   Yes
    K tasked:                   Yes
    wK tasked:                   No
    OpenMP threads:               1
    Memory [MiB]:               335
    Algorithm:                 Core
    Schwarz Cutoff:           1E-12
    Mask sparsity (%):       0.0000
    Fitting Condition:        1E-10

   => Auxiliary Basis Set <=

  Basis Set: (CC-PVDZ AUX)
    Blend: CC-PVDZ-JKFIT + DEF2-UNIVERSAL-JKFIT
    Number of shells: 58
    Number of basis functions: 182
    Number of Cartesian functions: 218
    Spherical Harmonics?: true
    Max angular momentum: 4

  Cached 100.0% of DFT collocation blocks in 0.039 [GiB].

  Minimum eigenvalue in the overlap matrix is 4.6662466226E-03.
  Reciprocal condition number of the overlap matrix is 1.5624703382E-03.
    Using symmetric orthogonalization.

  ==> Pre-Iterations <==

  SCF Guess: Orbitals guess was supplied from a previous computation.

   -------------------------------------------------------
    Irrep   Nso     Nmo     Nalpha   Nbeta   Ndocc  Nsocc
   -------------------------------------------------------
     A1        16      16       5       5       5       0
     A2         2       2       0       0       0       0
     B1         7       7       2       2       2       0
     B2         7       7       2       2       2       0
   -------------------------------------------------------
    Total      32      32       9       9       9       0
   -------------------------------------------------------

  ==> Iterations <==

                           Total Energy        Delta E     RMS |[F,P]|

   @DF-UKS iter   0:  -254.26389536762784   -2.54264e+02   8.87263e-05 
   @DF-UKS iter   1:  -254.26461302244886   -7.17655e-04   2.82695e-05 DIIS
   @DF-UKS iter   2:  -254.26461259176051    4.30688e-07   5.41341e-05 DIIS/DAMP=1%
   @DF-UKS iter   3:  -254.26459470183750    1.78899e-05   2.65426e-06 DIIS/DAMP=1%
   @DF-UKS iter   4:  -254.26461312612787   -1.84243e-05   9.71095e-07 DIIS/DAMP=1%
   @DF-UKS iter   5:  -254.26461284424738    2.81880e-07   1.36966e-07 DIIS/DAMP=1%
   @DF-UKS iter   6:  -254.26461317815938   -3.33912e-07   5.16538e-09 DIIS/DAMP=1%
   @DF-UKS iter   7:  -254.26461322930709   -5.11477e-08   1.07488e-09 DIIS/DAMP=1%
   @DF-UKS iter   8:  -254.26461323074807   -1.44098e-09   2.24498e-11 DIIS/DAMP=1%
  Energy and wave function converged.


  ==> Post-Iterations <==

   Electrons on quadrature grid:
      Nalpha   =    9.0000046651 ; deviation = 4.665e-06
      Nbeta    =    9.0000046651 ; deviation = 4.665e-06
      Ntotal   =   18.0000093303 ; deviation = 9.330e-06 

   @Spin Contamination Metric:   8.881784197E-15
   @S^2 Expected:                0.000000000E+00
   @S^2 Observed:                8.881784197E-15
   @S   Expected:                0.000000000E+00
   @S   Observed:                0.000000000E+00

    Orbital Energies [Eh]
    ---------------------

    Alpha Occupied:                                                       

       1A1   -47.234398     2A1   -14.581721     3A1    -3.503696  
       4A1    -2.250736     1B1    -2.246527     1B2    -2.246527  
       5A1    -0.914002     2B2    -0.454411     2B1    -0.454411  

    Alpha Virtual:                                                        

       6A1    -0.438896     7A1    -0.351283     3B2    -0.222233  
       3B1    -0.222233     8A1    -0.147825     9A1    -0.085371  
       4B2    -0.035703     4B1    -0.035703    10A1     0.020656  
       1A2     0.058337    11A1     0.058338     5B2     0.128212  
       5B1     0.128212    12A1     0.349606     6B2     0.626069  
       6B1     0.626069    13A1     0.650003    14A1     1.204384  
      15A1     1.603609     2A2     1.603625     7B2     1.662661  
       7B1     1.662661    16A1     1.798181  

    Beta Occupied:                                                        

       1A1   -47.234398     2A1   -14.581721     3A1    -3.503696  
       4A1    -2.250736     1B1    -2.246527     1B2    -2.246527  
       5A1    -0.914002     2B2    -0.454411     2B1    -0.454411  

    Beta Virtual:                                                         

       6A1    -0.438896     7A1    -0.351283     3B2    -0.222233  
       3B1    -0.222233     8A1    -0.147825     9A1    -0.085371  
       4B2    -0.035703     4B1    -0.035703    10A1     0.020656  
       1A2     0.058337    11A1     0.058338     5B2     0.128212  
       5B1     0.128212    12A1     0.349606     6B2     0.626069  
       6B1     0.626069    13A1     0.650003    14A1     1.204384  
      15A1     1.603609     2A2     1.603625     7B2     1.662661  
       7B1     1.662661    16A1     1.798181  

    Final Occupation by Irrep:
             A1    A2    B1    B2 
    DOCC [     5,    0,    2,    2 ]
    SOCC [     0,    0,    0,    0 ]
    NA   [     5,    0,    2,    2 ]
    NB   [     5,    0,    2,    2 ]

  @DF-UKS Final Energy:  -254.26461323074807

   => Energetics <=

    Nuclear Repulsion Energy =             25.1291994196731743
    One-Electron Energy =                -397.6780361923440523
    Two-Electron Energy =                 136.9128006449620329
    DFT Exchange-Correlation Energy =     -18.6285771030392198
    Empirical Dispersion Energy =           0.0000000000000000
    VV10 Nonlocal Energy =                  0.0000000000000000
    Total Energy =                       -254.2646132307480684

  UHF NO Occupations:
  HONO-2 :    4 A1 2.0000000
  HONO-1 :    2 B1 2.0000000
  HONO-0 :    5 A1 2.0000000
  LUNO+0 :    6 A1 0.0000000
  LUNO+1 :    3 B2 0.0000000
  LUNO+2 :    7 A1 0.0000000
  LUNO+3 :    4 B2 0.0000000


Computation Completed


Properties will be evaluated at   0.000000,   0.000000,   0.000000 [a0]

Properties computed using the SCF density matrix


 Multipole Moments:

 ------------------------------------------------------------------------------------
     Multipole            Electronic (a.u.)      Nuclear  (a.u.)        Total (a.u.)
 ------------------------------------------------------------------------------------

 L = 1.  Multiply by 2.5417464519 to convert [e a0] to [Debye]
 Dipole X            :          0.0000000            0.0000000            0.0000000
 Dipole Y            :          0.0000000            0.0000000            0.0000000
 Dipole Z            :         -2.8249353           -0.0124596           -2.8373949
 Magnitude           :                                                    2.8373949

 ------------------------------------------------------------------------------------

*** tstop() called on Joses-MacBook-Pro-2.local at Thu Jul 17 13:54:02 2025
Module time:
	user time   =       1.97 seconds =       0.03 minutes
	system time =       5.06 seconds =       0.08 minutes
	total time  =          1 seconds =       0.02 minutes
Total time:
	user time   =      34.56 seconds =       0.58 minutes
	system time =      85.80 seconds =       1.43 minutes
	total time  =         13 seconds =       0.22 minutes

*** tstart() called on Joses-MacBook-Pro-2.local
*** at Thu Jul 17 13:54:02 2025


         ------------------------------------------------------------
                                   SCF GRAD                          
                          Rob Parrish, Justin Turney,                
                       Andy Simmonett, and Alex Sokolov              
         ------------------------------------------------------------

  ==> Geometry <==

    Molecular point group: c2v
    Full point group: C_inf_v

    Geometry (in Angstrom), charge = 1, multiplicity = 1:

       Center              X                  Y                   Z               Mass       
    ------------   -----------------  -----------------  -----------------  -----------------
         N            0.000000000000     0.000000000000     1.116849082449    14.003074004430
         MG           0.000000000000     0.000000000000    -0.652044743173    23.985041697000

  Nuclear repulsion =   25.129199419673174

  ==> Basis Set <==

  Basis Set: CC-PVDZ
    Blend: CC-PVDZ
    Number of shells: 14
    Number of basis functions: 32
    Number of Cartesian functions: 34
    Spherical Harmonics?: true
    Max angular momentum: 2

  ==> DFJKGrad: Density-Fitted SCF Gradients <==

    Gradient:                    1
    J tasked:                  Yes
    K tasked:                  Yes
    wK tasked:                  No
    OpenMP threads:              1
    Integrals threads:           1
    Memory [MiB]:              375
    Schwarz Cutoff:          1E-12
    Fitting Condition:       1E-10

   => Auxiliary Basis Set <=

  Basis Set: (CC-PVDZ AUX)
    Blend: CC-PVDZ-JKFIT + DEF2-UNIVERSAL-JKFIT
    Number of shells: 58
    Number of basis functions: 182
    Number of Cartesian functions: 218
    Spherical Harmonics?: true
    Max angular momentum: 4

  ==> DFT Potential <==

   => LibXC <=

    Version 6.2.2
    S. Lehtola, C. Steigemann, M. J.T. Oliveira, and M. A.L. Marques.,  SoftwareX 7, 1–5 (2018) (10.1016/j.softx.2017.11.002)

   => Composite Functional: B3LYP <= 

    B3LYP Hyb-GGA Exchange-Correlation Functional

    P. J. Stephens, F. J. Devlin, C. F. Chabalowski, and M. J. Frisch.,  J. Phys. Chem. 98, 11623 (1994) (10.1021/j100096a001)

    Deriv               =              1
    GGA                 =           TRUE
    Meta                =          FALSE

    Exchange Hybrid     =           TRUE
    MP2 Hybrid          =          FALSE

   => Exchange Functionals <=

    0.0800   Slater exchange
    0.7200         Becke 88

   => Exact (HF) Exchange <=

    0.2000               HF 

   => Correlation Functionals <=

    0.1900   Vosko, Wilk & Nusair (VWN5_RPA)
    0.8100   Lee, Yang & Parr

   => LibXC Density Thresholds  <==

    XC_HYB_GGA_XC_B3LYP:  1.00E-15 

   => Molecular Quadrature <=

    Radial Scheme          =       TREUTLER
    Pruning Scheme         =           NONE
    Nuclear Scheme         =       TREUTLER

    Blocking Scheme        =         OCTREE
    BS radius alpha        =              1
    Pruning alpha          =              1
    Radial Points          =             75
    Spherical Points       =            302
    Total Points           =          43411
    Total Blocks           =            412
    Max Points             =            254
    Max Functions          =             32
    Weights Tolerance      =       1.00E-15


  -Total Gradient:
     Atom            X                  Y                   Z
    ------   -----------------  -----------------  -----------------
       1        0.000000000000    -0.000000000000    -0.000078610222
       2       -0.000000000000    -0.000000000000     0.000118687107


*** tstop() called on Joses-MacBook-Pro-2.local at Thu Jul 17 13:54:02 2025
Module time:
	user time   =       0.83 seconds =       0.01 minutes
	system time =       2.37 seconds =       0.04 minutes
	total time  =          0 seconds =       0.00 minutes
Total time:
	user time   =      35.39 seconds =       0.59 minutes
	system time =      88.18 seconds =       1.47 minutes
	total time  =         13 seconds =       0.22 minutes

    			-----------------------------------------

    			 OPTKING 3.0: for geometry optimizations 

    			     By R.A. King, Bethel University     

    			        with contributions from          

    			    A.V. Copan, J. Cayton, A. Heide      

    			-----------------------------------------

    
	                            ===> Fragment 1 <== 

	 Z (Atomic Numbers)          Masses                          Geom                  
	       7.000000            14.003074          0.00000000  0.00000000  2.11053889   
	      12.000000            23.985042          0.00000000  0.00000000 -1.23218599   

	 - Coordinate -           - BOHR/RAD -       - ANG/DEG -
	 R(1,2)           =         3.342725           1.768894


	        --- Internal Coordinate Step in ANG or DEG, aJ/ANG or AJ/DEG ---
	-------------------------------------------------------------------------------
	           Coordinate      Previous         Force          Change          New 
	           ----------      --------        ------          ------        ------
	               R(1,2)       1.76889        0.00081        0.00023       1.76913
	-------------------------------------------------------------------------------

	                                 ==> Convergence Check <==                                  
    
	Measures of convergence in internal coordinates in au.
    
	Criteria marked as inactive (o), active & met (*), and active & unmet ( ).

	----------------------------------------------------------------------------------------------
	   Step    Total Energy     Delta E     Max Force     RMS Force      Max Disp      RMS Disp   
	----------------------------------------------------------------------------------------------
	  Convergence Criteria     1.00e-06 *    3.00e-04 *             o    1.20e-03 *             o
	----------------------------------------------------------------------------------------------
	    11    -254.26461323   -9.86e-07 *    9.86e-05 *    9.86e-05 o    4.44e-04 *    4.44e-04 o  ~
	----------------------------------------------------------------------------------------------

Next Geometry in Ang 
	Fragment 1 (Ang)

	    N   0.0000000000   0.0000000000   1.1169664341
	   Mg   0.0000000000   0.0000000000  -0.6521620949


    Final optimized geometry and variables:
    Molecular point group: c2v
    Full point group: C_inf_v

    Geometry (in Angstrom), charge = 1, multiplicity = 1:

    N            0.000000000000     0.000000000000     1.116849082449
    MG           0.000000000000     0.000000000000    -0.652044743173


    Psi4 stopped on: Thursday, 17 July 2025 01:54PM
    Psi4 wall time for execution: 0:00:13.81

*** Psi4 exiting successfully. Buy a developer a beer!
