
    -----------------------------------------------------------------------
          Psi4: An Open-Source Ab Initio Electronic Structure Package
                               Psi4 1.9.1 release

                         Git: Rev {} zzzzzzz 


    D. G. A. Smith, L. A. Burns, A. C. Simmonett, R. M. Parrish,
    M. C. Schieber, R. Galvelis, P. Kraus, H. Kruse, R. Di Remigio,
    A. Alenaizan, A. M. James, S. Lehtola, J. P. Misiewicz, M. Scheurer,
    R. A. Shaw, J. B. Schriber, Y. Xie, Z. L. Glick, D. A. Sirianni,
    J. S. O'Brien, J. M. Waldrop, A. Kumar, E. G. Hohenstein,
    B. P. Pritchard, B. R. Brooks, H. F. Schaefer III, A. Yu. Sokolov,
    K. Patkowski, A. E. DePrince III, U. Bozkaya, R. A. King,
    F. A. Evangelista, J. M. Turney, T. D. Crawford, C. D. Sherrill,
    J. Chem. Phys. 152(18) 184108 (2020). https://doi.org/10.1063/5.0006002

                            Additional Code Authors
    E. T. Seidl, C. L. Janssen, E. F. Valeev, M. L. Leininger,
    J. F. Gonthier, R. M. Richard, H. R. McAlexander, M. Saitow, X. Wang,
    P. Verma, M. H. Lechner, A. Jiang, S. Behnle, A. G. Heide,
    M. F. Herbst, and D. L. Poole

             Previous Authors, Complete List of Code Contributors,
                       and Citations for Specific Modules
    https://github.com/psi4/psi4/blob/master/codemeta.json
    https://github.com/psi4/psi4/graphs/contributors
    http://psicode.org/psi4manual/master/introduction.html#citing-psifour

    -----------------------------------------------------------------------


    Psi4 started on: Thursday, 17 July 2025 01:25PM

    Process ID: 74179
    Host:       Joses-MacBook-Pro-2.local
    PSIDATADIR: /Users/joseantoniorodriguesromero/anaconda3/share/psi4
    Memory:     500.0 MiB
    Threads:    1
    
  ==> Input File <==

--------------------------------------------------------------------------
molecule { 
1 3
Be   0.00000        0.60000        0.00000
Cl   0.00000       -0.60000        0.00000
}

set { 
basis              cc-pvdz
reference          uks
maxiter            500
geom_maxiter       500
DAMPING_PERCENTAGE 1
guess              SAP
}

optimize('b3lyp')
--------------------------------------------------------------------------

Scratch directory: /tmp/
gradient() will perform analytic gradient computation.
   => Libint2 <=

    Primary   basis highest AM E, G, H:  6, 6, 3
    Auxiliary basis highest AM E, G, H:  7, 7, 4
    Onebody   basis highest AM E, G, H:  -, -, -
    Solid Harmonics ordering:            Gaussian

*** tstart() called on Joses-MacBook-Pro-2.local
*** at Thu Jul 17 13:25:15 2025

   => Loading Basis Set <=

    Name: CC-PVDZ
    Role: ORBITAL
    Keyword: BASIS
    atoms 1 entry BE         line    75 file /Users/joseantoniorodriguesromero/anaconda3/share/psi4/basis/cc-pvdz.gbs 
    atoms 2 entry CL         line   658 file /Users/joseantoniorodriguesromero/anaconda3/share/psi4/basis/cc-pvdz.gbs 


         ---------------------------------------------------------
                                   SCF
               by Justin Turney, Rob Parrish, Andy Simmonett
                          and Daniel G. A. Smith
                              UKS Reference
                        1 Threads,    500 MiB Core
         ---------------------------------------------------------

  ==> Geometry <==

    Molecular point group: c2v
    Full point group: C_inf_v

    Geometry (in Angstrom), charge = 1, multiplicity = 3:

       Center              X                  Y                   Z               Mass       
    ------------   -----------------  -----------------  -----------------  -----------------
         BE           0.000000000000     0.000000000000     0.954107207929     9.012183065000
         CL           0.000000000000     0.000000000000    -0.245892792071    34.968852682000

  Running in c2v symmetry.

  Rotational constants: A = ************  B =      1.63376  C =      1.63376 [cm^-1]
  Rotational constants: A = ************  B =  48978.87116  C =  48978.87116 [MHz]
  Nuclear repulsion =   29.986708604633339

  Charge       = 1
  Multiplicity = 3
  Electrons    = 20
  Nalpha       = 11
  Nbeta        = 9

  ==> Algorithm <==

  SCF Algorithm Type is DF.
  DIIS enabled.
  MOM disabled.
  Fractional occupation disabled.
  Guess Type is SAP.
  Energy threshold   = 1.00e-08
  Density threshold  = 1.00e-08
  Integral threshold = 1.00e-12

  ==> Primary Basis <==

  Basis Set: CC-PVDZ
    Blend: CC-PVDZ
    Number of shells: 14
    Number of basis functions: 32
    Number of Cartesian functions: 34
    Spherical Harmonics?: true
    Max angular momentum: 2

  ==> DFT Potential <==

   => LibXC <=

    Version 6.2.2
    S. Lehtola, C. Steigemann, M. J.T. Oliveira, and M. A.L. Marques.,  SoftwareX 7, 1–5 (2018) (10.1016/j.softx.2017.11.002)

   => Composite Functional: B3LYP <= 

    B3LYP Hyb-GGA Exchange-Correlation Functional

    P. J. Stephens, F. J. Devlin, C. F. Chabalowski, and M. J. Frisch.,  J. Phys. Chem. 98, 11623 (1994) (10.1021/j100096a001)

    Deriv               =              1
    GGA                 =           TRUE
    Meta                =          FALSE

    Exchange Hybrid     =           TRUE
    MP2 Hybrid          =          FALSE

   => Exchange Functionals <=

    0.0800   Slater exchange
    0.7200         Becke 88

   => Exact (HF) Exchange <=

    0.2000               HF 

   => Correlation Functionals <=

    0.1900   Vosko, Wilk & Nusair (VWN5_RPA)
    0.8100   Lee, Yang & Parr

   => LibXC Density Thresholds  <==

    XC_HYB_GGA_XC_B3LYP:  1.00E-15 

   => Molecular Quadrature <=

    Radial Scheme          =       TREUTLER
    Pruning Scheme         =           NONE
    Nuclear Scheme         =       TREUTLER

    Blocking Scheme        =         OCTREE
    BS radius alpha        =              1
    Pruning alpha          =              1
    Radial Points          =             75
    Spherical Points       =            302
    Total Points           =          42682
    Total Blocks           =            399
    Max Points             =            256
    Max Functions          =             32
    Weights Tolerance      =       1.00E-15

   => Loading Basis Set <=

    Name: (CC-PVDZ AUX)
    Role: JKFIT
    Keyword: DF_BASIS_SCF
    atoms 1 entry BE         line    96 file /Users/joseantoniorodriguesromero/anaconda3/share/psi4/basis/def2-universal-jkfit.gbs 
    atoms 2 entry CL         line   667 file /Users/joseantoniorodriguesromero/anaconda3/share/psi4/basis/cc-pvdz-jkfit.gbs 

  ==> Integral Setup <==

  DFHelper Memory: AOs need 0.002 GiB; user supplied 0.328 GiB. 
  Using in-core AOs.

  ==> MemDFJK: Density-Fitted J/K Matrices <==

    J tasked:                   Yes
    K tasked:                   Yes
    wK tasked:                   No
    OpenMP threads:               1
    Memory [MiB]:               335
    Algorithm:                 Core
    Schwarz Cutoff:           1E-12
    Mask sparsity (%):       0.0000
    Fitting Condition:        1E-10

   => Auxiliary Basis Set <=

  Basis Set: (CC-PVDZ AUX)
    Blend: CC-PVDZ-JKFIT + DEF2-UNIVERSAL-JKFIT
    Number of shells: 53
    Number of basis functions: 163
    Number of Cartesian functions: 190
    Spherical Harmonics?: true
    Max angular momentum: 3

  Cached 100.0% of DFT collocation blocks in 0.038 [GiB].

  Minimum eigenvalue in the overlap matrix is 2.6519215017E-03.
  Reciprocal condition number of the overlap matrix is 8.1877984581E-04.
    Using symmetric orthogonalization.

  ==> Pre-Iterations <==

  SCF Guess: Superposition of Atomic Potentials (doi:10.1021/acs.jctc.8b01089).

  ==> SAP guess <==

   => Molecular Quadrature <=

    Radial Scheme          =       TREUTLER
    Pruning Scheme         =           NONE
    Nuclear Scheme         =       TREUTLER

    Blocking Scheme        =         OCTREE
    BS radius alpha        =              1
    Pruning alpha          =              1
    Radial Points          =             75
    Spherical Points       =            302
    Total Points           =          42682
    Total Blocks           =            399
    Max Points             =            256
    Max Functions          =             32
    Weights Tolerance      =       1.00E-15

   -------------------------------------------------------
    Irrep   Nso     Nmo     Nalpha   Nbeta   Ndocc  Nsocc
   -------------------------------------------------------
     A1        16      16       7       5       5       2
     A2         2       2       0       0       0       0
     B1         7       7       2       2       2       0
     B2         7       7       2       2       2       0
   -------------------------------------------------------
    Total      32      32      11       9       9       2
   -------------------------------------------------------

  ==> Iterations <==

                           Total Energy        Delta E     RMS |[F,P]|

   @DF-UKS iter   1:  -473.82151654992231   -4.73822e+02   2.87337e-02 DIIS/ADIIS
   @DF-UKS iter   2:  -473.80689965361921    1.46169e-02   3.11236e-02 DIIS/ADIIS/DAMP=1%
   @DF-UKS iter   3:  -474.02619827803426   -2.19299e-01   8.34196e-04 DIIS/ADIIS/DAMP=1%
   @DF-UKS iter   4:  -474.02594308398028    2.55194e-04   4.31990e-04 DIIS/ADIIS/DAMP=1%
   @DF-UKS iter   5:  -474.02726921555166   -1.32613e-03   8.85164e-05 DIIS/DAMP=1%
   @DF-UKS iter   6:  -474.02685263312281    4.16582e-04   1.32853e-05 DIIS/DAMP=1%
   @DF-UKS iter   7:  -474.02690006768933   -4.74346e-05   2.79532e-06 DIIS/DAMP=1%
   @DF-UKS iter   8:  -474.02690004720768    2.04817e-08   4.16644e-07 DIIS/DAMP=1%
   @DF-UKS iter   9:  -474.02690037065821   -3.23451e-07   4.43670e-08 DIIS/DAMP=1%
   @DF-UKS iter  10:  -474.02690026800104    1.02657e-07   5.12247e-09 DIIS/DAMP=1%
   @DF-UKS iter  11:  -474.02690026906947   -1.06843e-09   4.44612e-10 DIIS/DAMP=1%
  Energy and wave function converged.


  ==> Post-Iterations <==

   Electrons on quadrature grid:
      Nalpha   =   10.9999984873 ; deviation = -1.513e-06
      Nbeta    =    8.9999984277 ; deviation = -1.572e-06
      Ntotal   =   19.9999969150 ; deviation = -3.085e-06 

   @Spin Contamination Metric:   2.351838868E-03
   @S^2 Expected:                2.000000000E+00
   @S^2 Observed:                2.002351839E+00
   @S   Expected:                1.000000000E+00
   @S   Observed:                1.000000000E+00

    Orbital Energies [Eh]
    ---------------------

    Alpha Occupied:                                                       

       1A1  -102.009367     2A1    -9.954587     3A1    -7.734012  
       1B2    -7.697473     1B1    -7.697473     4A1    -4.491852  
       5A1    -1.325564     6A1    -0.887878     2B1    -0.807900  
       2B2    -0.807900     7A1    -0.439543  

    Alpha Virtual:                                                        

       3B1    -0.277740     3B2    -0.277740     8A1    -0.160868  
       4B1    -0.101934     4B2    -0.101934     9A1    -0.015553  
      10A1     0.047536     1A2     0.072305    11A1     0.072305  
       5B2     0.196648     5B1     0.196648    12A1     0.216048  
       6B2     0.323829     6B1     0.323829    13A1     0.410288  
      14A1     0.476900     2A2     0.476900     7B1     0.832363  
       7B2     0.832363    15A1     0.917167    16A1     2.194910  

    Beta Occupied:                                                        

       1A1  -102.000995     2A1    -9.946204     3A1    -7.707501  
       1B1    -7.692617     1B2    -7.692617     4A1    -4.468159  
       5A1    -1.265864     2B1    -0.788001     2B2    -0.788001  

    Beta Virtual:                                                         

       6A1    -0.705573     7A1    -0.296834     3B1    -0.229582  
       3B2    -0.229582     8A1    -0.138764     4B1    -0.087529  
       4B2    -0.087529     9A1     0.026433     1A2     0.093893  
      10A1     0.093900    11A1     0.096811     5B2     0.241602  
       5B1     0.241602    12A1     0.288765     6B2     0.362042  
       6B1     0.362042    13A1     0.457611     2A2     0.499968  
      14A1     0.499975     7B1     0.880903     7B2     0.880903  
      15A1     0.950912    16A1     2.240842  

    Final Occupation by Irrep:
             A1    A2    B1    B2 
    DOCC [     5,    0,    2,    2 ]
    SOCC [     2,    0,    0,    0 ]
    NA   [     7,    0,    2,    2 ]
    NB   [     5,    0,    2,    2 ]

  @DF-UKS Final Energy:  -474.02690026906947

   => Energetics <=

    Nuclear Repulsion Energy =             29.9867086046333391
    One-Electron Energy =                -704.0334099569008686
    Two-Electron Energy =                 225.0214563794384333
    DFT Exchange-Correlation Energy =     -25.0016552962403971
    Empirical Dispersion Energy =           0.0000000000000000
    VV10 Nonlocal Energy =                  0.0000000000000000
    Total Energy =                       -474.0269002690695288

  UHF NO Occupations:
  HONO-2 :    5 A1 1.9991005
  HONO-1 :    6 A1 1.0000000
  HONO-0 :    7 A1 1.0000000
  LUNO+0 :    8 A1 0.0008995
  LUNO+1 :    3 B1 0.0001379
  LUNO+2 :    3 B2 0.0001379
  LUNO+3 :    9 A1 0.0000010


Computation Completed


Properties will be evaluated at   0.000000,   0.000000,   0.000000 [a0]

Properties computed using the SCF density matrix


 Multipole Moments:

 ------------------------------------------------------------------------------------
     Multipole            Electronic (a.u.)      Nuclear  (a.u.)        Total (a.u.)
 ------------------------------------------------------------------------------------

 L = 1.  Multiply by 2.5417464519 to convert [e a0] to [Debye]
 Dipole X            :          0.0000000            0.0000000            0.0000000
 Dipole Y            :          0.0000000            0.0000000            0.0000000
 Dipole Z            :         -0.0407761           -0.6873853           -0.7281614
 Magnitude           :                                                    0.7281614

 ------------------------------------------------------------------------------------

*** tstop() called on Joses-MacBook-Pro-2.local at Thu Jul 17 13:25:16 2025
Module time:
	user time   =       2.85 seconds =       0.05 minutes
	system time =       5.96 seconds =       0.10 minutes
	total time  =          1 seconds =       0.02 minutes
Total time:
	user time   =       2.85 seconds =       0.05 minutes
	system time =       5.96 seconds =       0.10 minutes
	total time  =          1 seconds =       0.02 minutes

*** tstart() called on Joses-MacBook-Pro-2.local
*** at Thu Jul 17 13:25:16 2025


         ------------------------------------------------------------
                                   SCF GRAD                          
                          Rob Parrish, Justin Turney,                
                       Andy Simmonett, and Alex Sokolov              
         ------------------------------------------------------------

  ==> Geometry <==

    Molecular point group: c2v
    Full point group: C_inf_v

    Geometry (in Angstrom), charge = 1, multiplicity = 3:

       Center              X                  Y                   Z               Mass       
    ------------   -----------------  -----------------  -----------------  -----------------
         BE           0.000000000000     0.000000000000     0.954107207929     9.012183065000
         CL           0.000000000000     0.000000000000    -0.245892792071    34.968852682000

  Nuclear repulsion =   29.986708604633339

  ==> Basis Set <==

  Basis Set: CC-PVDZ
    Blend: CC-PVDZ
    Number of shells: 14
    Number of basis functions: 32
    Number of Cartesian functions: 34
    Spherical Harmonics?: true
    Max angular momentum: 2

  ==> DFJKGrad: Density-Fitted SCF Gradients <==

    Gradient:                    1
    J tasked:                  Yes
    K tasked:                  Yes
    wK tasked:                  No
    OpenMP threads:              1
    Integrals threads:           1
    Memory [MiB]:              375
    Schwarz Cutoff:          1E-12
    Fitting Condition:       1E-10

   => Auxiliary Basis Set <=

  Basis Set: (CC-PVDZ AUX)
    Blend: CC-PVDZ-JKFIT + DEF2-UNIVERSAL-JKFIT
    Number of shells: 53
    Number of basis functions: 163
    Number of Cartesian functions: 190
    Spherical Harmonics?: true
    Max angular momentum: 3

  ==> DFT Potential <==

   => LibXC <=

    Version 6.2.2
    S. Lehtola, C. Steigemann, M. J.T. Oliveira, and M. A.L. Marques.,  SoftwareX 7, 1–5 (2018) (10.1016/j.softx.2017.11.002)

   => Composite Functional: B3LYP <= 

    B3LYP Hyb-GGA Exchange-Correlation Functional

    P. J. Stephens, F. J. Devlin, C. F. Chabalowski, and M. J. Frisch.,  J. Phys. Chem. 98, 11623 (1994) (10.1021/j100096a001)

    Deriv               =              1
    GGA                 =           TRUE
    Meta                =          FALSE

    Exchange Hybrid     =           TRUE
    MP2 Hybrid          =          FALSE

   => Exchange Functionals <=

    0.0800   Slater exchange
    0.7200         Becke 88

   => Exact (HF) Exchange <=

    0.2000               HF 

   => Correlation Functionals <=

    0.1900   Vosko, Wilk & Nusair (VWN5_RPA)
    0.8100   Lee, Yang & Parr

   => LibXC Density Thresholds  <==

    XC_HYB_GGA_XC_B3LYP:  1.00E-15 

   => Molecular Quadrature <=

    Radial Scheme          =       TREUTLER
    Pruning Scheme         =           NONE
    Nuclear Scheme         =       TREUTLER

    Blocking Scheme        =         OCTREE
    BS radius alpha        =              1
    Pruning alpha          =              1
    Radial Points          =             75
    Spherical Points       =            302
    Total Points           =          42682
    Total Blocks           =            399
    Max Points             =            256
    Max Functions          =             32
    Weights Tolerance      =       1.00E-15


  -Total Gradient:
     Atom            X                  Y                   Z
    ------   -----------------  -----------------  -----------------
       1       -0.000000000000     0.000000000000    -1.024639906240
       2        0.000000000000     0.000000000000     1.024636954846


*** tstop() called on Joses-MacBook-Pro-2.local at Thu Jul 17 13:25:16 2025
Module time:
	user time   =       0.77 seconds =       0.01 minutes
	system time =       1.58 seconds =       0.03 minutes
	total time  =          0 seconds =       0.00 minutes
Total time:
	user time   =       3.63 seconds =       0.06 minutes
	system time =       7.54 seconds =       0.13 minutes
	total time  =          1 seconds =       0.02 minutes

    			-----------------------------------------

    			 OPTKING 3.0: for geometry optimizations 

    			     By R.A. King, Bethel University     

    			        with contributions from          

    			    A.V. Copan, J. Cayton, A. Heide      

    			-----------------------------------------

    
	                            ===> Fragment 1 <== 

	 Z (Atomic Numbers)          Masses                          Geom                  
	       4.000000             9.012183          0.00000000  0.00000000  1.80300132   
	      17.000000            34.968853          0.00000000  0.00000000 -0.46467003   

	 - Coordinate -           - BOHR/RAD -       - ANG/DEG -
	 R(1,2)           =         2.267671           1.200000


	        --- Internal Coordinate Step in ANG or DEG, aJ/ANG or AJ/DEG ---
	-------------------------------------------------------------------------------
	           Coordinate      Previous         Force          Change          New 
	           ----------      --------        ------          ------        ------
	               R(1,2)       1.20000        8.44171        0.12268       1.32268
	-------------------------------------------------------------------------------

	                                 ==> Convergence Check <==                                  
    
	Measures of convergence in internal coordinates in au.
    
	Criteria marked as inactive (o), active & met (*), and active & unmet ( ).

	----------------------------------------------------------------------------------------------
	   Step    Total Energy     Delta E     Max Force     RMS Force      Max Disp      RMS Disp   
	----------------------------------------------------------------------------------------------
	  Convergence Criteria     1.00e-06 *    3.00e-04 *             o    1.20e-03 *             o
	----------------------------------------------------------------------------------------------
	     1    -474.02690027   -4.74e+02      1.02e+00      1.02e+00 o    2.32e-01      2.32e-01 o  ~
	----------------------------------------------------------------------------------------------

Next Geometry in Ang 
	Fragment 1 (Ang)

	   Be   0.0000000000   0.0000000000   1.0154470891
	   Cl   0.0000000000   0.0000000000  -0.3072326733


    Structure for next step:
    Molecular point group: c2v
    Full point group: C_inf_v

    Geometry (in Angstrom), charge = 1, multiplicity = 3:

    BE           0.000000000000     0.000000000000     1.051648579254
    CL           0.000000000000     0.000000000000    -0.271031183164


Scratch directory: /tmp/
gradient() will perform analytic gradient computation.
   => Libint2 <=

    Primary   basis highest AM E, G, H:  6, 6, 3
    Auxiliary basis highest AM E, G, H:  7, 7, 4
    Onebody   basis highest AM E, G, H:  -, -, -
    Solid Harmonics ordering:            Gaussian

*** tstart() called on Joses-MacBook-Pro-2.local
*** at Thu Jul 17 13:25:16 2025

   => Loading Basis Set <=

    Name: CC-PVDZ
    Role: ORBITAL
    Keyword: BASIS
    atoms 1 entry BE         line    75 file /Users/joseantoniorodriguesromero/anaconda3/share/psi4/basis/cc-pvdz.gbs 
    atoms 2 entry CL         line   658 file /Users/joseantoniorodriguesromero/anaconda3/share/psi4/basis/cc-pvdz.gbs 


         ---------------------------------------------------------
                                   SCF
               by Justin Turney, Rob Parrish, Andy Simmonett
                          and Daniel G. A. Smith
                              UKS Reference
                        1 Threads,    500 MiB Core
         ---------------------------------------------------------

  ==> Geometry <==

    Molecular point group: c2v
    Full point group: C_inf_v

    Geometry (in Angstrom), charge = 1, multiplicity = 3:

       Center              X                  Y                   Z               Mass       
    ------------   -----------------  -----------------  -----------------  -----------------
         BE           0.000000000000     0.000000000000     1.051648579254     9.012183065000
         CL           0.000000000000     0.000000000000    -0.271031183164    34.968852682000

  Running in c2v symmetry.

  Rotational constants: A = ************  B =      1.34475  C =      1.34475 [cm^-1]
  Rotational constants: A = ************  B =  40314.55276  C =  40314.55276 [MHz]
  Nuclear repulsion =   27.205413848458896

  Charge       = 1
  Multiplicity = 3
  Electrons    = 20
  Nalpha       = 11
  Nbeta        = 9

  ==> Algorithm <==

  SCF Algorithm Type is DF.
  DIIS enabled.
  MOM disabled.
  Fractional occupation disabled.
  Guess Type is READ.
  Energy threshold   = 1.00e-08
  Density threshold  = 1.00e-08
  Integral threshold = 1.00e-12

  ==> Primary Basis <==

  Basis Set: CC-PVDZ
    Blend: CC-PVDZ
    Number of shells: 14
    Number of basis functions: 32
    Number of Cartesian functions: 34
    Spherical Harmonics?: true
    Max angular momentum: 2

  ==> DFT Potential <==

   => LibXC <=

    Version 6.2.2
    S. Lehtola, C. Steigemann, M. J.T. Oliveira, and M. A.L. Marques.,  SoftwareX 7, 1–5 (2018) (10.1016/j.softx.2017.11.002)

   => Composite Functional: B3LYP <= 

    B3LYP Hyb-GGA Exchange-Correlation Functional

    P. J. Stephens, F. J. Devlin, C. F. Chabalowski, and M. J. Frisch.,  J. Phys. Chem. 98, 11623 (1994) (10.1021/j100096a001)

    Deriv               =              1
    GGA                 =           TRUE
    Meta                =          FALSE

    Exchange Hybrid     =           TRUE
    MP2 Hybrid          =          FALSE

   => Exchange Functionals <=

    0.0800   Slater exchange
    0.7200         Becke 88

   => Exact (HF) Exchange <=

    0.2000               HF 

   => Correlation Functionals <=

    0.1900   Vosko, Wilk & Nusair (VWN5_RPA)
    0.8100   Lee, Yang & Parr

   => LibXC Density Thresholds  <==

    XC_HYB_GGA_XC_B3LYP:  1.00E-15 

   => Molecular Quadrature <=

    Radial Scheme          =       TREUTLER
    Pruning Scheme         =           NONE
    Nuclear Scheme         =       TREUTLER

    Blocking Scheme        =         OCTREE
    BS radius alpha        =              1
    Pruning alpha          =              1
    Radial Points          =             75
    Spherical Points       =            302
    Total Points           =          42708
    Total Blocks           =            397
    Max Points             =            256
    Max Functions          =             32
    Weights Tolerance      =       1.00E-15

   => Loading Basis Set <=

    Name: (CC-PVDZ AUX)
    Role: JKFIT
    Keyword: DF_BASIS_SCF
    atoms 1 entry BE         line    96 file /Users/joseantoniorodriguesromero/anaconda3/share/psi4/basis/def2-universal-jkfit.gbs 
    atoms 2 entry CL         line   667 file /Users/joseantoniorodriguesromero/anaconda3/share/psi4/basis/cc-pvdz-jkfit.gbs 

   => Loading Basis Set <=

    Name: CC-PVDZ
    Role: ORBITAL
    Keyword: BASIS
    atoms 1 entry BE         line    75 file /Users/joseantoniorodriguesromero/anaconda3/share/psi4/basis/cc-pvdz.gbs 
    atoms 2 entry CL         line   658 file /Users/joseantoniorodriguesromero/anaconda3/share/psi4/basis/cc-pvdz.gbs 

  Reading orbitals from file /tmp/triplet_BeCl.default.74179.180.npy, no projection.

  ==> Integral Setup <==

  DFHelper Memory: AOs need 0.002 GiB; user supplied 0.328 GiB. 
  Using in-core AOs.

  ==> MemDFJK: Density-Fitted J/K Matrices <==

    J tasked:                   Yes
    K tasked:                   Yes
    wK tasked:                   No
    OpenMP threads:               1
    Memory [MiB]:               335
    Algorithm:                 Core
    Schwarz Cutoff:           1E-12
    Mask sparsity (%):       0.0000
    Fitting Condition:        1E-10

   => Auxiliary Basis Set <=

  Basis Set: (CC-PVDZ AUX)
    Blend: CC-PVDZ-JKFIT + DEF2-UNIVERSAL-JKFIT
    Number of shells: 53
    Number of basis functions: 163
    Number of Cartesian functions: 190
    Spherical Harmonics?: true
    Max angular momentum: 3

  Cached 100.0% of DFT collocation blocks in 0.038 [GiB].

  Minimum eigenvalue in the overlap matrix is 3.9252083630E-03.
  Reciprocal condition number of the overlap matrix is 1.2159906669E-03.
    Using symmetric orthogonalization.

  ==> Pre-Iterations <==

  SCF Guess: Orbitals guess was supplied from a previous computation.

   -------------------------------------------------------
    Irrep   Nso     Nmo     Nalpha   Nbeta   Ndocc  Nsocc
   -------------------------------------------------------
     A1        16      16       7       5       5       2
     A2         2       2       0       0       0       0
     B1         7       7       2       2       2       0
     B2         7       7       2       2       2       0
   -------------------------------------------------------
    Total      32      32      11       9       9       2
   -------------------------------------------------------

  ==> Iterations <==

                           Total Energy        Delta E     RMS |[F,P]|

   @DF-UKS iter   0:  -474.18156745713253   -4.74182e+02   2.97938e-02 
   @DF-UKS iter   1:  -474.21042875284604   -2.88613e-02   3.06312e-03 DIIS/ADIIS
   @DF-UKS iter   2:  -474.21021151687779    2.17236e-04   3.24843e-03 DIIS/ADIIS/DAMP=1%
   @DF-UKS iter   3:  -474.21186047841661   -1.64896e-03   4.20965e-05 DIIS/DAMP=1%
   @DF-UKS iter   4:  -474.21271927778633   -8.58799e-04   1.97933e-05 DIIS/DAMP=1%
   @DF-UKS iter   5:  -474.21269660184146    2.26759e-05   3.47367e-06 DIIS/DAMP=1%
   @DF-UKS iter   6:  -474.21270901302046   -1.24112e-05   1.21550e-06 DIIS/DAMP=1%
   @DF-UKS iter   7:  -474.21270520517731    3.80784e-06   2.10210e-07 DIIS/DAMP=1%
   @DF-UKS iter   8:  -474.21270599299726   -7.87820e-07   4.65955e-08 DIIS/DAMP=1%
   @DF-UKS iter   9:  -474.21270598816994    4.82731e-09   3.09505e-09 DIIS/DAMP=1%
  Energy and wave function converged.


  ==> Post-Iterations <==

   Electrons on quadrature grid:
      Nalpha   =   11.0000007410 ; deviation = 7.410e-07
      Nbeta    =    9.0000007176 ; deviation = 7.176e-07
      Ntotal   =   20.0000014586 ; deviation = 1.459e-06 

   @Spin Contamination Metric:   2.439636420E-03
   @S^2 Expected:                2.000000000E+00
   @S^2 Observed:                2.002439636E+00
   @S   Expected:                1.000000000E+00
   @S   Observed:                1.000000000E+00

    Orbital Energies [Eh]
    ---------------------

    Alpha Occupied:                                                       

       1A1  -101.997695     2A1    -9.933578     3A1    -7.710327  
       1B1    -7.679059     1B2    -7.679059     4A1    -4.450681  
       5A1    -1.311887     6A1    -0.888909     2B1    -0.782081  
       2B2    -0.782081     7A1    -0.438759  

    Alpha Virtual:                                                        

       3B2    -0.282180     3B1    -0.282180     8A1    -0.159166  
       4B2    -0.088665     4B1    -0.088665     9A1    -0.013132  
      10A1     0.032203    11A1     0.095629     1A2     0.095629  
      12A1     0.178642     5B1     0.180961     5B2     0.180961  
       6B1     0.306372     6B2     0.306372    13A1     0.417654  
      14A1     0.453495     2A2     0.453496     7B2     0.779210  
       7B1     0.779210    15A1     0.826690    16A1     1.689565  

    Beta Occupied:                                                        

       1A1  -101.989714     2A1    -9.925506     3A1    -7.685372  
       1B1    -7.674315     1B2    -7.674315     4A1    -4.430247  
       5A1    -1.252790     2B1    -0.762856     2B2    -0.762856  

    Beta Virtual:                                                         

       6A1    -0.710069     7A1    -0.295720     3B2    -0.234752  
       3B1    -0.234752     8A1    -0.137325     4B2    -0.073761  
       4B1    -0.073761     9A1     0.029733    10A1     0.080173  
       1A2     0.119237    11A1     0.119239     5B1     0.232251  
       5B2     0.232251    12A1     0.249504     6B1     0.337386  
       6B2     0.337386    13A1     0.465018     2A2     0.476544  
      14A1     0.476545     7B2     0.830384     7B1     0.830384  
      15A1     0.862083    16A1     1.733384  

    Final Occupation by Irrep:
             A1    A2    B1    B2 
    DOCC [     5,    0,    2,    2 ]
    SOCC [     2,    0,    0,    0 ]
    NA   [     7,    0,    2,    2 ]
    NB   [     5,    0,    2,    2 ]

  @DF-UKS Final Energy:  -474.21270598816994

   => Energetics <=

    Nuclear Repulsion Energy =             27.2054138484588961
    One-Electron Energy =                -699.2736019340145504
    Two-Electron Energy =                 222.7991708923043745
    DFT Exchange-Correlation Energy =     -24.9436887949186286
    Empirical Dispersion Energy =           0.0000000000000000
    VV10 Nonlocal Energy =                  0.0000000000000000
    Total Energy =                       -474.2127059881699438

  UHF NO Occupations:
  HONO-2 :    5 A1 1.9990700
  HONO-1 :    6 A1 1.0000000
  HONO-0 :    7 A1 1.0000000
  LUNO+0 :    8 A1 0.0009300
  LUNO+1 :    3 B2 0.0001447
  LUNO+2 :    3 B1 0.0001447
  LUNO+3 :    9 A1 0.0000008


Computation Completed


Properties will be evaluated at   0.000000,   0.000000,   0.000000 [a0]

Properties computed using the SCF density matrix


 Multipole Moments:

 ------------------------------------------------------------------------------------
     Multipole            Electronic (a.u.)      Nuclear  (a.u.)        Total (a.u.)
 ------------------------------------------------------------------------------------

 L = 1.  Multiply by 2.5417464519 to convert [e a0] to [Debye]
 Dipole X            :          0.0000000            0.0000000            0.0000000
 Dipole Y            :          0.0000000            0.0000000            0.0000000
 Dipole Z            :          0.2098083           -0.7576588           -0.5478505
 Magnitude           :                                                    0.5478505

 ------------------------------------------------------------------------------------

*** tstop() called on Joses-MacBook-Pro-2.local at Thu Jul 17 13:25:17 2025
Module time:
	user time   =       2.95 seconds =       0.05 minutes
	system time =       4.29 seconds =       0.07 minutes
	total time  =          1 seconds =       0.02 minutes
Total time:
	user time   =       6.61 seconds =       0.11 minutes
	system time =      12.05 seconds =       0.20 minutes
	total time  =          2 seconds =       0.03 minutes

*** tstart() called on Joses-MacBook-Pro-2.local
*** at Thu Jul 17 13:25:17 2025


         ------------------------------------------------------------
                                   SCF GRAD                          
                          Rob Parrish, Justin Turney,                
                       Andy Simmonett, and Alex Sokolov              
         ------------------------------------------------------------

  ==> Geometry <==

    Molecular point group: c2v
    Full point group: C_inf_v

    Geometry (in Angstrom), charge = 1, multiplicity = 3:

       Center              X                  Y                   Z               Mass       
    ------------   -----------------  -----------------  -----------------  -----------------
         BE           0.000000000000     0.000000000000     1.051648579254     9.012183065000
         CL           0.000000000000     0.000000000000    -0.271031183164    34.968852682000

  Nuclear repulsion =   27.205413848458896

  ==> Basis Set <==

  Basis Set: CC-PVDZ
    Blend: CC-PVDZ
    Number of shells: 14
    Number of basis functions: 32
    Number of Cartesian functions: 34
    Spherical Harmonics?: true
    Max angular momentum: 2

  ==> DFJKGrad: Density-Fitted SCF Gradients <==

    Gradient:                    1
    J tasked:                  Yes
    K tasked:                  Yes
    wK tasked:                  No
    OpenMP threads:              1
    Integrals threads:           1
    Memory [MiB]:              375
    Schwarz Cutoff:          1E-12
    Fitting Condition:       1E-10

   => Auxiliary Basis Set <=

  Basis Set: (CC-PVDZ AUX)
    Blend: CC-PVDZ-JKFIT + DEF2-UNIVERSAL-JKFIT
    Number of shells: 53
    Number of basis functions: 163
    Number of Cartesian functions: 190
    Spherical Harmonics?: true
    Max angular momentum: 3

  ==> DFT Potential <==

   => LibXC <=

    Version 6.2.2
    S. Lehtola, C. Steigemann, M. J.T. Oliveira, and M. A.L. Marques.,  SoftwareX 7, 1–5 (2018) (10.1016/j.softx.2017.11.002)

   => Composite Functional: B3LYP <= 

    B3LYP Hyb-GGA Exchange-Correlation Functional

    P. J. Stephens, F. J. Devlin, C. F. Chabalowski, and M. J. Frisch.,  J. Phys. Chem. 98, 11623 (1994) (10.1021/j100096a001)

    Deriv               =              1
    GGA                 =           TRUE
    Meta                =          FALSE

    Exchange Hybrid     =           TRUE
    MP2 Hybrid          =          FALSE

   => Exchange Functionals <=

    0.0800   Slater exchange
    0.7200         Becke 88

   => Exact (HF) Exchange <=

    0.2000               HF 

   => Correlation Functionals <=

    0.1900   Vosko, Wilk & Nusair (VWN5_RPA)
    0.8100   Lee, Yang & Parr

   => LibXC Density Thresholds  <==

    XC_HYB_GGA_XC_B3LYP:  1.00E-15 

   => Molecular Quadrature <=

    Radial Scheme          =       TREUTLER
    Pruning Scheme         =           NONE
    Nuclear Scheme         =       TREUTLER

    Blocking Scheme        =         OCTREE
    BS radius alpha        =              1
    Pruning alpha          =              1
    Radial Points          =             75
    Spherical Points       =            302
    Total Points           =          42708
    Total Blocks           =            397
    Max Points             =            256
    Max Functions          =             32
    Weights Tolerance      =       1.00E-15


  -Total Gradient:
     Atom            X                  Y                   Z
    ------   -----------------  -----------------  -----------------
       1       -0.000000000000     0.000000000000    -0.611958649510
       2        0.000000000000    -0.000000000000     0.611909311422


*** tstop() called on Joses-MacBook-Pro-2.local at Thu Jul 17 13:25:17 2025
Module time:
	user time   =       0.74 seconds =       0.01 minutes
	system time =       1.51 seconds =       0.03 minutes
	total time  =          0 seconds =       0.00 minutes
Total time:
	user time   =       7.36 seconds =       0.12 minutes
	system time =      13.56 seconds =       0.23 minutes
	total time  =          2 seconds =       0.03 minutes

    			-----------------------------------------

    			 OPTKING 3.0: for geometry optimizations 

    			     By R.A. King, Bethel University     

    			        with contributions from          

    			    A.V. Copan, J. Cayton, A. Heide      

    			-----------------------------------------

    
	                            ===> Fragment 1 <== 

	 Z (Atomic Numbers)          Masses                          Geom                  
	       4.000000             9.012183          0.00000000  0.00000000  1.98732780   
	      17.000000            34.968853          0.00000000  0.00000000 -0.51217471   

	 - Coordinate -           - BOHR/RAD -       - ANG/DEG -
	 R(1,2)           =         2.499503           1.322680


	        --- Internal Coordinate Step in ANG or DEG, aJ/ANG or AJ/DEG ---
	-------------------------------------------------------------------------------
	           Coordinate      Previous         Force          Change          New 
	           ----------      --------        ------          ------        ------
	               R(1,2)       1.32268        5.04155        0.14347       1.46615
	-------------------------------------------------------------------------------

	                                 ==> Convergence Check <==                                  
    
	Measures of convergence in internal coordinates in au.
    
	Criteria marked as inactive (o), active & met (*), and active & unmet ( ).

	----------------------------------------------------------------------------------------------
	   Step    Total Energy     Delta E     Max Force     RMS Force      Max Disp      RMS Disp   
	----------------------------------------------------------------------------------------------
	  Convergence Criteria     1.00e-06 *    3.00e-04 *             o    1.20e-03 *             o
	----------------------------------------------------------------------------------------------
	     2    -474.21270599   -1.86e-01      6.12e-01      6.12e-01 o    2.71e-01      2.71e-01 o  ~
	----------------------------------------------------------------------------------------------

Next Geometry in Ang 
	Fragment 1 (Ang)

	   Be   0.0000000000   0.0000000000   1.1233851071
	   Cl   0.0000000000   0.0000000000  -0.3427677110


    Structure for next step:
    Molecular point group: c2v
    Full point group: C_inf_v

    Geometry (in Angstrom), charge = 1, multiplicity = 3:

    BE           0.000000000000     0.000000000000     1.165722476348
    CL           0.000000000000     0.000000000000    -0.300430341692


Scratch directory: /tmp/
gradient() will perform analytic gradient computation.
   => Libint2 <=

    Primary   basis highest AM E, G, H:  6, 6, 3
    Auxiliary basis highest AM E, G, H:  7, 7, 4
    Onebody   basis highest AM E, G, H:  -, -, -
    Solid Harmonics ordering:            Gaussian

*** tstart() called on Joses-MacBook-Pro-2.local
*** at Thu Jul 17 13:25:17 2025

   => Loading Basis Set <=

    Name: CC-PVDZ
    Role: ORBITAL
    Keyword: BASIS
    atoms 1 entry BE         line    75 file /Users/joseantoniorodriguesromero/anaconda3/share/psi4/basis/cc-pvdz.gbs 
    atoms 2 entry CL         line   658 file /Users/joseantoniorodriguesromero/anaconda3/share/psi4/basis/cc-pvdz.gbs 


         ---------------------------------------------------------
                                   SCF
               by Justin Turney, Rob Parrish, Andy Simmonett
                          and Daniel G. A. Smith
                              UKS Reference
                        1 Threads,    500 MiB Core
         ---------------------------------------------------------

  ==> Geometry <==

    Molecular point group: c2v
    Full point group: C_inf_v

    Geometry (in Angstrom), charge = 1, multiplicity = 3:

       Center              X                  Y                   Z               Mass       
    ------------   -----------------  -----------------  -----------------  -----------------
         BE           0.000000000000     0.000000000000     1.165722476348     9.012183065000
         CL           0.000000000000     0.000000000000    -0.300430341692    34.968852682000

  Running in c2v symmetry.

  Rotational constants: A = ************  B =      1.09444  C =      1.09444 [cm^-1]
  Rotational constants: A = ************  B =  32810.49517  C =  32810.49517 [MHz]
  Nuclear repulsion =   24.543178502814378

  Charge       = 1
  Multiplicity = 3
  Electrons    = 20
  Nalpha       = 11
  Nbeta        = 9

  ==> Algorithm <==

  SCF Algorithm Type is DF.
  DIIS enabled.
  MOM disabled.
  Fractional occupation disabled.
  Guess Type is READ.
  Energy threshold   = 1.00e-08
  Density threshold  = 1.00e-08
  Integral threshold = 1.00e-12

  ==> Primary Basis <==

  Basis Set: CC-PVDZ
    Blend: CC-PVDZ
    Number of shells: 14
    Number of basis functions: 32
    Number of Cartesian functions: 34
    Spherical Harmonics?: true
    Max angular momentum: 2

  ==> DFT Potential <==

   => LibXC <=

    Version 6.2.2
    S. Lehtola, C. Steigemann, M. J.T. Oliveira, and M. A.L. Marques.,  SoftwareX 7, 1–5 (2018) (10.1016/j.softx.2017.11.002)

   => Composite Functional: B3LYP <= 

    B3LYP Hyb-GGA Exchange-Correlation Functional

    P. J. Stephens, F. J. Devlin, C. F. Chabalowski, and M. J. Frisch.,  J. Phys. Chem. 98, 11623 (1994) (10.1021/j100096a001)

    Deriv               =              1
    GGA                 =           TRUE
    Meta                =          FALSE

    Exchange Hybrid     =           TRUE
    MP2 Hybrid          =          FALSE

   => Exchange Functionals <=

    0.0800   Slater exchange
    0.7200         Becke 88

   => Exact (HF) Exchange <=

    0.2000               HF 

   => Correlation Functionals <=

    0.1900   Vosko, Wilk & Nusair (VWN5_RPA)
    0.8100   Lee, Yang & Parr

   => LibXC Density Thresholds  <==

    XC_HYB_GGA_XC_B3LYP:  1.00E-15 

   => Molecular Quadrature <=

    Radial Scheme          =       TREUTLER
    Pruning Scheme         =           NONE
    Nuclear Scheme         =       TREUTLER

    Blocking Scheme        =         OCTREE
    BS radius alpha        =              1
    Pruning alpha          =              1
    Radial Points          =             75
    Spherical Points       =            302
    Total Points           =          42715
    Total Blocks           =            398
    Max Points             =            254
    Max Functions          =             32
    Weights Tolerance      =       1.00E-15

   => Loading Basis Set <=

    Name: (CC-PVDZ AUX)
    Role: JKFIT
    Keyword: DF_BASIS_SCF
    atoms 1 entry BE         line    96 file /Users/joseantoniorodriguesromero/anaconda3/share/psi4/basis/def2-universal-jkfit.gbs 
    atoms 2 entry CL         line   667 file /Users/joseantoniorodriguesromero/anaconda3/share/psi4/basis/cc-pvdz-jkfit.gbs 

   => Loading Basis Set <=

    Name: CC-PVDZ
    Role: ORBITAL
    Keyword: BASIS
    atoms 1 entry BE         line    75 file /Users/joseantoniorodriguesromero/anaconda3/share/psi4/basis/cc-pvdz.gbs 
    atoms 2 entry CL         line   658 file /Users/joseantoniorodriguesromero/anaconda3/share/psi4/basis/cc-pvdz.gbs 

  Reading orbitals from file /tmp/triplet_BeCl.default.74179.180.npy, no projection.

  ==> Integral Setup <==

  DFHelper Memory: AOs need 0.002 GiB; user supplied 0.328 GiB. 
  Using in-core AOs.

  ==> MemDFJK: Density-Fitted J/K Matrices <==

    J tasked:                   Yes
    K tasked:                   Yes
    wK tasked:                   No
    OpenMP threads:               1
    Memory [MiB]:               335
    Algorithm:                 Core
    Schwarz Cutoff:           1E-12
    Mask sparsity (%):       0.0000
    Fitting Condition:        1E-10

   => Auxiliary Basis Set <=

  Basis Set: (CC-PVDZ AUX)
    Blend: CC-PVDZ-JKFIT + DEF2-UNIVERSAL-JKFIT
    Number of shells: 53
    Number of basis functions: 163
    Number of Cartesian functions: 190
    Spherical Harmonics?: true
    Max angular momentum: 3

  Cached 100.0% of DFT collocation blocks in 0.038 [GiB].

  Minimum eigenvalue in the overlap matrix is 6.5466223300E-03.
  Reciprocal condition number of the overlap matrix is 2.0404036266E-03.
    Using symmetric orthogonalization.

  ==> Pre-Iterations <==

  SCF Guess: Orbitals guess was supplied from a previous computation.

   -------------------------------------------------------
    Irrep   Nso     Nmo     Nalpha   Nbeta   Ndocc  Nsocc
   -------------------------------------------------------
     A1        16      16       7       5       5       2
     A2         2       2       0       0       0       0
     B1         7       7       2       2       2       0
     B2         7       7       2       2       2       0
   -------------------------------------------------------
    Total      32      32      11       9       9       2
   -------------------------------------------------------

  ==> Iterations <==

                           Total Energy        Delta E     RMS |[F,P]|

   @DF-UKS iter   0:  -474.28342279613139   -4.74283e+02   2.80853e-02 
   @DF-UKS iter   1:  -474.33453038405366   -5.11076e-02   3.03744e-03 DIIS/ADIIS
   @DF-UKS iter   2:  -474.33440175232334    1.28632e-04   3.20804e-03 DIIS/ADIIS/DAMP=1%
   @DF-UKS iter   3:  -474.33538787833874   -9.86126e-04   1.07465e-04 DIIS/ADIIS/DAMP=1%
   @DF-UKS iter   4:  -474.33670382642708   -1.31595e-03   4.87790e-05 DIIS/DAMP=1%
   @DF-UKS iter   5:  -474.33686101296388   -1.57187e-04   4.21847e-06 DIIS/DAMP=1%
   @DF-UKS iter   6:  -474.33682783386678    3.31791e-05   9.27105e-07 DIIS/DAMP=1%
   @DF-UKS iter   7:  -474.33683137386583   -3.54000e-06   1.53472e-07 DIIS/DAMP=1%
   @DF-UKS iter   8:  -474.33683059246937    7.81396e-07   2.58464e-08 DIIS/DAMP=1%
   @DF-UKS iter   9:  -474.33683067195261   -7.94832e-08   3.36756e-09 DIIS/DAMP=1%
   @DF-UKS iter  10:  -474.33683069196525   -2.00126e-08   2.45285e-10 DIIS/DAMP=1%
   @DF-UKS iter  11:  -474.33683069037704    1.58821e-09   1.41200e-11 DIIS/DAMP=1%
  Energy and wave function converged.


  ==> Post-Iterations <==

   Electrons on quadrature grid:
      Nalpha   =   11.0000013930 ; deviation = 1.393e-06
      Nbeta    =    9.0000014653 ; deviation = 1.465e-06
      Ntotal   =   20.0000028583 ; deviation = 2.858e-06 

   @Spin Contamination Metric:   2.535675494E-03
   @S^2 Expected:                2.000000000E+00
   @S^2 Observed:                2.002535675E+00
   @S   Expected:                1.000000000E+00
   @S   Observed:                1.000000000E+00

    Orbital Energies [Eh]
    ---------------------

    Alpha Occupied:                                                       

       1A1  -101.984747     2A1    -9.913022     3A1    -7.688333  
       1B1    -7.660217     1B2    -7.660217     4A1    -4.434792  
       5A1    -1.287451     6A1    -0.876491     2B1    -0.755012  
       2B2    -0.755012     7A1    -0.441668  

    Alpha Virtual:                                                        

       3B2    -0.288001     3B1    -0.288001     8A1    -0.156288  
       4B2    -0.072990     4B1    -0.072990     9A1    -0.014269  
      10A1     0.003538    11A1     0.121601     1A2     0.121601  
      12A1     0.144456     5B2     0.162836     5B1     0.162836  
       6B2     0.293397     6B1     0.293397    13A1     0.429295  
      14A1     0.432300     2A2     0.432301     7B1     0.724899  
       7B2     0.724899    15A1     0.732150    16A1     1.307128  

    Beta Occupied:                                                        

       1A1  -101.977175     2A1    -9.905306     3A1    -7.664864  
       1B1    -7.655637     1B2    -7.655637     4A1    -4.416727  
       5A1    -1.229431     2B1    -0.736460     2B2    -0.736460  

    Beta Virtual:                                                         

       6A1    -0.702404     7A1    -0.297407     3B2    -0.241154  
       3B1    -0.241154     8A1    -0.135376     4B2    -0.057934  
       4B1    -0.057934     9A1     0.031823    10A1     0.048986  
      11A1     0.148564     1A2     0.148572    12A1     0.210345  
       5B2     0.221718     5B1     0.221718     6B2     0.315675  
       6B1     0.315675    13A1     0.454491     2A2     0.454497  
      14A1     0.476516    15A1     0.770968     7B1     0.778409  
       7B2     0.778409    16A1     1.349068  

    Final Occupation by Irrep:
             A1    A2    B1    B2 
    DOCC [     5,    0,    2,    2 ]
    SOCC [     2,    0,    0,    0 ]
    NA   [     7,    0,    2,    2 ]
    NB   [     5,    0,    2,    2 ]

  @DF-UKS Final Energy:  -474.33683069037704

   => Energetics <=

    Nuclear Repulsion Energy =             24.5431785028143779
    One-Electron Energy =                -694.6117285332070423
    Two-Electron Energy =                 220.6217472034220464
    DFT Exchange-Correlation Energy =     -24.8900278634064023
    Empirical Dispersion Energy =           0.0000000000000000
    VV10 Nonlocal Energy =                  0.0000000000000000
    Total Energy =                       -474.3368306903770417

  UHF NO Occupations:
  HONO-2 :    5 A1 1.9990373
  HONO-1 :    6 A1 1.0000000
  HONO-0 :    7 A1 1.0000000
  LUNO+0 :    8 A1 0.0009627
  LUNO+1 :    3 B2 0.0001525
  LUNO+2 :    3 B1 0.0001525
  LUNO+3 :    9 A1 0.0000006


Computation Completed


Properties will be evaluated at   0.000000,   0.000000,   0.000000 [a0]

Properties computed using the SCF density matrix


 Multipole Moments:

 ------------------------------------------------------------------------------------
     Multipole            Electronic (a.u.)      Nuclear  (a.u.)        Total (a.u.)
 ------------------------------------------------------------------------------------

 L = 1.  Multiply by 2.5417464519 to convert [e a0] to [Debye]
 Dipole X            :          0.0000000            0.0000000            0.0000000
 Dipole Y            :          0.0000000            0.0000000            0.0000000
 Dipole Z            :          0.5455425           -0.8398432           -0.2943007
 Magnitude           :                                                    0.2943007

 ------------------------------------------------------------------------------------

*** tstop() called on Joses-MacBook-Pro-2.local at Thu Jul 17 13:25:19 2025
Module time:
	user time   =       4.09 seconds =       0.07 minutes
	system time =       4.45 seconds =       0.07 minutes
	total time  =          2 seconds =       0.03 minutes
Total time:
	user time   =      11.49 seconds =       0.19 minutes
	system time =      18.28 seconds =       0.30 minutes
	total time  =          4 seconds =       0.07 minutes

*** tstart() called on Joses-MacBook-Pro-2.local
*** at Thu Jul 17 13:25:19 2025


         ------------------------------------------------------------
                                   SCF GRAD                          
                          Rob Parrish, Justin Turney,                
                       Andy Simmonett, and Alex Sokolov              
         ------------------------------------------------------------

  ==> Geometry <==

    Molecular point group: c2v
    Full point group: C_inf_v

    Geometry (in Angstrom), charge = 1, multiplicity = 3:

       Center              X                  Y                   Z               Mass       
    ------------   -----------------  -----------------  -----------------  -----------------
         BE           0.000000000000     0.000000000000     1.165722476348     9.012183065000
         CL           0.000000000000     0.000000000000    -0.300430341692    34.968852682000

  Nuclear repulsion =   24.543178502814378

  ==> Basis Set <==

  Basis Set: CC-PVDZ
    Blend: CC-PVDZ
    Number of shells: 14
    Number of basis functions: 32
    Number of Cartesian functions: 34
    Spherical Harmonics?: true
    Max angular momentum: 2

  ==> DFJKGrad: Density-Fitted SCF Gradients <==

    Gradient:                    1
    J tasked:                  Yes
    K tasked:                  Yes
    wK tasked:                  No
    OpenMP threads:              1
    Integrals threads:           1
    Memory [MiB]:              375
    Schwarz Cutoff:          1E-12
    Fitting Condition:       1E-10

   => Auxiliary Basis Set <=

  Basis Set: (CC-PVDZ AUX)
    Blend: CC-PVDZ-JKFIT + DEF2-UNIVERSAL-JKFIT
    Number of shells: 53
    Number of basis functions: 163
    Number of Cartesian functions: 190
    Spherical Harmonics?: true
    Max angular momentum: 3

  ==> DFT Potential <==

   => LibXC <=

    Version 6.2.2
    S. Lehtola, C. Steigemann, M. J.T. Oliveira, and M. A.L. Marques.,  SoftwareX 7, 1–5 (2018) (10.1016/j.softx.2017.11.002)

   => Composite Functional: B3LYP <= 

    B3LYP Hyb-GGA Exchange-Correlation Functional

    P. J. Stephens, F. J. Devlin, C. F. Chabalowski, and M. J. Frisch.,  J. Phys. Chem. 98, 11623 (1994) (10.1021/j100096a001)

    Deriv               =              1
    GGA                 =           TRUE
    Meta                =          FALSE

    Exchange Hybrid     =           TRUE
    MP2 Hybrid          =          FALSE

   => Exchange Functionals <=

    0.0800   Slater exchange
    0.7200         Becke 88

   => Exact (HF) Exchange <=

    0.2000               HF 

   => Correlation Functionals <=

    0.1900   Vosko, Wilk & Nusair (VWN5_RPA)
    0.8100   Lee, Yang & Parr

   => LibXC Density Thresholds  <==

    XC_HYB_GGA_XC_B3LYP:  1.00E-15 

   => Molecular Quadrature <=

    Radial Scheme          =       TREUTLER
    Pruning Scheme         =           NONE
    Nuclear Scheme         =       TREUTLER

    Blocking Scheme        =         OCTREE
    BS radius alpha        =              1
    Pruning alpha          =              1
    Radial Points          =             75
    Spherical Points       =            302
    Total Points           =          42715
    Total Blocks           =            398
    Max Points             =            254
    Max Functions          =             32
    Weights Tolerance      =       1.00E-15


  -Total Gradient:
     Atom            X                  Y                   Z
    ------   -----------------  -----------------  -----------------
       1        0.000000000000     0.000000000000    -0.331665198824
       2       -0.000000000000    -0.000000000000     0.331617075604


*** tstop() called on Joses-MacBook-Pro-2.local at Thu Jul 17 13:25:20 2025
Module time:
	user time   =       2.11 seconds =       0.04 minutes
	system time =       1.24 seconds =       0.02 minutes
	total time  =          1 seconds =       0.02 minutes
Total time:
	user time   =      13.61 seconds =       0.23 minutes
	system time =      19.52 seconds =       0.33 minutes
	total time  =          5 seconds =       0.08 minutes

    			-----------------------------------------

    			 OPTKING 3.0: for geometry optimizations 

    			     By R.A. King, Bethel University     

    			        with contributions from          

    			    A.V. Copan, J. Cayton, A. Heide      

    			-----------------------------------------

    
	                            ===> Fragment 1 <== 

	 Z (Atomic Numbers)          Masses                          Geom                  
	       4.000000             9.012183          0.00000000  0.00000000  2.20289622   
	      17.000000            34.968853          0.00000000  0.00000000 -0.56773107   

	 - Coordinate -           - BOHR/RAD -       - ANG/DEG -
	 R(1,2)           =         2.770627           1.466153


	        --- Internal Coordinate Step in ANG or DEG, aJ/ANG or AJ/DEG ---
	-------------------------------------------------------------------------------
	           Coordinate      Previous         Force          Change          New 
	           ----------      --------        ------          ------        ------
	               R(1,2)       1.46615        2.73230        0.15369       1.61984
	-------------------------------------------------------------------------------

	                                 ==> Convergence Check <==                                  
    
	Measures of convergence in internal coordinates in au.
    
	Criteria marked as inactive (o), active & met (*), and active & unmet ( ).

	----------------------------------------------------------------------------------------------
	   Step    Total Energy     Delta E     Max Force     RMS Force      Max Disp      RMS Disp   
	----------------------------------------------------------------------------------------------
	  Convergence Criteria     1.00e-06 *    3.00e-04 *             o    1.20e-03 *             o
	----------------------------------------------------------------------------------------------
	     3    -474.33683069   -1.24e-01      3.32e-01      3.32e-01 o    2.90e-01      2.90e-01 o  ~
	----------------------------------------------------------------------------------------------

Next Geometry in Ang 
	Fragment 1 (Ang)

	   Be   0.0000000000   0.0000000000   1.2425684224
	   Cl   0.0000000000   0.0000000000  -0.3772762877


    Structure for next step:
    Molecular point group: c2v
    Full point group: C_inf_v

    Geometry (in Angstrom), charge = 1, multiplicity = 3:

    BE           0.000000000000     0.000000000000     1.287921261348
    CL           0.000000000000     0.000000000000    -0.331923448737


Scratch directory: /tmp/
gradient() will perform analytic gradient computation.
   => Libint2 <=

    Primary   basis highest AM E, G, H:  6, 6, 3
    Auxiliary basis highest AM E, G, H:  7, 7, 4
    Onebody   basis highest AM E, G, H:  -, -, -
    Solid Harmonics ordering:            Gaussian

*** tstart() called on Joses-MacBook-Pro-2.local
*** at Thu Jul 17 13:25:20 2025

   => Loading Basis Set <=

    Name: CC-PVDZ
    Role: ORBITAL
    Keyword: BASIS
    atoms 1 entry BE         line    75 file /Users/joseantoniorodriguesromero/anaconda3/share/psi4/basis/cc-pvdz.gbs 
    atoms 2 entry CL         line   658 file /Users/joseantoniorodriguesromero/anaconda3/share/psi4/basis/cc-pvdz.gbs 


         ---------------------------------------------------------
                                   SCF
               by Justin Turney, Rob Parrish, Andy Simmonett
                          and Daniel G. A. Smith
                              UKS Reference
                        1 Threads,    500 MiB Core
         ---------------------------------------------------------

  ==> Geometry <==

    Molecular point group: c2v
    Full point group: C_inf_v

    Geometry (in Angstrom), charge = 1, multiplicity = 3:

       Center              X                  Y                   Z               Mass       
    ------------   -----------------  -----------------  -----------------  -----------------
         BE           0.000000000000     0.000000000000     1.287921261348     9.012183065000
         CL           0.000000000000     0.000000000000    -0.331923448737    34.968852682000

  Running in c2v symmetry.

  Rotational constants: A = ************  B =      0.89661  C =      0.89661 [cm^-1]
  Rotational constants: A = ************  B =  26879.70510  C =  26879.70510 [MHz]
  Nuclear repulsion =   22.214506181696205

  Charge       = 1
  Multiplicity = 3
  Electrons    = 20
  Nalpha       = 11
  Nbeta        = 9

  ==> Algorithm <==

  SCF Algorithm Type is DF.
  DIIS enabled.
  MOM disabled.
  Fractional occupation disabled.
  Guess Type is READ.
  Energy threshold   = 1.00e-08
  Density threshold  = 1.00e-08
  Integral threshold = 1.00e-12

  ==> Primary Basis <==

  Basis Set: CC-PVDZ
    Blend: CC-PVDZ
    Number of shells: 14
    Number of basis functions: 32
    Number of Cartesian functions: 34
    Spherical Harmonics?: true
    Max angular momentum: 2

  ==> DFT Potential <==

   => LibXC <=

    Version 6.2.2
    S. Lehtola, C. Steigemann, M. J.T. Oliveira, and M. A.L. Marques.,  SoftwareX 7, 1–5 (2018) (10.1016/j.softx.2017.11.002)

   => Composite Functional: B3LYP <= 

    B3LYP Hyb-GGA Exchange-Correlation Functional

    P. J. Stephens, F. J. Devlin, C. F. Chabalowski, and M. J. Frisch.,  J. Phys. Chem. 98, 11623 (1994) (10.1021/j100096a001)

    Deriv               =              1
    GGA                 =           TRUE
    Meta                =          FALSE

    Exchange Hybrid     =           TRUE
    MP2 Hybrid          =          FALSE

   => Exchange Functionals <=

    0.0800   Slater exchange
    0.7200         Becke 88

   => Exact (HF) Exchange <=

    0.2000               HF 

   => Correlation Functionals <=

    0.1900   Vosko, Wilk & Nusair (VWN5_RPA)
    0.8100   Lee, Yang & Parr

   => LibXC Density Thresholds  <==

    XC_HYB_GGA_XC_B3LYP:  1.00E-15 

   => Molecular Quadrature <=

    Radial Scheme          =       TREUTLER
    Pruning Scheme         =           NONE
    Nuclear Scheme         =       TREUTLER

    Blocking Scheme        =         OCTREE
    BS radius alpha        =              1
    Pruning alpha          =              1
    Radial Points          =             75
    Spherical Points       =            302
    Total Points           =          42735
    Total Blocks           =            397
    Max Points             =            254
    Max Functions          =             32
    Weights Tolerance      =       1.00E-15

   => Loading Basis Set <=

    Name: (CC-PVDZ AUX)
    Role: JKFIT
    Keyword: DF_BASIS_SCF
    atoms 1 entry BE         line    96 file /Users/joseantoniorodriguesromero/anaconda3/share/psi4/basis/def2-universal-jkfit.gbs 
    atoms 2 entry CL         line   667 file /Users/joseantoniorodriguesromero/anaconda3/share/psi4/basis/cc-pvdz-jkfit.gbs 

   => Loading Basis Set <=

    Name: CC-PVDZ
    Role: ORBITAL
    Keyword: BASIS
    atoms 1 entry BE         line    75 file /Users/joseantoniorodriguesromero/anaconda3/share/psi4/basis/cc-pvdz.gbs 
    atoms 2 entry CL         line   658 file /Users/joseantoniorodriguesromero/anaconda3/share/psi4/basis/cc-pvdz.gbs 

  Reading orbitals from file /tmp/triplet_BeCl.default.74179.180.npy, no projection.

  ==> Integral Setup <==

  DFHelper Memory: AOs need 0.002 GiB; user supplied 0.328 GiB. 
  Using in-core AOs.

  ==> MemDFJK: Density-Fitted J/K Matrices <==

    J tasked:                   Yes
    K tasked:                   Yes
    wK tasked:                   No
    OpenMP threads:               1
    Memory [MiB]:               335
    Algorithm:                 Core
    Schwarz Cutoff:           1E-12
    Mask sparsity (%):       0.0000
    Fitting Condition:        1E-10

   => Auxiliary Basis Set <=

  Basis Set: (CC-PVDZ AUX)
    Blend: CC-PVDZ-JKFIT + DEF2-UNIVERSAL-JKFIT
    Number of shells: 53
    Number of basis functions: 163
    Number of Cartesian functions: 190
    Spherical Harmonics?: true
    Max angular momentum: 3

  Cached 100.0% of DFT collocation blocks in 0.038 [GiB].

  Minimum eigenvalue in the overlap matrix is 1.1021177607E-02.
  Reciprocal condition number of the overlap matrix is 3.4676912291E-03.
    Using symmetric orthogonalization.

  ==> Pre-Iterations <==

  SCF Guess: Orbitals guess was supplied from a previous computation.

   -------------------------------------------------------
    Irrep   Nso     Nmo     Nalpha   Nbeta   Ndocc  Nsocc
   -------------------------------------------------------
     A1        16      16       7       5       5       2
     A2         2       2       0       0       0       0
     B1         7       7       2       2       2       0
     B2         7       7       2       2       2       0
   -------------------------------------------------------
    Total      32      32      11       9       9       2
   -------------------------------------------------------

  ==> Iterations <==

                           Total Energy        Delta E     RMS |[F,P]|

   @DF-UKS iter   0:  -474.33300228208293   -4.74333e+02   2.39811e-02 
   @DF-UKS iter   1:  -474.40523203912124   -7.22298e-02   2.90948e-03 DIIS/ADIIS
   @DF-UKS iter   2:  -474.40541501608925   -1.82977e-04   2.90647e-03 DIIS/ADIIS/DAMP=1%
   @DF-UKS iter   3:  -474.40545337467699   -3.83586e-05   2.04911e-04 DIIS/ADIIS/DAMP=1%
   @DF-UKS iter   4:  -474.40723393666877   -1.78056e-03   5.24275e-05 DIIS/DAMP=1%
   @DF-UKS iter   5:  -474.40739825357366   -1.64317e-04   8.35150e-06 DIIS/DAMP=1%
   @DF-UKS iter   6:  -474.40738546076869    1.27928e-05   1.43585e-06 DIIS/DAMP=1%
   @DF-UKS iter   7:  -474.40738902520047   -3.56443e-06   1.91486e-07 DIIS/DAMP=1%
   @DF-UKS iter   8:  -474.40738760443776    1.42076e-06   7.32470e-09 DIIS/DAMP=1%
   @DF-UKS iter   9:  -474.40738778453073   -1.80093e-07   2.17373e-09 DIIS/DAMP=1%
   @DF-UKS iter  10:  -474.40738779037201   -5.84129e-09   2.76872e-10 DIIS/DAMP=1%
  Energy and wave function converged.


  ==> Post-Iterations <==

   Electrons on quadrature grid:
      Nalpha   =   10.9999999272 ; deviation = -7.281e-08
      Nbeta    =    9.0000000010 ; deviation = 1.003e-09
      Ntotal   =   19.9999999282 ; deviation = -7.180e-08 

   @Spin Contamination Metric:   2.598339160E-03
   @S^2 Expected:                2.000000000E+00
   @S^2 Observed:                2.002598339E+00
   @S   Expected:                1.000000000E+00
   @S   Observed:                1.000000000E+00

    Orbital Energies [Eh]
    ---------------------

    Alpha Occupied:                                                       

       1A1  -101.967848     2A1    -9.890958     3A1    -7.665673  
       1B2    -7.639125     1B1    -7.639125     4A1    -4.435202  
       5A1    -1.256704     6A1    -0.853918     2B1    -0.727717  
       2B2    -0.727717     7A1    -0.448222  

    Alpha Virtual:                                                        

       3B2    -0.294692     3B1    -0.294692     8A1    -0.155041  
       4B2    -0.057524     4B1    -0.057524     9A1    -0.048110  
      10A1    -0.007149    11A1     0.124129     5B1     0.146339  
       5B2     0.146339     1A2     0.146404    12A1     0.146404  
       6B1     0.286947     6B2     0.286947     2A2     0.417760  
      13A1     0.417761    14A1     0.440103    15A1     0.643426  
       7B2     0.674542     7B1     0.674542    16A1     1.088300  

    Beta Occupied:                                                        

       1A1  -101.960629     2A1    -9.883582     3A1    -7.643331  
       1B2    -7.634725     1B1    -7.634725     4A1    -4.418497  
       5A1    -1.199909     2B1    -0.709904     2B2    -0.709904  

    Beta Virtual:                                                         

       6A1    -0.684965     7A1    -0.303100     3B2    -0.247741  
       3B1    -0.247741     8A1    -0.133902     4B2    -0.043763  
       4B1    -0.043763     9A1     0.003801    10A1     0.033510  
       1A2     0.178265    11A1     0.178268    12A1     0.182835  
       5B1     0.211726     5B2     0.211726     6B1     0.301286  
       6B2     0.301286     2A2     0.438121    13A1     0.438123  
      14A1     0.487090    15A1     0.687653     7B2     0.729346  
       7B1     0.729346    16A1     1.127316  

    Final Occupation by Irrep:
             A1    A2    B1    B2 
    DOCC [     5,    0,    2,    2 ]
    SOCC [     2,    0,    0,    0 ]
    NA   [     7,    0,    2,    2 ]
    NB   [     5,    0,    2,    2 ]

  @DF-UKS Final Energy:  -474.40738779037201

   => Energetics <=

    Nuclear Repulsion Energy =             22.2145061816962048
    One-Electron Energy =                -690.5115589822681841
    Two-Electron Energy =                 218.7379474458766708
    DFT Exchange-Correlation Energy =     -24.8482824356766585
    Empirical Dispersion Energy =           0.0000000000000000
    VV10 Nonlocal Energy =                  0.0000000000000000
    Total Energy =                       -474.4073877903720131

  UHF NO Occupations:
  HONO-2 :    5 A1 1.9990060
  HONO-1 :    6 A1 1.0000000
  HONO-0 :    7 A1 1.0000000
  LUNO+0 :    8 A1 0.0009940
  LUNO+1 :    3 B1 0.0001525
  LUNO+2 :    3 B2 0.0001525
  LUNO+3 :    9 A1 0.0000005


Computation Completed


Properties will be evaluated at   0.000000,   0.000000,   0.000000 [a0]

Properties computed using the SCF density matrix


 Multipole Moments:

 ------------------------------------------------------------------------------------
     Multipole            Electronic (a.u.)      Nuclear  (a.u.)        Total (a.u.)
 ------------------------------------------------------------------------------------

 L = 1.  Multiply by 2.5417464519 to convert [e a0] to [Debye]
 Dipole X            :          0.0000000            0.0000000            0.0000000
 Dipole Y            :          0.0000000            0.0000000            0.0000000
 Dipole Z            :          0.9545426           -0.9278812            0.0266614
 Magnitude           :                                                    0.0266614

 ------------------------------------------------------------------------------------

*** tstop() called on Joses-MacBook-Pro-2.local at Thu Jul 17 13:25:21 2025
Module time:
	user time   =       2.33 seconds =       0.04 minutes
	system time =       5.44 seconds =       0.09 minutes
	total time  =          1 seconds =       0.02 minutes
Total time:
	user time   =      15.98 seconds =       0.27 minutes
	system time =      25.23 seconds =       0.42 minutes
	total time  =          6 seconds =       0.10 minutes

*** tstart() called on Joses-MacBook-Pro-2.local
*** at Thu Jul 17 13:25:21 2025


         ------------------------------------------------------------
                                   SCF GRAD                          
                          Rob Parrish, Justin Turney,                
                       Andy Simmonett, and Alex Sokolov              
         ------------------------------------------------------------

  ==> Geometry <==

    Molecular point group: c2v
    Full point group: C_inf_v

    Geometry (in Angstrom), charge = 1, multiplicity = 3:

       Center              X                  Y                   Z               Mass       
    ------------   -----------------  -----------------  -----------------  -----------------
         BE           0.000000000000     0.000000000000     1.287921261348     9.012183065000
         CL           0.000000000000     0.000000000000    -0.331923448737    34.968852682000

  Nuclear repulsion =   22.214506181696205

  ==> Basis Set <==

  Basis Set: CC-PVDZ
    Blend: CC-PVDZ
    Number of shells: 14
    Number of basis functions: 32
    Number of Cartesian functions: 34
    Spherical Harmonics?: true
    Max angular momentum: 2

  ==> DFJKGrad: Density-Fitted SCF Gradients <==

    Gradient:                    1
    J tasked:                  Yes
    K tasked:                  Yes
    wK tasked:                  No
    OpenMP threads:              1
    Integrals threads:           1
    Memory [MiB]:              375
    Schwarz Cutoff:          1E-12
    Fitting Condition:       1E-10

   => Auxiliary Basis Set <=

  Basis Set: (CC-PVDZ AUX)
    Blend: CC-PVDZ-JKFIT + DEF2-UNIVERSAL-JKFIT
    Number of shells: 53
    Number of basis functions: 163
    Number of Cartesian functions: 190
    Spherical Harmonics?: true
    Max angular momentum: 3

  ==> DFT Potential <==

   => LibXC <=

    Version 6.2.2
    S. Lehtola, C. Steigemann, M. J.T. Oliveira, and M. A.L. Marques.,  SoftwareX 7, 1–5 (2018) (10.1016/j.softx.2017.11.002)

   => Composite Functional: B3LYP <= 

    B3LYP Hyb-GGA Exchange-Correlation Functional

    P. J. Stephens, F. J. Devlin, C. F. Chabalowski, and M. J. Frisch.,  J. Phys. Chem. 98, 11623 (1994) (10.1021/j100096a001)

    Deriv               =              1
    GGA                 =           TRUE
    Meta                =          FALSE

    Exchange Hybrid     =           TRUE
    MP2 Hybrid          =          FALSE

   => Exchange Functionals <=

    0.0800   Slater exchange
    0.7200         Becke 88

   => Exact (HF) Exchange <=

    0.2000               HF 

   => Correlation Functionals <=

    0.1900   Vosko, Wilk & Nusair (VWN5_RPA)
    0.8100   Lee, Yang & Parr

   => LibXC Density Thresholds  <==

    XC_HYB_GGA_XC_B3LYP:  1.00E-15 

   => Molecular Quadrature <=

    Radial Scheme          =       TREUTLER
    Pruning Scheme         =           NONE
    Nuclear Scheme         =       TREUTLER

    Blocking Scheme        =         OCTREE
    BS radius alpha        =              1
    Pruning alpha          =              1
    Radial Points          =             75
    Spherical Points       =            302
    Total Points           =          42735
    Total Blocks           =            397
    Max Points             =            254
    Max Functions          =             32
    Weights Tolerance      =       1.00E-15


  -Total Gradient:
     Atom            X                  Y                   Z
    ------   -----------------  -----------------  -----------------
       1        0.000000000000     0.000000000000    -0.171740263480
       2        0.000000000000     0.000000000000     0.171720752354


*** tstop() called on Joses-MacBook-Pro-2.local at Thu Jul 17 13:25:21 2025
Module time:
	user time   =       0.63 seconds =       0.01 minutes
	system time =       1.72 seconds =       0.03 minutes
	total time  =          0 seconds =       0.00 minutes
Total time:
	user time   =      16.61 seconds =       0.28 minutes
	system time =      26.95 seconds =       0.45 minutes
	total time  =          6 seconds =       0.10 minutes

    			-----------------------------------------

    			 OPTKING 3.0: for geometry optimizations 

    			     By R.A. King, Bethel University     

    			        with contributions from          

    			    A.V. Copan, J. Cayton, A. Heide      

    			-----------------------------------------

    
	                            ===> Fragment 1 <== 

	 Z (Atomic Numbers)          Masses                          Geom                  
	       4.000000             9.012183          0.00000000  0.00000000  2.43381846   
	      17.000000            34.968853          0.00000000  0.00000000 -0.62724441   

	 - Coordinate -           - BOHR/RAD -       - ANG/DEG -
	 R(1,2)           =         3.061063           1.619845


	        --- Internal Coordinate Step in ANG or DEG, aJ/ANG or AJ/DEG ---
	-------------------------------------------------------------------------------
	           Coordinate      Previous         Force          Change          New 
	           ----------      --------        ------          ------        ------
	               R(1,2)       1.61984        1.41484        0.15152       1.77136
	-------------------------------------------------------------------------------

	                                 ==> Convergence Check <==                                  
    
	Measures of convergence in internal coordinates in au.
    
	Criteria marked as inactive (o), active & met (*), and active & unmet ( ).

	----------------------------------------------------------------------------------------------
	   Step    Total Energy     Delta E     Max Force     RMS Force      Max Disp      RMS Disp   
	----------------------------------------------------------------------------------------------
	  Convergence Criteria     1.00e-06 *    3.00e-04 *             o    1.20e-03 *             o
	----------------------------------------------------------------------------------------------
	     4    -474.40738779   -7.06e-02      1.72e-01      1.72e-01 o    2.86e-01      2.86e-01 o  ~
	----------------------------------------------------------------------------------------------

Next Geometry in Ang 
	Fragment 1 (Ang)

	   Be   0.0000000000   0.0000000000   1.3636813508
	   Cl   0.0000000000   0.0000000000  -0.4076835381


    Structure for next step:
    Molecular point group: c2v
    Full point group: C_inf_v

    Geometry (in Angstrom), charge = 1, multiplicity = 3:

    BE           0.000000000000     0.000000000000     1.408393340307
    CL           0.000000000000     0.000000000000    -0.362971548589


Scratch directory: /tmp/
gradient() will perform analytic gradient computation.
   => Libint2 <=

    Primary   basis highest AM E, G, H:  6, 6, 3
    Auxiliary basis highest AM E, G, H:  7, 7, 4
    Onebody   basis highest AM E, G, H:  -, -, -
    Solid Harmonics ordering:            Gaussian

*** tstart() called on Joses-MacBook-Pro-2.local
*** at Thu Jul 17 13:25:21 2025

   => Loading Basis Set <=

    Name: CC-PVDZ
    Role: ORBITAL
    Keyword: BASIS
    atoms 1 entry BE         line    75 file /Users/joseantoniorodriguesromero/anaconda3/share/psi4/basis/cc-pvdz.gbs 
    atoms 2 entry CL         line   658 file /Users/joseantoniorodriguesromero/anaconda3/share/psi4/basis/cc-pvdz.gbs 


         ---------------------------------------------------------
                                   SCF
               by Justin Turney, Rob Parrish, Andy Simmonett
                          and Daniel G. A. Smith
                              UKS Reference
                        1 Threads,    500 MiB Core
         ---------------------------------------------------------

  ==> Geometry <==

    Molecular point group: c2v
    Full point group: C_inf_v

    Geometry (in Angstrom), charge = 1, multiplicity = 3:

       Center              X                  Y                   Z               Mass       
    ------------   -----------------  -----------------  -----------------  -----------------
         BE           0.000000000000     0.000000000000     1.408393340307     9.012183065000
         CL           0.000000000000     0.000000000000    -0.362971548589    34.968852682000

  Running in c2v symmetry.

  Rotational constants: A = ************  B =      0.74978  C =      0.74978 [cm^-1]
  Rotational constants: A = ************  B =  22477.87229  C =  22477.87229 [MHz]
  Nuclear repulsion =   20.314307092298410

  Charge       = 1
  Multiplicity = 3
  Electrons    = 20
  Nalpha       = 11
  Nbeta        = 9

  ==> Algorithm <==

  SCF Algorithm Type is DF.
  DIIS enabled.
  MOM disabled.
  Fractional occupation disabled.
  Guess Type is READ.
  Energy threshold   = 1.00e-08
  Density threshold  = 1.00e-08
  Integral threshold = 1.00e-12

  ==> Primary Basis <==

  Basis Set: CC-PVDZ
    Blend: CC-PVDZ
    Number of shells: 14
    Number of basis functions: 32
    Number of Cartesian functions: 34
    Spherical Harmonics?: true
    Max angular momentum: 2

  ==> DFT Potential <==

   => LibXC <=

    Version 6.2.2
    S. Lehtola, C. Steigemann, M. J.T. Oliveira, and M. A.L. Marques.,  SoftwareX 7, 1–5 (2018) (10.1016/j.softx.2017.11.002)

   => Composite Functional: B3LYP <= 

    B3LYP Hyb-GGA Exchange-Correlation Functional

[...]
	-------------------------------------------------------------------------------

	                                 ==> Convergence Check <==                                  
    
	Measures of convergence in internal coordinates in au.
    
	Criteria marked as inactive (o), active & met (*), and active & unmet ( ).

	----------------------------------------------------------------------------------------------
	   Step    Total Energy     Delta E     Max Force     RMS Force      Max Disp      RMS Disp   
	----------------------------------------------------------------------------------------------
	  Convergence Criteria     1.00e-06 *    3.00e-04 *             o    1.20e-03 *             o
	----------------------------------------------------------------------------------------------
	    57    -474.49157475   -2.90e-04      2.93e-04 *    2.93e-04 o    1.95e-03      1.95e-03 o  ~
	----------------------------------------------------------------------------------------------

Next Geometry in Ang 
	Fragment 1 (Ang)

	   Be   0.0000000000   0.0000000000   3.8307848667
	   Cl   0.0000000000   0.0000000000  -0.9876545960


    Structure for next step:
    Molecular point group: c2v
    Full point group: C_inf_v

    Geometry (in Angstrom), charge = 1, multiplicity = 3:

    BE           0.000000000000     0.000000000000     3.831089851895
    CL           0.000000000000     0.000000000000    -0.987349610744


Scratch directory: /tmp/
gradient() will perform analytic gradient computation.
   => Libint2 <=

    Primary   basis highest AM E, G, H:  6, 6, 3
    Auxiliary basis highest AM E, G, H:  7, 7, 4
    Onebody   basis highest AM E, G, H:  -, -, -
    Solid Harmonics ordering:            Gaussian

*** tstart() called on Joses-MacBook-Pro-2.local
*** at Thu Jul 17 13:28:10 2025

   => Loading Basis Set <=

    Name: CC-PVDZ
    Role: ORBITAL
    Keyword: BASIS
    atoms 1 entry BE         line    75 file /Users/joseantoniorodriguesromero/anaconda3/share/psi4/basis/cc-pvdz.gbs 
    atoms 2 entry CL         line   658 file /Users/joseantoniorodriguesromero/anaconda3/share/psi4/basis/cc-pvdz.gbs 


         ---------------------------------------------------------
                                   SCF
               by Justin Turney, Rob Parrish, Andy Simmonett
                          and Daniel G. A. Smith
                              UKS Reference
                        1 Threads,    500 MiB Core
         ---------------------------------------------------------

  ==> Geometry <==

    Molecular point group: c2v
    Full point group: C_inf_v

    Geometry (in Angstrom), charge = 1, multiplicity = 3:

       Center              X                  Y                   Z               Mass       
    ------------   -----------------  -----------------  -----------------  -----------------
         BE           0.000000000000     0.000000000000     3.831089851895     9.012183065000
         CL           0.000000000000     0.000000000000    -0.987349610744    34.968852682000

  Running in c2v symmetry.

  Rotational constants: A = ************  B =      0.10133  C =      0.10133 [cm^-1]
  Rotational constants: A = ************  B =   3037.79491  C =   3037.79491 [MHz]
  Nuclear repulsion =    7.467988464848471

  Charge       = 1
  Multiplicity = 3
  Electrons    = 20
  Nalpha       = 11
  Nbeta        = 9

  ==> Algorithm <==

  SCF Algorithm Type is DF.
  DIIS enabled.
  MOM disabled.
  Fractional occupation disabled.
  Guess Type is READ.
  Energy threshold   = 1.00e-08
  Density threshold  = 1.00e-08
  Integral threshold = 1.00e-12

  ==> Primary Basis <==

  Basis Set: CC-PVDZ
    Blend: CC-PVDZ
    Number of shells: 14
    Number of basis functions: 32
    Number of Cartesian functions: 34
    Spherical Harmonics?: true
    Max angular momentum: 2

  ==> DFT Potential <==

   => LibXC <=

    Version 6.2.2
    S. Lehtola, C. Steigemann, M. J.T. Oliveira, and M. A.L. Marques.,  SoftwareX 7, 1–5 (2018) (10.1016/j.softx.2017.11.002)

   => Composite Functional: B3LYP <= 

    B3LYP Hyb-GGA Exchange-Correlation Functional

    P. J. Stephens, F. J. Devlin, C. F. Chabalowski, and M. J. Frisch.,  J. Phys. Chem. 98, 11623 (1994) (10.1021/j100096a001)

    Deriv               =              1
    GGA                 =           TRUE
    Meta                =          FALSE

    Exchange Hybrid     =           TRUE
    MP2 Hybrid          =          FALSE

   => Exchange Functionals <=

    0.0800   Slater exchange
    0.7200         Becke 88

   => Exact (HF) Exchange <=

    0.2000               HF 

   => Correlation Functionals <=

    0.1900   Vosko, Wilk & Nusair (VWN5_RPA)
    0.8100   Lee, Yang & Parr

   => LibXC Density Thresholds  <==

    XC_HYB_GGA_XC_B3LYP:  1.00E-15 

   => Molecular Quadrature <=

    Radial Scheme          =       TREUTLER
    Pruning Scheme         =           NONE
    Nuclear Scheme         =       TREUTLER

    Blocking Scheme        =         OCTREE
    BS radius alpha        =              1
    Pruning alpha          =              1
    Radial Points          =             75
    Spherical Points       =            302
    Total Points           =          42926
    Total Blocks           =            446
    Max Points             =            255
    Max Functions          =             32
    Weights Tolerance      =       1.00E-15

   => Loading Basis Set <=

    Name: (CC-PVDZ AUX)
    Role: JKFIT
    Keyword: DF_BASIS_SCF
    atoms 1 entry BE         line    96 file /Users/joseantoniorodriguesromero/anaconda3/share/psi4/basis/def2-universal-jkfit.gbs 
    atoms 2 entry CL         line   667 file /Users/joseantoniorodriguesromero/anaconda3/share/psi4/basis/cc-pvdz-jkfit.gbs 

   => Loading Basis Set <=

    Name: CC-PVDZ
    Role: ORBITAL
    Keyword: BASIS
    atoms 1 entry BE         line    75 file /Users/joseantoniorodriguesromero/anaconda3/share/psi4/basis/cc-pvdz.gbs 
    atoms 2 entry CL         line   658 file /Users/joseantoniorodriguesromero/anaconda3/share/psi4/basis/cc-pvdz.gbs 

  Reading orbitals from file /tmp/triplet_BeCl.default.74179.180.npy, no projection.

  ==> Integral Setup <==

  DFHelper Memory: AOs need 0.002 GiB; user supplied 0.334 GiB. 
  Using in-core AOs.

  ==> MemDFJK: Density-Fitted J/K Matrices <==

    J tasked:                   Yes
    K tasked:                   Yes
    wK tasked:                   No
    OpenMP threads:               1
    Memory [MiB]:               342
    Algorithm:                 Core
    Schwarz Cutoff:           1E-12
    Mask sparsity (%):       0.0000
    Fitting Condition:        1E-10

   => Auxiliary Basis Set <=

  Basis Set: (CC-PVDZ AUX)
    Blend: CC-PVDZ-JKFIT + DEF2-UNIVERSAL-JKFIT
    Number of shells: 53
    Number of basis functions: 163
    Number of Cartesian functions: 190
    Spherical Harmonics?: true
    Max angular momentum: 3

  Cached 100.0% of DFT collocation blocks in 0.032 [GiB].

  Minimum eigenvalue in the overlap matrix is 3.8407758716E-02.
  Reciprocal condition number of the overlap matrix is 1.9466018432E-02.
    Using symmetric orthogonalization.

  ==> Pre-Iterations <==

  SCF Guess: Orbitals guess was supplied from a previous computation.

   -------------------------------------------------------
    Irrep   Nso     Nmo     Nalpha   Nbeta   Ndocc  Nsocc
   -------------------------------------------------------
     A1        16      16       7       5       5       2
     A2         2       2       0       0       0       0
     B1         7       7       2       2       2       0
     B2         7       7       2       2       2       0
   -------------------------------------------------------
    Total      32      32      11       9       9       2
   -------------------------------------------------------

  ==> Iterations <==

                           Total Energy        Delta E     RMS |[F,P]|

   @DF-UKS iter   0:  -474.49157062023789   -4.74492e+02   1.06793e-06 
   @DF-UKS iter   1:  -474.49157531822124   -4.69798e-06   3.40684e-07 DIIS
   @DF-UKS iter   2:  -474.49157531823590   -1.46656e-11   2.42943e-07 DIIS/DAMP=1%
   @DF-UKS iter   3:  -474.49157522505294    9.31830e-08   1.12556e-08 DIIS/DAMP=1%
   @DF-UKS iter   4:  -474.49157530879563   -8.37427e-08   5.16052e-09 DIIS/DAMP=1%
   @DF-UKS iter   5:  -474.49157532306515   -1.42695e-08   8.35627e-10 DIIS/DAMP=1%
   @DF-UKS iter   6:  -474.49157531780565    5.25949e-09   1.63766e-10 DIIS/DAMP=1%
  Energy and wave function converged.


  ==> Post-Iterations <==

   Electrons on quadrature grid:
      Nalpha   =   10.9999981096 ; deviation = -1.890e-06
      Nbeta    =    8.9999978799 ; deviation = -2.120e-06
      Ntotal   =   19.9999959895 ; deviation = -4.010e-06 

   @Spin Contamination Metric:   1.821065278E-03
   @S^2 Expected:                2.000000000E+00
   @S^2 Observed:                2.001821065E+00
   @S   Expected:                1.000000000E+00
   @S   Observed:                1.000000000E+00

    Orbital Energies [Eh]
    ---------------------

    Alpha Occupied:                                                       

       1A1  -101.701274     2A1    -9.615420     3A1    -7.389332  
       1B2    -7.365537     1B1    -7.365537     4A1    -4.523043  
       5A1    -0.952899     6A1    -0.561438     7A1    -0.516708  
       2B1    -0.458457     2B2    -0.458457  

    Alpha Virtual:                                                        

       8A1    -0.354353     3B1    -0.354001     3B2    -0.354001  
       9A1    -0.047875     4B2    -0.046671     4B1    -0.046671  
      10A1    -0.044620    11A1     0.169977     5B2     0.170983  
       5B1     0.170983     1A2     0.171340    12A1     0.171343  
      13A1     0.405042     6B1     0.422685     6B2     0.422685  
      14A1     0.476527    15A1     0.544900     7B2     0.557051  
       7B1     0.557051     2A2     0.602503    16A1     0.602510  

    Beta Occupied:                                                        

       1A1  -101.694608     2A1    -9.608833     3A1    -7.367580  
       1B1    -7.361588     1B2    -7.361588     4A1    -4.507112  
       5A1    -0.899719     2B2    -0.442601     2B1    -0.442601  

    Beta Virtual:                                                         

       6A1    -0.423849     7A1    -0.356235     3B2    -0.286658  
       3B1    -0.286658     8A1    -0.283356     9A1    -0.028643  
       4B1    -0.026816     4B2    -0.026816    10A1    -0.013746  
      11A1     0.242102     1A2     0.242105     5B2     0.245013  
       5B1     0.245013    12A1     0.245279     6B1     0.429968  
       6B2     0.429968    13A1     0.450695    14A1     0.497687  
       2A2     0.610771    15A1     0.610776     7B2     0.614441  
       7B1     0.614441    16A1     0.623817  

    Final Occupation by Irrep:
             A1    A2    B1    B2 
    DOCC [     5,    0,    2,    2 ]
    SOCC [     2,    0,    0,    0 ]
    NA   [     7,    0,    2,    2 ]
    NB   [     5,    0,    2,    2 ]

  @DF-UKS Final Energy:  -474.49157531780565

   => Energetics <=

    Nuclear Repulsion Energy =              7.4679884648484709
    One-Electron Energy =                -665.6906289568441935
    Two-Electron Energy =                 208.5044998363281650
    DFT Exchange-Correlation Energy =     -24.7734346621380972
    Empirical Dispersion Energy =           0.0000000000000000
    VV10 Nonlocal Energy =                  0.0000000000000000
    Total Energy =                       -474.4915753178057116

  UHF NO Occupations:
  HONO-2 :    5 A1 1.9991467
  HONO-1 :    6 A1 1.0000000
  HONO-0 :    7 A1 1.0000000
  LUNO+0 :    8 A1 0.0008533
  LUNO+1 :    3 B1 0.0000288
  LUNO+2 :    3 B2 0.0000288
  LUNO+3 :    9 A1 0.0000001


Computation Completed


Properties will be evaluated at   0.000000,   0.000000,   0.000000 [a0]

Properties computed using the SCF density matrix


 Multipole Moments:

 ------------------------------------------------------------------------------------
     Multipole            Electronic (a.u.)      Nuclear  (a.u.)        Total (a.u.)
 ------------------------------------------------------------------------------------

 L = 1.  Multiply by 2.5417464519 to convert [e a0] to [Debye]
 Dipole X            :          0.0000000            0.0000000            0.0000000
 Dipole Y            :          0.0000000            0.0000000            0.0000000
 Dipole Z            :          9.9152029           -2.7601037            7.1550992
 Magnitude           :                                                    7.1550992

 ------------------------------------------------------------------------------------

*** tstop() called on Joses-MacBook-Pro-2.local at Thu Jul 17 13:28:11 2025
Module time:
	user time   =       2.92 seconds =       0.05 minutes
	system time =       3.31 seconds =       0.06 minutes
	total time  =          1 seconds =       0.02 minutes
Total time:
	user time   =     186.26 seconds =       3.10 minutes
	system time =     343.08 seconds =       5.72 minutes
	total time  =        176 seconds =       2.93 minutes

*** tstart() called on Joses-MacBook-Pro-2.local
*** at Thu Jul 17 13:28:11 2025


         ------------------------------------------------------------
                                   SCF GRAD                          
                          Rob Parrish, Justin Turney,                
                       Andy Simmonett, and Alex Sokolov              
         ------------------------------------------------------------

  ==> Geometry <==

    Molecular point group: c2v
    Full point group: C_inf_v

    Geometry (in Angstrom), charge = 1, multiplicity = 3:

       Center              X                  Y                   Z               Mass       
    ------------   -----------------  -----------------  -----------------  -----------------
         BE           0.000000000000     0.000000000000     3.831089851895     9.012183065000
         CL           0.000000000000     0.000000000000    -0.987349610744    34.968852682000

  Nuclear repulsion =    7.467988464848471

  ==> Basis Set <==

  Basis Set: CC-PVDZ
    Blend: CC-PVDZ
    Number of shells: 14
    Number of basis functions: 32
    Number of Cartesian functions: 34
    Spherical Harmonics?: true
    Max angular momentum: 2

  ==> DFJKGrad: Density-Fitted SCF Gradients <==

    Gradient:                    1
    J tasked:                  Yes
    K tasked:                  Yes
    wK tasked:                  No
    OpenMP threads:              1
    Integrals threads:           1
    Memory [MiB]:              375
    Schwarz Cutoff:          1E-12
    Fitting Condition:       1E-10

   => Auxiliary Basis Set <=

  Basis Set: (CC-PVDZ AUX)
    Blend: CC-PVDZ-JKFIT + DEF2-UNIVERSAL-JKFIT
    Number of shells: 53
    Number of basis functions: 163
    Number of Cartesian functions: 190
    Spherical Harmonics?: true
    Max angular momentum: 3

  ==> DFT Potential <==

   => LibXC <=

    Version 6.2.2
    S. Lehtola, C. Steigemann, M. J.T. Oliveira, and M. A.L. Marques.,  SoftwareX 7, 1–5 (2018) (10.1016/j.softx.2017.11.002)

   => Composite Functional: B3LYP <= 

    B3LYP Hyb-GGA Exchange-Correlation Functional

    P. J. Stephens, F. J. Devlin, C. F. Chabalowski, and M. J. Frisch.,  J. Phys. Chem. 98, 11623 (1994) (10.1021/j100096a001)

    Deriv               =              1
    GGA                 =           TRUE
    Meta                =          FALSE

    Exchange Hybrid     =           TRUE
    MP2 Hybrid          =          FALSE

   => Exchange Functionals <=

    0.0800   Slater exchange
    0.7200         Becke 88

   => Exact (HF) Exchange <=

    0.2000               HF 

   => Correlation Functionals <=

    0.1900   Vosko, Wilk & Nusair (VWN5_RPA)
    0.8100   Lee, Yang & Parr

   => LibXC Density Thresholds  <==

    XC_HYB_GGA_XC_B3LYP:  1.00E-15 

   => Molecular Quadrature <=

    Radial Scheme          =       TREUTLER
    Pruning Scheme         =           NONE
    Nuclear Scheme         =       TREUTLER

    Blocking Scheme        =         OCTREE
    BS radius alpha        =              1
    Pruning alpha          =              1
    Radial Points          =             75
    Spherical Points       =            302
    Total Points           =          42926
    Total Blocks           =            446
    Max Points             =            255
    Max Functions          =             32
    Weights Tolerance      =       1.00E-15


  -Total Gradient:
     Atom            X                  Y                   Z
    ------   -----------------  -----------------  -----------------
       1        0.000000000000    -0.000000000000    -0.000293133633
       2        0.000000000000     0.000000000000     0.000292006257


*** tstop() called on Joses-MacBook-Pro-2.local at Thu Jul 17 13:28:11 2025
Module time:
	user time   =       1.03 seconds =       0.02 minutes
	system time =       1.34 seconds =       0.02 minutes
	total time  =          0 seconds =       0.00 minutes
Total time:
	user time   =     187.29 seconds =       3.12 minutes
	system time =     344.42 seconds =       5.74 minutes
	total time  =        176 seconds =       2.93 minutes

    			-----------------------------------------

    			 OPTKING 3.0: for geometry optimizations 

    			     By R.A. King, Bethel University     

    			        with contributions from          

    			    A.V. Copan, J. Cayton, A. Heide      

    			-----------------------------------------

    
	                            ===> Fragment 1 <== 

	 Z (Atomic Numbers)          Masses                          Geom                  
	       4.000000             9.012183          0.00000000  0.00000000  7.23971058   
	      17.000000            34.968853          0.00000000  0.00000000 -1.86582035   

	 - Coordinate -           - BOHR/RAD -       - ANG/DEG -
	 R(1,2)           =         9.105531           4.818439


	        --- Internal Coordinate Step in ANG or DEG, aJ/ANG or AJ/DEG ---
	-------------------------------------------------------------------------------
	           Coordinate      Previous         Force          Change          New 
	           ----------      --------        ------          ------        ------
	               R(1,2)       4.81844        0.00241        0.00103       4.81947
	-------------------------------------------------------------------------------

	                                 ==> Convergence Check <==                                  
    
	Measures of convergence in internal coordinates in au.
    
	Criteria marked as inactive (o), active & met (*), and active & unmet ( ).

	----------------------------------------------------------------------------------------------
	   Step    Total Energy     Delta E     Max Force     RMS Force      Max Disp      RMS Disp   
	----------------------------------------------------------------------------------------------
	  Convergence Criteria     1.00e-06 *    3.00e-04 *             o    1.20e-03 *             o
	----------------------------------------------------------------------------------------------
	    58    -474.49157532   -5.73e-07 *    2.93e-04 *    2.93e-04 o    1.95e-03      1.95e-03 o  ~
	----------------------------------------------------------------------------------------------

Next Geometry in Ang 
	Fragment 1 (Ang)

	   Be   0.0000000000   0.0000000000   3.8316065927
	   Cl   0.0000000000   0.0000000000  -0.9878663515


    Final optimized geometry and variables:
    Molecular point group: c2v
    Full point group: C_inf_v

    Geometry (in Angstrom), charge = 1, multiplicity = 3:

    BE           0.000000000000     0.000000000000     3.831089851895
    CL           0.000000000000     0.000000000000    -0.987349610744


    Psi4 stopped on: Thursday, 17 July 2025 01:28PM
    Psi4 wall time for execution: 0:02:56.98

*** Psi4 exiting successfully. Buy a developer a beer!
