
    -----------------------------------------------------------------------
          Psi4: An Open-Source Ab Initio Electronic Structure Package
                               Psi4 1.9.1 release

                         Git: Rev {} zzzzzzz 


    D. G. A. Smith, L. A. Burns, A. C. Simmonett, R. M. Parrish,
    M. C. Schieber, R. Galvelis, P. Kraus, H. Kruse, R. Di Remigio,
    A. Alenaizan, A. M. James, S. Lehtola, J. P. Misiewicz, M. Scheurer,
    R. A. Shaw, J. B. Schriber, Y. Xie, Z. L. Glick, D. A. Sirianni,
    J. S. O'Brien, J. M. Waldrop, A. Kumar, E. G. Hohenstein,
    B. P. Pritchard, B. R. Brooks, H. F. Schaefer III, A. Yu. Sokolov,
    K. Patkowski, A. E. DePrince III, U. Bozkaya, R. A. King,
    F. A. Evangelista, J. M. Turney, T. D. Crawford, C. D. Sherrill,
    J. Chem. Phys. 152(18) 184108 (2020). https://doi.org/10.1063/5.0006002

                            Additional Code Authors
    E. T. Seidl, C. L. Janssen, E. F. Valeev, M. L. Leininger,
    J. F. Gonthier, R. M. Richard, H. R. McAlexander, M. Saitow, X. Wang,
    P. Verma, M. H. Lechner, A. Jiang, S. Behnle, A. G. Heide,
    M. F. Herbst, and D. L. Poole

             Previous Authors, Complete List of Code Contributors,
                       and Citations for Specific Modules
    https://github.com/psi4/psi4/blob/master/codemeta.json
    https://github.com/psi4/psi4/graphs/contributors
    http://psicode.org/psi4manual/master/introduction.html#citing-psifour

    -----------------------------------------------------------------------


    Psi4 started on: Thursday, 17 July 2025 02:46PM

    Process ID: 74883
    Host:       Joses-MacBook-Pro-2.local
    PSIDATADIR: /Users/joseantoniorodriguesromero/anaconda3/share/psi4
    Memory:     500.0 MiB
    Threads:    1
    
  ==> Input File <==

--------------------------------------------------------------------------
molecule { 
1 3
Na   0.00000        0.60000        0.00000
Mg   0.00000       -0.60000        0.00000
}

set { 
basis              cc-pvdz
reference          uks
maxiter            500
geom_maxiter       500
DAMPING_PERCENTAGE 1
guess              SAP
}

optimize('b3lyp')
--------------------------------------------------------------------------

Scratch directory: /tmp/
gradient() will perform analytic gradient computation.
   => Libint2 <=

    Primary   basis highest AM E, G, H:  6, 6, 3
    Auxiliary basis highest AM E, G, H:  7, 7, 4
    Onebody   basis highest AM E, G, H:  -, -, -
    Solid Harmonics ordering:            Gaussian

*** tstart() called on Joses-MacBook-Pro-2.local
*** at Thu Jul 17 14:46:12 2025

   => Loading Basis Set <=

    Name: CC-PVDZ
    Role: ORBITAL
    Keyword: BASIS
    atoms 1 entry NA         line   288 file /Users/joseantoniorodriguesromero/anaconda3/share/psi4/basis/cc-pvdz.gbs 
    atoms 2 entry MG         line   353 file /Users/joseantoniorodriguesromero/anaconda3/share/psi4/basis/cc-pvdz.gbs 


         ---------------------------------------------------------
                                   SCF
               by Justin Turney, Rob Parrish, Andy Simmonett
                          and Daniel G. A. Smith
                              UKS Reference
                        1 Threads,    500 MiB Core
         ---------------------------------------------------------

  ==> Geometry <==

    Molecular point group: c2v
    Full point group: C_inf_v

    Geometry (in Angstrom), charge = 1, multiplicity = 3:

       Center              X                  Y                   Z               Mass       
    ------------   -----------------  -----------------  -----------------  -----------------
         NA           0.000000000000     0.000000000000     0.612712418348    22.989769282000
         MG           0.000000000000     0.000000000000    -0.587287581652    23.985041697000

  Running in c2v symmetry.

  Rotational constants: A = ************  B =      0.99730  C =      0.99730 [cm^-1]
  Rotational constants: A = ************  B =  29898.17350  C =  29898.17350 [MHz]
  Nuclear repulsion =   58.209493173700011

  Charge       = 1
  Multiplicity = 3
  Electrons    = 22
  Nalpha       = 12
  Nbeta        = 10

  ==> Algorithm <==

  SCF Algorithm Type is DF.
  DIIS enabled.
  MOM disabled.
  Fractional occupation disabled.
  Guess Type is SAP.
  Energy threshold   = 1.00e-08
  Density threshold  = 1.00e-08
  Integral threshold = 1.00e-12

  ==> Primary Basis <==

  Basis Set: CC-PVDZ
    Blend: CC-PVDZ
    Number of shells: 16
    Number of basis functions: 36
    Number of Cartesian functions: 38
    Spherical Harmonics?: true
    Max angular momentum: 2

  ==> DFT Potential <==

   => LibXC <=

    Version 6.2.2
    S. Lehtola, C. Steigemann, M. J.T. Oliveira, and M. A.L. Marques.,  SoftwareX 7, 1–5 (2018) (10.1016/j.softx.2017.11.002)

   => Composite Functional: B3LYP <= 

    B3LYP Hyb-GGA Exchange-Correlation Functional

    P. J. Stephens, F. J. Devlin, C. F. Chabalowski, and M. J. Frisch.,  J. Phys. Chem. 98, 11623 (1994) (10.1021/j100096a001)

    Deriv               =              1
    GGA                 =           TRUE
    Meta                =          FALSE

    Exchange Hybrid     =           TRUE
    MP2 Hybrid          =          FALSE

   => Exchange Functionals <=

    0.0800   Slater exchange
    0.7200         Becke 88

   => Exact (HF) Exchange <=

    0.2000               HF 

   => Correlation Functionals <=

    0.1900   Vosko, Wilk & Nusair (VWN5_RPA)
    0.8100   Lee, Yang & Parr

   => LibXC Density Thresholds  <==

    XC_HYB_GGA_XC_B3LYP:  1.00E-15 

   => Molecular Quadrature <=

    Radial Scheme          =       TREUTLER
    Pruning Scheme         =           NONE
    Nuclear Scheme         =       TREUTLER

    Blocking Scheme        =         OCTREE
    BS radius alpha        =              1
    Pruning alpha          =              1
    Radial Points          =             75
    Spherical Points       =            302
    Total Points           =          43487
    Total Blocks           =            447
    Max Points             =            252
    Max Functions          =             36
    Weights Tolerance      =       1.00E-15

   => Loading Basis Set <=

    Name: (CC-PVDZ AUX)
    Role: JKFIT
    Keyword: DF_BASIS_SCF
    atoms 1 entry NA         line   498 file /Users/joseantoniorodriguesromero/anaconda3/share/psi4/basis/def2-universal-jkfit.gbs 
    atoms 2 entry MG         line   576 file /Users/joseantoniorodriguesromero/anaconda3/share/psi4/basis/def2-universal-jkfit.gbs 

  ==> Integral Setup <==

  DFHelper Memory: AOs need 0.003 GiB; user supplied 0.321 GiB. 
  Using in-core AOs.

  ==> MemDFJK: Density-Fitted J/K Matrices <==

    J tasked:                   Yes
    K tasked:                   Yes
    wK tasked:                   No
    OpenMP threads:               1
    Memory [MiB]:               328
    Algorithm:                 Core
    Schwarz Cutoff:           1E-12
    Mask sparsity (%):       0.0000
    Fitting Condition:        1E-10

   => Auxiliary Basis Set <=

  Basis Set: (CC-PVDZ AUX)
    Blend: DEF2-UNIVERSAL-JKFIT
    Number of shells: 68
    Number of basis functions: 224
    Number of Cartesian functions: 274
    Spherical Harmonics?: true
    Max angular momentum: 4

  Cached 100.0% of DFT collocation blocks in 0.046 [GiB].

  Minimum eigenvalue in the overlap matrix is 5.4256895323E-04.
  Reciprocal condition number of the overlap matrix is 1.4150416352E-04.
    Using symmetric orthogonalization.

  ==> Pre-Iterations <==

  SCF Guess: Superposition of Atomic Potentials (doi:10.1021/acs.jctc.8b01089).

  ==> SAP guess <==

   => Molecular Quadrature <=

    Radial Scheme          =       TREUTLER
    Pruning Scheme         =           NONE
    Nuclear Scheme         =       TREUTLER

    Blocking Scheme        =         OCTREE
    BS radius alpha        =              1
    Pruning alpha          =              1
    Radial Points          =             75
    Spherical Points       =            302
    Total Points           =          43487
    Total Blocks           =            447
    Max Points             =            252
    Max Functions          =             36
    Weights Tolerance      =       1.00E-15

   -------------------------------------------------------
    Irrep   Nso     Nmo     Nalpha   Nbeta   Ndocc  Nsocc
   -------------------------------------------------------
     A1        18      18       7       6       6       1
     A2         2       2       0       0       0       0
     B1         8       8       2       2       2       0
     B2         8       8       3       2       2       1
   -------------------------------------------------------
    Total      36      36      12      10      10       2
   -------------------------------------------------------

  ==> Iterations <==

                           Total Energy        Delta E     RMS |[F,P]|

   @DF-UKS iter   1:  -361.44416912196471   -3.61444e+02   4.86340e-03 ADIIS/DIIS
   @DF-UKS iter   2:  -361.44872495150912   -4.55583e-03   3.64777e-04 ADIIS/DIIS/DAMP=1%
   @DF-UKS iter   3:  -361.44881796318737   -9.30117e-05   5.15769e-05 DIIS/DAMP=1%
   @DF-UKS iter   4:  -361.44876752596548    5.04372e-05   8.27681e-06 DIIS/DAMP=1%
   @DF-UKS iter   5:  -361.44877289276985   -5.36680e-06   1.45176e-06 DIIS/DAMP=1%
   @DF-UKS iter   6:  -361.44877827258256   -5.37981e-06   1.34094e-07 DIIS/DAMP=1%
   @DF-UKS iter   7:  -361.44877758994340    6.82639e-07   1.64059e-08 DIIS/DAMP=1%
   @DF-UKS iter   8:  -361.44877766290460   -7.29612e-08   1.85816e-09 DIIS/DAMP=1%
   @DF-UKS iter   9:  -361.44877765793245    4.97215e-09   1.74472e-10 DIIS/DAMP=1%
  Energy and wave function converged.


  ==> Post-Iterations <==

   Electrons on quadrature grid:
      Nalpha   =   11.9999983866 ; deviation = -1.613e-06
      Nbeta    =    9.9999984283 ; deviation = -1.572e-06
      Ntotal   =   21.9999968150 ; deviation = -3.185e-06 

   @Spin Contamination Metric:   1.277501537E-05
   @S^2 Expected:                2.000000000E+00
   @S^2 Observed:                2.000012775E+00
   @S   Expected:                1.000000000E+00
   @S   Observed:                1.000000000E+00

    Orbital Energies [Eh]
    ---------------------

    Alpha Occupied:                                                       

       1A1   -47.188450     2A1   -38.925950     3A1    -3.561030  
       4A1    -2.767412     5A1    -2.267936     1B1    -2.264685  
       1B2    -2.260712     2B1    -1.632605     2B2    -1.629889  
       6A1    -1.584872     7A1    -0.482714     3B2    -0.344633  

    Alpha Virtual:                                                        

       3B1    -0.290914     8A1    -0.258447     9A1    -0.145474  
       4B2    -0.128347     4B1    -0.121092    10A1    -0.104657  
       1A2    -0.100155    11A1    -0.094651     5B2    -0.083254  
       5B1    -0.080984    12A1    -0.070393     6B2     0.007719  
      13A1     0.009731     6B1     0.010639    14A1     0.036580  
       7B2     0.090918     7B1     0.095701    15A1     0.114144  
       2A2     0.153144    16A1     0.157754     8B2     0.185109  
       8B1     0.187581    17A1     0.487284    18A1     2.009257  

    Beta Occupied:                                                        

       1A1   -47.183742     2A1   -38.922615     3A1    -3.553932  
       4A1    -2.761745     5A1    -2.263387     1B1    -2.260046  
       1B2    -2.249792     2B1    -1.629668     2B2    -1.621275  
       6A1    -1.581479  

    Beta Virtual:                                                         

       7A1    -0.370061     3B1    -0.243495     8A1    -0.234117  
       3B2    -0.216441     9A1    -0.127143     4B1    -0.106521  
       4B2    -0.096293    10A1    -0.090504     5B1    -0.068404  
      11A1    -0.063709     5B2    -0.061001     1A2    -0.044842  
      12A1    -0.043492    13A1     0.021101     6B1     0.022400  
       6B2     0.032838    14A1     0.057662     7B1     0.114706  
       7B2     0.129774    15A1     0.134493     2A2     0.204538  
      16A1     0.205812     8B1     0.207716     8B2     0.225757  
      17A1     0.509692    18A1     2.019902  

    Final Occupation by Irrep:
             A1    A2    B1    B2 
    DOCC [     6,    0,    2,    2 ]
    SOCC [     1,    0,    0,    1 ]
    NA   [     7,    0,    2,    3 ]
    NB   [     6,    0,    2,    2 ]

  @DF-UKS Final Energy:  -361.44877765793245

   => Energetics <=

    Nuclear Repulsion Energy =             58.2094931737000110
    One-Electron Energy =                -612.5183772862197884
    Two-Electron Energy =                 217.8706883268276044
    DFT Exchange-Correlation Energy =     -25.0105818722403335
    Empirical Dispersion Energy =           0.0000000000000000
    VV10 Nonlocal Energy =                  0.0000000000000000
    Total Energy =                       -361.4487776579325100

  UHF NO Occupations:
  HONO-2 :    2 B1 1.9999963
  HONO-1 :    3 B2 1.0000000
  HONO-0 :    7 A1 1.0000000
  LUNO+0 :    3 B1 0.0000037
  LUNO+1 :    4 B2 0.0000013
  LUNO+2 :    8 A1 0.0000006
  LUNO+3 :    9 A1 0.0000003


Computation Completed


Properties will be evaluated at   0.000000,   0.000000,   0.000000 [a0]

Properties computed using the SCF density matrix


 Multipole Moments:

 ------------------------------------------------------------------------------------
     Multipole            Electronic (a.u.)      Nuclear  (a.u.)        Total (a.u.)
 ------------------------------------------------------------------------------------

 L = 1.  Multiply by 2.5417464519 to convert [e a0] to [Debye]
 Dipole X            :          0.0000000            0.0000000            0.0000000
 Dipole Y            :          0.0000000            0.0000000            0.0000000
 Dipole Z            :          0.9074418           -0.5813069            0.3261349
 Magnitude           :                                                    0.3261349

 ------------------------------------------------------------------------------------

*** tstop() called on Joses-MacBook-Pro-2.local at Thu Jul 17 14:46:14 2025
Module time:
	user time   =      12.28 seconds =       0.20 minutes
	system time =       2.10 seconds =       0.04 minutes
	total time  =          2 seconds =       0.03 minutes
Total time:
	user time   =      12.28 seconds =       0.20 minutes
	system time =       2.10 seconds =       0.04 minutes
	total time  =          2 seconds =       0.03 minutes

*** tstart() called on Joses-MacBook-Pro-2.local
*** at Thu Jul 17 14:46:14 2025


         ------------------------------------------------------------
                                   SCF GRAD                          
                          Rob Parrish, Justin Turney,                
                       Andy Simmonett, and Alex Sokolov              
         ------------------------------------------------------------

  ==> Geometry <==

    Molecular point group: c2v
    Full point group: C_inf_v

    Geometry (in Angstrom), charge = 1, multiplicity = 3:

       Center              X                  Y                   Z               Mass       
    ------------   -----------------  -----------------  -----------------  -----------------
         NA           0.000000000000     0.000000000000     0.612712418348    22.989769282000
         MG           0.000000000000     0.000000000000    -0.587287581652    23.985041697000

  Nuclear repulsion =   58.209493173700011

  ==> Basis Set <==

  Basis Set: CC-PVDZ
    Blend: CC-PVDZ
    Number of shells: 16
    Number of basis functions: 36
    Number of Cartesian functions: 38
    Spherical Harmonics?: true
    Max angular momentum: 2

  ==> DFJKGrad: Density-Fitted SCF Gradients <==

    Gradient:                    1
    J tasked:                  Yes
    K tasked:                  Yes
    wK tasked:                  No
    OpenMP threads:              1
    Integrals threads:           1
    Memory [MiB]:              375
    Schwarz Cutoff:          1E-12
    Fitting Condition:       1E-10

   => Auxiliary Basis Set <=

  Basis Set: (CC-PVDZ AUX)
    Blend: DEF2-UNIVERSAL-JKFIT
    Number of shells: 68
    Number of basis functions: 224
    Number of Cartesian functions: 274
    Spherical Harmonics?: true
    Max angular momentum: 4

  ==> DFT Potential <==

   => LibXC <=

    Version 6.2.2
    S. Lehtola, C. Steigemann, M. J.T. Oliveira, and M. A.L. Marques.,  SoftwareX 7, 1–5 (2018) (10.1016/j.softx.2017.11.002)

   => Composite Functional: B3LYP <= 

    B3LYP Hyb-GGA Exchange-Correlation Functional

    P. J. Stephens, F. J. Devlin, C. F. Chabalowski, and M. J. Frisch.,  J. Phys. Chem. 98, 11623 (1994) (10.1021/j100096a001)

    Deriv               =              1
    GGA                 =           TRUE
    Meta                =          FALSE

    Exchange Hybrid     =           TRUE
    MP2 Hybrid          =          FALSE

   => Exchange Functionals <=

    0.0800   Slater exchange
    0.7200         Becke 88

   => Exact (HF) Exchange <=

    0.2000               HF 

   => Correlation Functionals <=

    0.1900   Vosko, Wilk & Nusair (VWN5_RPA)
    0.8100   Lee, Yang & Parr

   => LibXC Density Thresholds  <==

    XC_HYB_GGA_XC_B3LYP:  1.00E-15 

   => Molecular Quadrature <=

    Radial Scheme          =       TREUTLER
    Pruning Scheme         =           NONE
    Nuclear Scheme         =       TREUTLER

    Blocking Scheme        =         OCTREE
    BS radius alpha        =              1
    Pruning alpha          =              1
    Radial Points          =             75
    Spherical Points       =            302
    Total Points           =          43487
    Total Blocks           =            447
    Max Points             =            252
    Max Functions          =             36
    Weights Tolerance      =       1.00E-15


  -Total Gradient:
     Atom            X                  Y                   Z
    ------   -----------------  -----------------  -----------------
       1        0.000000000000     0.000000000000    -1.232743982173
       2        0.000000000000    -0.000000000000     1.232905133610


*** tstop() called on Joses-MacBook-Pro-2.local at Thu Jul 17 14:46:14 2025
Module time:
	user time   =       2.75 seconds =       0.05 minutes
	system time =       2.40 seconds =       0.04 minutes
	total time  =          0 seconds =       0.00 minutes
Total time:
	user time   =      15.04 seconds =       0.25 minutes
	system time =       4.51 seconds =       0.08 minutes
	total time  =          2 seconds =       0.03 minutes

    			-----------------------------------------

    			 OPTKING 3.0: for geometry optimizations 

    			     By R.A. King, Bethel University     

    			        with contributions from          

    			    A.V. Copan, J. Cayton, A. Heide      

    			-----------------------------------------

    
	                            ===> Fragment 1 <== 

	 Z (Atomic Numbers)          Masses                          Geom                  
	      11.000000            22.989769          0.00000000  0.00000000  1.15785866   
	      12.000000            23.985042          0.00000000  0.00000000 -1.10981269   

	 - Coordinate -           - BOHR/RAD -       - ANG/DEG -
	 R(1,2)           =         2.267671           1.200000


	        --- Internal Coordinate Step in ANG or DEG, aJ/ANG or AJ/DEG ---
	-------------------------------------------------------------------------------
	           Coordinate      Previous         Force          Change          New 
	           ----------      --------        ------          ------        ------
	               R(1,2)       1.20000       10.15690        0.00299       1.20299
	-------------------------------------------------------------------------------

	                                 ==> Convergence Check <==                                  
    
	Measures of convergence in internal coordinates in au.
    
	Criteria marked as inactive (o), active & met (*), and active & unmet ( ).

	----------------------------------------------------------------------------------------------
	   Step    Total Energy     Delta E     Max Force     RMS Force      Max Disp      RMS Disp   
	----------------------------------------------------------------------------------------------
	  Convergence Criteria     1.00e-06 *    3.00e-04 *             o    1.20e-03 *             o
	----------------------------------------------------------------------------------------------
	     1    -361.44877766   -3.61e+02      1.23e+00      1.23e+00 o    5.66e-03      5.66e-03 o  ~
	----------------------------------------------------------------------------------------------

Next Geometry in Ang 
	Fragment 1 (Ang)

	   Na   0.0000000000   0.0000000000   0.6142098833
	   Mg   0.0000000000   0.0000000000  -0.5887850466


    Structure for next step:
    Molecular point group: c2v
    Full point group: C_inf_v

    Geometry (in Angstrom), charge = 1, multiplicity = 3:

    NA           0.000000000000     0.000000000000     0.614241610669
    MG           0.000000000000     0.000000000000    -0.588753319301


Scratch directory: /tmp/
gradient() will perform analytic gradient computation.
   => Libint2 <=

    Primary   basis highest AM E, G, H:  6, 6, 3
    Auxiliary basis highest AM E, G, H:  7, 7, 4
    Onebody   basis highest AM E, G, H:  -, -, -
    Solid Harmonics ordering:            Gaussian

*** tstart() called on Joses-MacBook-Pro-2.local
*** at Thu Jul 17 14:46:14 2025

   => Loading Basis Set <=

    Name: CC-PVDZ
    Role: ORBITAL
    Keyword: BASIS
    atoms 1 entry NA         line   288 file /Users/joseantoniorodriguesromero/anaconda3/share/psi4/basis/cc-pvdz.gbs 
    atoms 2 entry MG         line   353 file /Users/joseantoniorodriguesromero/anaconda3/share/psi4/basis/cc-pvdz.gbs 


         ---------------------------------------------------------
                                   SCF
               by Justin Turney, Rob Parrish, Andy Simmonett
                          and Daniel G. A. Smith
                              UKS Reference
                        1 Threads,    500 MiB Core
         ---------------------------------------------------------

  ==> Geometry <==

    Molecular point group: c2v
    Full point group: C_inf_v

    Geometry (in Angstrom), charge = 1, multiplicity = 3:

       Center              X                  Y                   Z               Mass       
    ------------   -----------------  -----------------  -----------------  -----------------
         NA           0.000000000000     0.000000000000     0.614241610669    22.989769282000
         MG           0.000000000000     0.000000000000    -0.588753319301    23.985041697000

  Running in c2v symmetry.

  Rotational constants: A = ************  B =      0.99234  C =      0.99234 [cm^-1]
  Rotational constants: A = ************  B =  29749.49212  C =  29749.49212 [MHz]
  Nuclear repulsion =   58.064577055348636

  Charge       = 1
  Multiplicity = 3
  Electrons    = 22
  Nalpha       = 12
  Nbeta        = 10

  ==> Algorithm <==

  SCF Algorithm Type is DF.
  DIIS enabled.
  MOM disabled.
  Fractional occupation disabled.
  Guess Type is READ.
  Energy threshold   = 1.00e-08
  Density threshold  = 1.00e-08
  Integral threshold = 1.00e-12

  ==> Primary Basis <==

  Basis Set: CC-PVDZ
    Blend: CC-PVDZ
    Number of shells: 16
    Number of basis functions: 36
    Number of Cartesian functions: 38
    Spherical Harmonics?: true
    Max angular momentum: 2

  ==> DFT Potential <==

   => LibXC <=

    Version 6.2.2
    S. Lehtola, C. Steigemann, M. J.T. Oliveira, and M. A.L. Marques.,  SoftwareX 7, 1–5 (2018) (10.1016/j.softx.2017.11.002)

   => Composite Functional: B3LYP <= 

    B3LYP Hyb-GGA Exchange-Correlation Functional

    P. J. Stephens, F. J. Devlin, C. F. Chabalowski, and M. J. Frisch.,  J. Phys. Chem. 98, 11623 (1994) (10.1021/j100096a001)

    Deriv               =              1
    GGA                 =           TRUE
    Meta                =          FALSE

    Exchange Hybrid     =           TRUE
    MP2 Hybrid          =          FALSE

   => Exchange Functionals <=

    0.0800   Slater exchange
    0.7200         Becke 88

   => Exact (HF) Exchange <=

    0.2000               HF 

   => Correlation Functionals <=

    0.1900   Vosko, Wilk & Nusair (VWN5_RPA)
    0.8100   Lee, Yang & Parr

   => LibXC Density Thresholds  <==

    XC_HYB_GGA_XC_B3LYP:  1.00E-15 

   => Molecular Quadrature <=

    Radial Scheme          =       TREUTLER
    Pruning Scheme         =           NONE
    Nuclear Scheme         =       TREUTLER

    Blocking Scheme        =         OCTREE
    BS radius alpha        =              1
    Pruning alpha          =              1
    Radial Points          =             75
    Spherical Points       =            302
    Total Points           =          43480
    Total Blocks           =            446
    Max Points             =            252
    Max Functions          =             36
    Weights Tolerance      =       1.00E-15

   => Loading Basis Set <=

    Name: (CC-PVDZ AUX)
    Role: JKFIT
    Keyword: DF_BASIS_SCF
    atoms 1 entry NA         line   498 file /Users/joseantoniorodriguesromero/anaconda3/share/psi4/basis/def2-universal-jkfit.gbs 
    atoms 2 entry MG         line   576 file /Users/joseantoniorodriguesromero/anaconda3/share/psi4/basis/def2-universal-jkfit.gbs 

   => Loading Basis Set <=

    Name: CC-PVDZ
    Role: ORBITAL
    Keyword: BASIS
    atoms 1 entry NA         line   288 file /Users/joseantoniorodriguesromero/anaconda3/share/psi4/basis/cc-pvdz.gbs 
    atoms 2 entry MG         line   353 file /Users/joseantoniorodriguesromero/anaconda3/share/psi4/basis/cc-pvdz.gbs 

  Reading orbitals from file /tmp/triplet_NaMg.default.74883.180.npy, no projection.

  ==> Integral Setup <==

  DFHelper Memory: AOs need 0.003 GiB; user supplied 0.321 GiB. 
  Using in-core AOs.

  ==> MemDFJK: Density-Fitted J/K Matrices <==

    J tasked:                   Yes
    K tasked:                   Yes
    wK tasked:                   No
    OpenMP threads:               1
    Memory [MiB]:               328
    Algorithm:                 Core
    Schwarz Cutoff:           1E-12
    Mask sparsity (%):       0.0000
    Fitting Condition:        1E-10

   => Auxiliary Basis Set <=

  Basis Set: (CC-PVDZ AUX)
    Blend: DEF2-UNIVERSAL-JKFIT
    Number of shells: 68
    Number of basis functions: 224
    Number of Cartesian functions: 274
    Spherical Harmonics?: true
    Max angular momentum: 4

  Cached 100.0% of DFT collocation blocks in 0.046 [GiB].

  Minimum eigenvalue in the overlap matrix is 5.4329679052E-04.
  Reciprocal condition number of the overlap matrix is 1.4169478412E-04.
    Using symmetric orthogonalization.

  ==> Pre-Iterations <==

  SCF Guess: Orbitals guess was supplied from a previous computation.

   -------------------------------------------------------
    Irrep   Nso     Nmo     Nalpha   Nbeta   Ndocc  Nsocc
   -------------------------------------------------------
     A1        18      18       7       6       6       1
     A2         2       2       0       0       0       0
     B1         8       8       2       2       2       0
     B2         8       8       3       2       2       1
   -------------------------------------------------------
    Total      36      36      12      10      10       2
   -------------------------------------------------------

  ==> Iterations <==

                           Total Energy        Delta E     RMS |[F,P]|

   @DF-UKS iter   0:  -361.45788034996798   -3.61458e+02   5.84599e-04 
   @DF-UKS iter   1:  -361.45570432678153    2.17602e-03   6.25371e-05 DIIS
   @DF-UKS iter   2:  -361.45570512870512   -8.01924e-07   1.67855e-05 DIIS/DAMP=1%
   @DF-UKS iter   3:  -361.45571595335878   -1.08247e-05   7.51084e-07 DIIS/DAMP=1%
   @DF-UKS iter   4:  -361.45570521358297    1.07398e-05   1.15863e-07 DIIS/DAMP=1%
   @DF-UKS iter   5:  -361.45570520367050    9.91247e-09   1.21654e-08 DIIS/DAMP=1%
   @DF-UKS iter   6:  -361.45570517495185    2.87187e-08   1.61471e-09 DIIS/DAMP=1%
   @DF-UKS iter   7:  -361.45570517775883   -2.80698e-09   1.06641e-10 DIIS/DAMP=1%
  Energy and wave function converged.


  ==> Post-Iterations <==

   Electrons on quadrature grid:
      Nalpha   =   11.9999984042 ; deviation = -1.596e-06
      Nbeta    =    9.9999984449 ; deviation = -1.555e-06
      Ntotal   =   21.9999968491 ; deviation = -3.151e-06 

   @Spin Contamination Metric:   1.279005227E-05
   @S^2 Expected:                2.000000000E+00
   @S^2 Observed:                2.000012790E+00
   @S   Expected:                1.000000000E+00
   @S   Observed:                1.000000000E+00

    Orbital Energies [Eh]
    ---------------------

    Alpha Occupied:                                                       

       1A1   -47.188355     2A1   -38.925509     3A1    -3.559438  
       4A1    -2.765724     5A1    -2.267496     1B1    -2.263812  
       1B2    -2.259845     2B1    -1.631631     2B2    -1.628920  
       6A1    -1.585310     7A1    -0.482511     3B2    -0.344520  

    Alpha Virtual:                                                        

       3B1    -0.290798     8A1    -0.258405     9A1    -0.145484  
       4B2    -0.128360     4B1    -0.121115    10A1    -0.104645  
       1A2    -0.099973    11A1    -0.094470     5B2    -0.083248  
       5B1    -0.080975    12A1    -0.070360     6B2     0.007703  
      13A1     0.009715     6B1     0.010624    14A1     0.036652  
       7B2     0.090634     7B1     0.095415    15A1     0.113808  
       2A2     0.153069    16A1     0.157680     8B2     0.185224  
       8B1     0.187693    17A1     0.487259    18A1     2.010249  

    Beta Occupied:                                                        

       1A1   -47.183642     2A1   -38.922177     3A1    -3.552323  
       4A1    -2.760063     5A1    -2.262950     1B1    -2.259168  
       1B2    -2.248915     2B1    -1.628697     2B2    -1.620318  
       6A1    -1.581916  

    Beta Virtual:                                                         

       7A1    -0.369916     3B1    -0.243439     8A1    -0.234150  
       3B2    -0.216380     9A1    -0.127114     4B1    -0.106594  
       4B2    -0.096332    10A1    -0.090538     5B1    -0.068463  
      11A1    -0.063650     5B2    -0.061041     1A2    -0.044811  
      12A1    -0.043457    13A1     0.021133     6B1     0.022321  
       6B2     0.032782    14A1     0.057683     7B1     0.114419  
       7B2     0.129491    15A1     0.134111     2A2     0.204408  
      16A1     0.205678     8B1     0.207830     8B2     0.225869  
      17A1     0.509596    18A1     2.021002  

    Final Occupation by Irrep:
             A1    A2    B1    B2 
    DOCC [     6,    0,    2,    2 ]
    SOCC [     1,    0,    0,    1 ]
    NA   [     7,    0,    2,    3 ]
    NB   [     6,    0,    2,    2 ]

  @DF-UKS Final Energy:  -361.45570517775883

   => Energetics <=

    Nuclear Repulsion Energy =             58.0645770553486358
    One-Electron Energy =                -612.2591980748870810
    Two-Electron Energy =                 217.7473217933172407
    DFT Exchange-Correlation Energy =     -25.0084059515376147
    Empirical Dispersion Energy =           0.0000000000000000
    VV10 Nonlocal Energy =                  0.0000000000000000
    Total Energy =                       -361.4557051777587731

  UHF NO Occupations:
  HONO-2 :    2 B1 1.9999963
  HONO-1 :    3 B2 1.0000000
  HONO-0 :    7 A1 1.0000000
  LUNO+0 :    3 B1 0.0000037
  LUNO+1 :    4 B2 0.0000013
  LUNO+2 :    8 A1 0.0000006
  LUNO+3 :    9 A1 0.0000003


Computation Completed


Properties will be evaluated at   0.000000,   0.000000,   0.000000 [a0]

Properties computed using the SCF density matrix


 Multipole Moments:

 ------------------------------------------------------------------------------------
     Multipole            Electronic (a.u.)      Nuclear  (a.u.)        Total (a.u.)
 ------------------------------------------------------------------------------------

 L = 1.  Multiply by 2.5417464519 to convert [e a0] to [Debye]
 Dipole X            :          0.0000000            0.0000000            0.0000000
 Dipole Y            :          0.0000000            0.0000000            0.0000000
 Dipole Z            :          0.9095048           -0.5827577            0.3267470
 Magnitude           :                                                    0.3267470

 ------------------------------------------------------------------------------------

*** tstop() called on Joses-MacBook-Pro-2.local at Thu Jul 17 14:46:16 2025
Module time:
	user time   =       9.27 seconds =       0.15 minutes
	system time =       2.95 seconds =       0.05 minutes
	total time  =          2 seconds =       0.03 minutes
Total time:
	user time   =      24.52 seconds =       0.41 minutes
	system time =       7.52 seconds =       0.13 minutes
	total time  =          4 seconds =       0.07 minutes

*** tstart() called on Joses-MacBook-Pro-2.local
*** at Thu Jul 17 14:46:16 2025


         ------------------------------------------------------------
                                   SCF GRAD                          
                          Rob Parrish, Justin Turney,                
                       Andy Simmonett, and Alex Sokolov              
         ------------------------------------------------------------

  ==> Geometry <==

    Molecular point group: c2v
    Full point group: C_inf_v

    Geometry (in Angstrom), charge = 1, multiplicity = 3:

       Center              X                  Y                   Z               Mass       
    ------------   -----------------  -----------------  -----------------  -----------------
         NA           0.000000000000     0.000000000000     0.614241610669    22.989769282000
         MG           0.000000000000     0.000000000000    -0.588753319301    23.985041697000

  Nuclear repulsion =   58.064577055348636

  ==> Basis Set <==

  Basis Set: CC-PVDZ
    Blend: CC-PVDZ
    Number of shells: 16
    Number of basis functions: 36
    Number of Cartesian functions: 38
    Spherical Harmonics?: true
    Max angular momentum: 2

  ==> DFJKGrad: Density-Fitted SCF Gradients <==

    Gradient:                    1
    J tasked:                  Yes
    K tasked:                  Yes
    wK tasked:                  No
    OpenMP threads:              1
    Integrals threads:           1
    Memory [MiB]:              375
    Schwarz Cutoff:          1E-12
    Fitting Condition:       1E-10

   => Auxiliary Basis Set <=

  Basis Set: (CC-PVDZ AUX)
    Blend: DEF2-UNIVERSAL-JKFIT
    Number of shells: 68
    Number of basis functions: 224
    Number of Cartesian functions: 274
    Spherical Harmonics?: true
    Max angular momentum: 4

  ==> DFT Potential <==

   => LibXC <=

    Version 6.2.2
    S. Lehtola, C. Steigemann, M. J.T. Oliveira, and M. A.L. Marques.,  SoftwareX 7, 1–5 (2018) (10.1016/j.softx.2017.11.002)

   => Composite Functional: B3LYP <= 

    B3LYP Hyb-GGA Exchange-Correlation Functional

    P. J. Stephens, F. J. Devlin, C. F. Chabalowski, and M. J. Frisch.,  J. Phys. Chem. 98, 11623 (1994) (10.1021/j100096a001)

    Deriv               =              1
    GGA                 =           TRUE
    Meta                =          FALSE

    Exchange Hybrid     =           TRUE
    MP2 Hybrid          =          FALSE

   => Exchange Functionals <=

    0.0800   Slater exchange
    0.7200         Becke 88

   => Exact (HF) Exchange <=

    0.2000               HF 

   => Correlation Functionals <=

    0.1900   Vosko, Wilk & Nusair (VWN5_RPA)
    0.8100   Lee, Yang & Parr

   => LibXC Density Thresholds  <==

    XC_HYB_GGA_XC_B3LYP:  1.00E-15 

   => Molecular Quadrature <=

    Radial Scheme          =       TREUTLER
    Pruning Scheme         =           NONE
    Nuclear Scheme         =       TREUTLER

    Blocking Scheme        =         OCTREE
    BS radius alpha        =              1
    Pruning alpha          =              1
    Radial Points          =             75
    Spherical Points       =            302
    Total Points           =          43480
    Total Blocks           =            446
    Max Points             =            252
    Max Functions          =             36
    Weights Tolerance      =       1.00E-15


  -Total Gradient:
     Atom            X                  Y                   Z
    ------   -----------------  -----------------  -----------------
       1       -0.000000000000     0.000000000000    -1.215126128936
       2        0.000000000000     0.000000000000     1.215288610969


*** tstop() called on Joses-MacBook-Pro-2.local at Thu Jul 17 14:46:16 2025
Module time:
	user time   =       3.56 seconds =       0.06 minutes
	system time =       2.06 seconds =       0.03 minutes
	total time  =          0 seconds =       0.00 minutes
Total time:
	user time   =      28.08 seconds =       0.47 minutes
	system time =       9.58 seconds =       0.16 minutes
	total time  =          4 seconds =       0.07 minutes

    			-----------------------------------------

    			 OPTKING 3.0: for geometry optimizations 

    			     By R.A. King, Bethel University     

    			        with contributions from          

    			    A.V. Copan, J. Cayton, A. Heide      

    			-----------------------------------------

    
	                            ===> Fragment 1 <== 

	 Z (Atomic Numbers)          Masses                          Geom                  
	      11.000000            22.989769          0.00000000  0.00000000  1.16074842   
	      12.000000            23.985042          0.00000000  0.00000000 -1.11258253   

	 - Coordinate -           - BOHR/RAD -       - ANG/DEG -
	 R(1,2)           =         2.273331           1.202995


	        --- Internal Coordinate Step in ANG or DEG, aJ/ANG or AJ/DEG ---
	-------------------------------------------------------------------------------
	           Coordinate      Previous         Force          Change          New 
	           ----------      --------        ------          ------        ------
	               R(1,2)       1.20299       10.01176        0.00590       1.20890
	-------------------------------------------------------------------------------

	                                 ==> Convergence Check <==                                  
    
	Measures of convergence in internal coordinates in au.
    
	Criteria marked as inactive (o), active & met (*), and active & unmet ( ).

	----------------------------------------------------------------------------------------------
	   Step    Total Energy     Delta E     Max Force     RMS Force      Max Disp      RMS Disp   
	----------------------------------------------------------------------------------------------
	  Convergence Criteria     1.00e-06 *    3.00e-04 *             o    1.20e-03 *             o
	----------------------------------------------------------------------------------------------
	     2    -361.45570518   -6.93e-03      1.22e+00      1.22e+00 o    1.12e-02      1.12e-02 o  ~
	----------------------------------------------------------------------------------------------

Next Geometry in Ang 
	Fragment 1 (Ang)

	   Na   0.0000000000   0.0000000000   0.6171934699
	   Mg   0.0000000000   0.0000000000  -0.5917051785


    Structure for next step:
    Molecular point group: c2v
    Full point group: C_inf_v

    Geometry (in Angstrom), charge = 1, multiplicity = 3:

    NA           0.000000000000     0.000000000000     0.617256012014
    MG           0.000000000000     0.000000000000    -0.591642636415


Scratch directory: /tmp/
gradient() will perform analytic gradient computation.
   => Libint2 <=

    Primary   basis highest AM E, G, H:  6, 6, 3
    Auxiliary basis highest AM E, G, H:  7, 7, 4
    Onebody   basis highest AM E, G, H:  -, -, -
    Solid Harmonics ordering:            Gaussian

*** tstart() called on Joses-MacBook-Pro-2.local
*** at Thu Jul 17 14:46:16 2025

   => Loading Basis Set <=

    Name: CC-PVDZ
    Role: ORBITAL
    Keyword: BASIS
    atoms 1 entry NA         line   288 file /Users/joseantoniorodriguesromero/anaconda3/share/psi4/basis/cc-pvdz.gbs 
    atoms 2 entry MG         line   353 file /Users/joseantoniorodriguesromero/anaconda3/share/psi4/basis/cc-pvdz.gbs 


         ---------------------------------------------------------
                                   SCF
               by Justin Turney, Rob Parrish, Andy Simmonett
                          and Daniel G. A. Smith
                              UKS Reference
                        1 Threads,    500 MiB Core
         ---------------------------------------------------------

  ==> Geometry <==

    Molecular point group: c2v
    Full point group: C_inf_v

    Geometry (in Angstrom), charge = 1, multiplicity = 3:

       Center              X                  Y                   Z               Mass       
    ------------   -----------------  -----------------  -----------------  -----------------
         NA           0.000000000000     0.000000000000     0.617256012014    22.989769282000
         MG           0.000000000000     0.000000000000    -0.591642636415    23.985041697000

  Running in c2v symmetry.

  Rotational constants: A = ************  B =      0.98267  C =      0.98267 [cm^-1]
  Rotational constants: A = ************  B =  29459.63528  C =  29459.63528 [MHz]
  Nuclear repulsion =   57.781015719719704

  Charge       = 1
  Multiplicity = 3
  Electrons    = 22
  Nalpha       = 12
  Nbeta        = 10

  ==> Algorithm <==

  SCF Algorithm Type is DF.
  DIIS enabled.
  MOM disabled.
  Fractional occupation disabled.
  Guess Type is READ.
  Energy threshold   = 1.00e-08
  Density threshold  = 1.00e-08
  Integral threshold = 1.00e-12

  ==> Primary Basis <==

  Basis Set: CC-PVDZ
    Blend: CC-PVDZ
    Number of shells: 16
    Number of basis functions: 36
    Number of Cartesian functions: 38
    Spherical Harmonics?: true
    Max angular momentum: 2

  ==> DFT Potential <==

   => LibXC <=

    Version 6.2.2
    S. Lehtola, C. Steigemann, M. J.T. Oliveira, and M. A.L. Marques.,  SoftwareX 7, 1–5 (2018) (10.1016/j.softx.2017.11.002)

   => Composite Functional: B3LYP <= 

    B3LYP Hyb-GGA Exchange-Correlation Functional

    P. J. Stephens, F. J. Devlin, C. F. Chabalowski, and M. J. Frisch.,  J. Phys. Chem. 98, 11623 (1994) (10.1021/j100096a001)

    Deriv               =              1
    GGA                 =           TRUE
    Meta                =          FALSE

    Exchange Hybrid     =           TRUE
    MP2 Hybrid          =          FALSE

   => Exchange Functionals <=

    0.0800   Slater exchange
    0.7200         Becke 88

   => Exact (HF) Exchange <=

    0.2000               HF 

   => Correlation Functionals <=

    0.1900   Vosko, Wilk & Nusair (VWN5_RPA)
    0.8100   Lee, Yang & Parr

   => LibXC Density Thresholds  <==

    XC_HYB_GGA_XC_B3LYP:  1.00E-15 

   => Molecular Quadrature <=

    Radial Scheme          =       TREUTLER
    Pruning Scheme         =           NONE
    Nuclear Scheme         =       TREUTLER

    Blocking Scheme        =         OCTREE
    BS radius alpha        =              1
    Pruning alpha          =              1
    Radial Points          =             75
    Spherical Points       =            302
    Total Points           =          43491
    Total Blocks           =            446
    Max Points             =            252
    Max Functions          =             36
    Weights Tolerance      =       1.00E-15

   => Loading Basis Set <=

    Name: (CC-PVDZ AUX)
    Role: JKFIT
    Keyword: DF_BASIS_SCF
    atoms 1 entry NA         line   498 file /Users/joseantoniorodriguesromero/anaconda3/share/psi4/basis/def2-universal-jkfit.gbs 
    atoms 2 entry MG         line   576 file /Users/joseantoniorodriguesromero/anaconda3/share/psi4/basis/def2-universal-jkfit.gbs 

   => Loading Basis Set <=

    Name: CC-PVDZ
    Role: ORBITAL
    Keyword: BASIS
    atoms 1 entry NA         line   288 file /Users/joseantoniorodriguesromero/anaconda3/share/psi4/basis/cc-pvdz.gbs 
    atoms 2 entry MG         line   353 file /Users/joseantoniorodriguesromero/anaconda3/share/psi4/basis/cc-pvdz.gbs 

  Reading orbitals from file /tmp/triplet_NaMg.default.74883.180.npy, no projection.

  ==> Integral Setup <==

  DFHelper Memory: AOs need 0.003 GiB; user supplied 0.321 GiB. 
  Using in-core AOs.

  ==> MemDFJK: Density-Fitted J/K Matrices <==

    J tasked:                   Yes
    K tasked:                   Yes
    wK tasked:                   No
    OpenMP threads:               1
    Memory [MiB]:               328
    Algorithm:                 Core
    Schwarz Cutoff:           1E-12
    Mask sparsity (%):       0.0000
    Fitting Condition:        1E-10

   => Auxiliary Basis Set <=

  Basis Set: (CC-PVDZ AUX)
    Blend: DEF2-UNIVERSAL-JKFIT
    Number of shells: 68
    Number of basis functions: 224
    Number of Cartesian functions: 274
    Spherical Harmonics?: true
    Max angular momentum: 4

  Cached 100.0% of DFT collocation blocks in 0.046 [GiB].

  Minimum eigenvalue in the overlap matrix is 5.4477593066E-04.
  Reciprocal condition number of the overlap matrix is 1.4208215458E-04.
    Using symmetric orthogonalization.

  ==> Pre-Iterations <==

  SCF Guess: Orbitals guess was supplied from a previous computation.

   -------------------------------------------------------
    Irrep   Nso     Nmo     Nalpha   Nbeta   Ndocc  Nsocc
   -------------------------------------------------------
     A1        18      18       7       6       6       1
     A2         2       2       0       0       0       0
     B1         8       8       2       2       2       0
     B2         8       8       3       2       2       1
   -------------------------------------------------------
    Total      36      36      12      10      10       2
   -------------------------------------------------------

  ==> Iterations <==

                           Total Energy        Delta E     RMS |[F,P]|

   @DF-UKS iter   0:  -361.47334357119269   -3.61473e+02   1.13392e-03 
   @DF-UKS iter   1:  -361.46906969047154    4.27388e-03   1.20996e-04 ADIIS/DIIS
   @DF-UKS iter   2:  -361.46907269484387   -3.00437e-06   3.24167e-05 DIIS/DAMP=1%
   @DF-UKS iter   3:  -361.46909368903226   -2.09942e-05   1.45622e-06 DIIS/DAMP=1%
   @DF-UKS iter   4:  -361.46907295085265    2.07382e-05   2.24829e-07 DIIS/DAMP=1%
   @DF-UKS iter   5:  -361.46907292735858    2.34941e-08   2.39041e-08 DIIS/DAMP=1%
   @DF-UKS iter   6:  -361.46907287163759    5.57210e-08   3.16900e-09 DIIS/DAMP=1%
   @DF-UKS iter   7:  -361.46907287710195   -5.46436e-09   2.07048e-10 DIIS/DAMP=1%
  Energy and wave function converged.


  ==> Post-Iterations <==

   Electrons on quadrature grid:
      Nalpha   =   11.9999984582 ; deviation = -1.542e-06
      Nbeta    =    9.9999984967 ; deviation = -1.503e-06
      Ntotal   =   21.9999969549 ; deviation = -3.045e-06 

   @Spin Contamination Metric:   1.282131067E-05
   @S^2 Expected:                2.000000000E+00
   @S^2 Observed:                2.000012821E+00
   @S   Expected:                1.000000000E+00
   @S   Observed:                1.000000000E+00

    Orbital Energies [Eh]
    ---------------------

    Alpha Occupied:                                                       

       1A1   -47.188153     2A1   -38.924632     3A1    -3.556360  
       4A1    -2.762415     5A1    -2.266616     1B1    -2.262110  
       1B2    -2.258151     2B1    -1.629715     2B2    -1.627014  
       6A1    -1.586102     7A1    -0.482114     3B2    -0.344297  

    Alpha Virtual:                                                        

       3B1    -0.290569     8A1    -0.258320     9A1    -0.145506  
       4B2    -0.128385     4B1    -0.121160    10A1    -0.104622  
       1A2    -0.099613    11A1    -0.094113     5B2    -0.083235  
       5B1    -0.080957    12A1    -0.070295     6B2     0.007673  
      13A1     0.009682     6B1     0.010594    14A1     0.036793  
       7B2     0.090077     7B1     0.094854    15A1     0.113153  
       2A2     0.152922    16A1     0.157534     8B2     0.185456  
       8B1     0.187920    17A1     0.487154    18A1     2.012025  

    Beta Occupied:                                                        

       1A1   -47.183431     2A1   -38.921305     3A1    -3.549212  
       4A1    -2.756765     5A1    -2.262075     1B1    -2.257456  
       1B2    -2.247204     2B1    -1.626788     2B2    -1.618436  
       6A1    -1.582706  

    Beta Virtual:                                                         

       7A1    -0.369629     3B1    -0.243302     8A1    -0.234241  
       3B2    -0.216284     9A1    -0.127074     4B1    -0.106747  
       4B2    -0.096444    10A1    -0.090578     5B1    -0.068550  
      11A1    -0.063542     5B2    -0.061134     1A2    -0.044788  
      12A1    -0.043366    13A1     0.021169     6B1     0.022150  
       6B2     0.032625    14A1     0.057739     7B1     0.113785  
       7B2     0.128887    15A1     0.133406     2A2     0.204109  
      16A1     0.205414     8B1     0.208114     8B2     0.226100  
      17A1     0.509319    18A1     2.022997  

    Final Occupation by Irrep:
             A1    A2    B1    B2 
    DOCC [     6,    0,    2,    2 ]
    SOCC [     1,    0,    0,    1 ]
    NA   [     7,    0,    2,    3 ]
    NB   [     6,    0,    2,    2 ]

  @DF-UKS Final Energy:  -361.46907287710195

   => Energetics <=

    Nuclear Repulsion Energy =             57.7810157197197043
    One-Electron Energy =                -611.7518445247289947
    Two-Electron Energy =                 217.5059423465379211
    DFT Exchange-Correlation Energy =     -25.0041864186305460
    Empirical Dispersion Energy =           0.0000000000000000
    VV10 Nonlocal Energy =                  0.0000000000000000
    Total Energy =                       -361.4690728771018939

  UHF NO Occupations:
  HONO-2 :    2 B1 1.9999963
  HONO-1 :    3 B2 1.0000000
  HONO-0 :    7 A1 1.0000000
  LUNO+0 :    3 B1 0.0000037
  LUNO+1 :    4 B2 0.0000013
  LUNO+2 :    8 A1 0.0000006
  LUNO+3 :    9 A1 0.0000003


Computation Completed


Properties will be evaluated at   0.000000,   0.000000,   0.000000 [a0]

Properties computed using the SCF density matrix


 Multipole Moments:

 ------------------------------------------------------------------------------------
     Multipole            Electronic (a.u.)      Nuclear  (a.u.)        Total (a.u.)
 ------------------------------------------------------------------------------------

 L = 1.  Multiply by 2.5417464519 to convert [e a0] to [Debye]
 Dipole X            :          0.0000000            0.0000000            0.0000000
 Dipole Y            :          0.0000000            0.0000000            0.0000000
 Dipole Z            :          0.9135506           -0.5856176            0.3279330
 Magnitude           :                                                    0.3279330

 ------------------------------------------------------------------------------------

*** tstop() called on Joses-MacBook-Pro-2.local at Thu Jul 17 14:46:18 2025
Module time:
	user time   =      11.86 seconds =       0.20 minutes
	system time =       2.63 seconds =       0.04 minutes
	total time  =          2 seconds =       0.03 minutes
Total time:
	user time   =      40.14 seconds =       0.67 minutes
	system time =      12.24 seconds =       0.20 minutes
	total time  =          6 seconds =       0.10 minutes

*** tstart() called on Joses-MacBook-Pro-2.local
*** at Thu Jul 17 14:46:18 2025


         ------------------------------------------------------------
                                   SCF GRAD                          
                          Rob Parrish, Justin Turney,                
                       Andy Simmonett, and Alex Sokolov              
         ------------------------------------------------------------

  ==> Geometry <==

    Molecular point group: c2v
    Full point group: C_inf_v

    Geometry (in Angstrom), charge = 1, multiplicity = 3:

       Center              X                  Y                   Z               Mass       
    ------------   -----------------  -----------------  -----------------  -----------------
         NA           0.000000000000     0.000000000000     0.617256012014    22.989769282000
         MG           0.000000000000     0.000000000000    -0.591642636415    23.985041697000

  Nuclear repulsion =   57.781015719719704

  ==> Basis Set <==

  Basis Set: CC-PVDZ
    Blend: CC-PVDZ
    Number of shells: 16
    Number of basis functions: 36
    Number of Cartesian functions: 38
    Spherical Harmonics?: true
    Max angular momentum: 2

  ==> DFJKGrad: Density-Fitted SCF Gradients <==

    Gradient:                    1
    J tasked:                  Yes
    K tasked:                  Yes
    wK tasked:                  No
    OpenMP threads:              1
    Integrals threads:           1
    Memory [MiB]:              375
    Schwarz Cutoff:          1E-12
    Fitting Condition:       1E-10

   => Auxiliary Basis Set <=

  Basis Set: (CC-PVDZ AUX)
    Blend: DEF2-UNIVERSAL-JKFIT
    Number of shells: 68
    Number of basis functions: 224
    Number of Cartesian functions: 274
    Spherical Harmonics?: true
    Max angular momentum: 4

  ==> DFT Potential <==

   => LibXC <=

    Version 6.2.2
    S. Lehtola, C. Steigemann, M. J.T. Oliveira, and M. A.L. Marques.,  SoftwareX 7, 1–5 (2018) (10.1016/j.softx.2017.11.002)

   => Composite Functional: B3LYP <= 

    B3LYP Hyb-GGA Exchange-Correlation Functional

    P. J. Stephens, F. J. Devlin, C. F. Chabalowski, and M. J. Frisch.,  J. Phys. Chem. 98, 11623 (1994) (10.1021/j100096a001)

    Deriv               =              1
    GGA                 =           TRUE
    Meta                =          FALSE

    Exchange Hybrid     =           TRUE
    MP2 Hybrid          =          FALSE

   => Exchange Functionals <=

    0.0800   Slater exchange
    0.7200         Becke 88

   => Exact (HF) Exchange <=

    0.2000               HF 

   => Correlation Functionals <=

    0.1900   Vosko, Wilk & Nusair (VWN5_RPA)
    0.8100   Lee, Yang & Parr

   => LibXC Density Thresholds  <==

    XC_HYB_GGA_XC_B3LYP:  1.00E-15 

   => Molecular Quadrature <=

    Radial Scheme          =       TREUTLER
    Pruning Scheme         =           NONE
    Nuclear Scheme         =       TREUTLER

    Blocking Scheme        =         OCTREE
    BS radius alpha        =              1
    Pruning alpha          =              1
    Radial Points          =             75
    Spherical Points       =            302
    Total Points           =          43491
    Total Blocks           =            446
    Max Points             =            252
    Max Functions          =             36
    Weights Tolerance      =       1.00E-15


  -Total Gradient:
     Atom            X                  Y                   Z
    ------   -----------------  -----------------  -----------------
       1        0.000000000000     0.000000000000    -1.181255669932
       2        0.000000000000    -0.000000000000     1.181411794992


*** tstop() called on Joses-MacBook-Pro-2.local at Thu Jul 17 14:46:19 2025
Module time:
	user time   =       7.64 seconds =       0.13 minutes
	system time =       1.47 seconds =       0.02 minutes
	total time  =          1 seconds =       0.02 minutes
Total time:
	user time   =      47.78 seconds =       0.80 minutes
	system time =      13.72 seconds =       0.23 minutes
	total time  =          7 seconds =       0.12 minutes

    			-----------------------------------------

    			 OPTKING 3.0: for geometry optimizations 

    			     By R.A. King, Bethel University     

    			        with contributions from          

    			    A.V. Copan, J. Cayton, A. Heide      

    			-----------------------------------------

    
	                            ===> Fragment 1 <== 

	 Z (Atomic Numbers)          Masses                          Geom                  
	      11.000000            22.989769          0.00000000  0.00000000  1.16644481   
	      12.000000            23.985042          0.00000000  0.00000000 -1.11804255   

	 - Coordinate -           - BOHR/RAD -       - ANG/DEG -
	 R(1,2)           =         2.284487           1.208899


	        --- Internal Coordinate Step in ANG or DEG, aJ/ANG or AJ/DEG ---
	-------------------------------------------------------------------------------
	           Coordinate      Previous         Force          Change          New 
	           ----------      --------        ------          ------        ------
	               R(1,2)       1.20890        9.73268        0.02292       1.23182
	-------------------------------------------------------------------------------

	                                 ==> Convergence Check <==                                  
    
	Measures of convergence in internal coordinates in au.
    
	Criteria marked as inactive (o), active & met (*), and active & unmet ( ).

	----------------------------------------------------------------------------------------------
	   Step    Total Energy     Delta E     Max Force     RMS Force      Max Disp      RMS Disp   
	----------------------------------------------------------------------------------------------
	  Convergence Criteria     1.00e-06 *    3.00e-04 *             o    1.20e-03 *             o
	----------------------------------------------------------------------------------------------
	     3    -361.46907288   -1.34e-02      1.18e+00      1.18e+00 o    4.33e-02      4.33e-02 o  ~
	----------------------------------------------------------------------------------------------

Next Geometry in Ang 
	Fragment 1 (Ang)

	   Na   0.0000000000   0.0000000000   0.6287142191
	   Mg   0.0000000000   0.0000000000  -0.6031008435


    Structure for next step:
    Molecular point group: c2v
    Full point group: C_inf_v

    Geometry (in Angstrom), charge = 1, multiplicity = 3:

    NA           0.000000000000     0.000000000000     0.628956988311
    MG           0.000000000000     0.000000000000    -0.602858074305


Scratch directory: /tmp/
gradient() will perform analytic gradient computation.
   => Libint2 <=

    Primary   basis highest AM E, G, H:  6, 6, 3
    Auxiliary basis highest AM E, G, H:  7, 7, 4
    Onebody   basis highest AM E, G, H:  -, -, -
    Solid Harmonics ordering:            Gaussian

*** tstart() called on Joses-MacBook-Pro-2.local
*** at Thu Jul 17 14:46:19 2025

   => Loading Basis Set <=

    Name: CC-PVDZ
    Role: ORBITAL
    Keyword: BASIS
    atoms 1 entry NA         line   288 file /Users/joseantoniorodriguesromero/anaconda3/share/psi4/basis/cc-pvdz.gbs 
    atoms 2 entry MG         line   353 file /Users/joseantoniorodriguesromero/anaconda3/share/psi4/basis/cc-pvdz.gbs 


         ---------------------------------------------------------
                                   SCF
               by Justin Turney, Rob Parrish, Andy Simmonett
                          and Daniel G. A. Smith
                              UKS Reference
                        1 Threads,    500 MiB Core
         ---------------------------------------------------------

  ==> Geometry <==

    Molecular point group: c2v
    Full point group: C_inf_v

    Geometry (in Angstrom), charge = 1, multiplicity = 3:

       Center              X                  Y                   Z               Mass       
    ------------   -----------------  -----------------  -----------------  -----------------
         NA           0.000000000000     0.000000000000     0.628956988311    22.989769282000
         MG           0.000000000000     0.000000000000    -0.602858074305    23.985041697000

  Running in c2v symmetry.

  Rotational constants: A = ************  B =      0.94645  C =      0.94645 [cm^-1]
  Rotational constants: A = ************  B =  28373.71024  C =  28373.71024 [MHz]
  Nuclear repulsion =   56.706070520114665

  Charge       = 1
  Multiplicity = 3
  Electrons    = 22
  Nalpha       = 12
  Nbeta        = 10

  ==> Algorithm <==

  SCF Algorithm Type is DF.
  DIIS enabled.
  MOM disabled.
  Fractional occupation disabled.
  Guess Type is READ.
  Energy threshold   = 1.00e-08
  Density threshold  = 1.00e-08
  Integral threshold = 1.00e-12

  ==> Primary Basis <==

  Basis Set: CC-PVDZ
    Blend: CC-PVDZ
    Number of shells: 16
    Number of basis functions: 36
    Number of Cartesian functions: 38
    Spherical Harmonics?: true
    Max angular momentum: 2

  ==> DFT Potential <==

   => LibXC <=

    Version 6.2.2
    S. Lehtola, C. Steigemann, M. J.T. Oliveira, and M. A.L. Marques.,  SoftwareX 7, 1–5 (2018) (10.1016/j.softx.2017.11.002)

   => Composite Functional: B3LYP <= 

    B3LYP Hyb-GGA Exchange-Correlation Functional

    P. J. Stephens, F. J. Devlin, C. F. Chabalowski, and M. J. Frisch.,  J. Phys. Chem. 98, 11623 (1994) (10.1021/j100096a001)

    Deriv               =              1
    GGA                 =           TRUE
    Meta                =          FALSE

    Exchange Hybrid     =           TRUE
    MP2 Hybrid          =          FALSE

   => Exchange Functionals <=

    0.0800   Slater exchange
    0.7200         Becke 88

   => Exact (HF) Exchange <=

    0.2000               HF 

   => Correlation Functionals <=

    0.1900   Vosko, Wilk & Nusair (VWN5_RPA)
    0.8100   Lee, Yang & Parr

   => LibXC Density Thresholds  <==

    XC_HYB_GGA_XC_B3LYP:  1.00E-15 

   => Molecular Quadrature <=

    Radial Scheme          =       TREUTLER
    Pruning Scheme         =           NONE
    Nuclear Scheme         =       TREUTLER

    Blocking Scheme        =         OCTREE
    BS radius alpha        =              1
    Pruning alpha          =              1
    Radial Points          =             75
    Spherical Points       =            302
    Total Points           =          43494
    Total Blocks           =            448
    Max Points             =            255
    Max Functions          =             36
    Weights Tolerance      =       1.00E-15

   => Loading Basis Set <=

    Name: (CC-PVDZ AUX)
    Role: JKFIT
    Keyword: DF_BASIS_SCF
    atoms 1 entry NA         line   498 file /Users/joseantoniorodriguesromero/anaconda3/share/psi4/basis/def2-universal-jkfit.gbs 
    atoms 2 entry MG         line   576 file /Users/joseantoniorodriguesromero/anaconda3/share/psi4/basis/def2-universal-jkfit.gbs 

   => Loading Basis Set <=

    Name: CC-PVDZ
    Role: ORBITAL
    Keyword: BASIS
    atoms 1 entry NA         line   288 file /Users/joseantoniorodriguesromero/anaconda3/share/psi4/basis/cc-pvdz.gbs 
    atoms 2 entry MG         line   353 file /Users/joseantoniorodriguesromero/anaconda3/share/psi4/basis/cc-pvdz.gbs 

  Reading orbitals from file /tmp/triplet_NaMg.default.74883.180.npy, no projection.

  ==> Integral Setup <==

  DFHelper Memory: AOs need 0.003 GiB; user supplied 0.321 GiB. 
  Using in-core AOs.

  ==> MemDFJK: Density-Fitted J/K Matrices <==

    J tasked:                   Yes
    K tasked:                   Yes
    wK tasked:                   No
    OpenMP threads:               1
    Memory [MiB]:               328
    Algorithm:                 Core
    Schwarz Cutoff:           1E-12
    Mask sparsity (%):       0.0000
    Fitting Condition:        1E-10

   => Auxiliary Basis Set <=

  Basis Set: (CC-PVDZ AUX)
    Blend: DEF2-UNIVERSAL-JKFIT
    Number of shells: 68
    Number of basis functions: 224
    Number of Cartesian functions: 274
    Spherical Harmonics?: true
    Max angular momentum: 4

  Cached 100.0% of DFT collocation blocks in 0.046 [GiB].

  Minimum eigenvalue in the overlap matrix is 5.5105934714E-04.
  Reciprocal condition number of the overlap matrix is 1.4372754485E-04.
    Using symmetric orthogonalization.

  ==> Pre-Iterations <==

  SCF Guess: Orbitals guess was supplied from a previous computation.

   -------------------------------------------------------
    Irrep   Nso     Nmo     Nalpha   Nbeta   Ndocc  Nsocc
   -------------------------------------------------------
     A1        18      18       7       6       6       1
     A2         2       2       0       0       0       0
     B1         8       8       2       2       2       0
     B2         8       8       3       2       2       1
   -------------------------------------------------------
    Total      36      36      12      10      10       2
   -------------------------------------------------------

  ==> Iterations <==

                           Total Energy        Delta E     RMS |[F,P]|

   @DF-UKS iter   0:  -361.53450386938152   -3.61535e+02   4.18582e-03 
   @DF-UKS iter   1:  -361.51750341905102    1.70005e-02   4.44995e-04 ADIIS/DIIS
   @DF-UKS iter   2:  -361.51754431700056   -4.08979e-05   1.18291e-04 ADIIS/DIIS/DAMP=1%
   @DF-UKS iter   3:  -361.51762270230432   -7.83853e-05   5.39316e-06 DIIS/DAMP=1%
   @DF-UKS iter   4:  -361.51754707396833    7.56283e-05   8.38152e-07 DIIS/DAMP=1%
   @DF-UKS iter   5:  -361.51754693519285    1.38775e-07   9.19943e-08 DIIS/DAMP=1%
   @DF-UKS iter   6:  -361.51754672619518    2.08998e-07   1.19653e-08 DIIS/DAMP=1%
   @DF-UKS iter   7:  -361.51754674573186   -1.95367e-08   7.78748e-10 DIIS/DAMP=1%
   @DF-UKS iter   8:  -361.51754674174521    3.98666e-09   6.89305e-11 DIIS/DAMP=1%
  Energy and wave function converged.


  ==> Post-Iterations <==

   Electrons on quadrature grid:
      Nalpha   =   11.9999989014 ; deviation = -1.099e-06
      Nbeta    =    9.9999989280 ; deviation = -1.072e-06
      Ntotal   =   21.9999978294 ; deviation = -2.171e-06 

   @Spin Contamination Metric:   1.293160631E-05
   @S^2 Expected:                2.000000000E+00
   @S^2 Observed:                2.000012932E+00
   @S   Expected:                1.000000000E+00
   @S   Observed:                1.000000000E+00

    Orbital Energies [Eh]
    ---------------------

    Alpha Occupied:                                                       

       1A1   -47.187185     2A1   -38.921127     3A1    -3.545121  
       4A1    -2.749819     5A1    -2.263028     1B1    -2.255701  
       1B2    -2.251777     2B1    -1.622330     2B2    -1.619670  
       6A1    -1.588356     7A1    -0.480617     3B2    -0.343438  

    Alpha Virtual:                                                        

       3B1    -0.289684     8A1    -0.257991     9A1    -0.145613  
       4B2    -0.128473     4B1    -0.121320    10A1    -0.104530  
       1A2    -0.098202    11A1    -0.092711     5B2    -0.083185  
       5B1    -0.080887    12A1    -0.070049     6B2     0.007551  
      13A1     0.009537     6B1     0.010476    14A1     0.037306  
       7B2     0.087964     7B1     0.092721    15A1     0.110696  
       2A2     0.152351    16A1     0.156966     8B2     0.186426  
       8B1     0.188881    17A1     0.486075    18A1     2.016656  

    Beta Occupied:                                                        

       1A1   -47.182425     2A1   -38.917821     3A1    -3.537850  
       4A1    -2.744211     5A1    -2.258503     1B1    -2.251014  
       1B2    -2.240764     2B1    -1.619430     2B2    -1.611186  
       6A1    -1.584950  

    Beta Virtual:                                                         

       7A1    -0.368417     3B1    -0.242630     8A1    -0.234088  
       3B2    -0.215707     9A1    -0.126790     4B1    -0.107063  
       4B2    -0.096753    10A1    -0.090696     5B1    -0.068639  
      11A1    -0.063058     5B2    -0.061261     1A2    -0.044074  
      12A1    -0.042700    13A1     0.021084     6B1     0.021783  
       6B2     0.032210    14A1     0.058315     7B1     0.111449  
       7B2     0.126528    15A1     0.130967     2A2     0.203402  
      16A1     0.204659     8B1     0.209100     8B2     0.227015  
      17A1     0.507824    18A1     2.028012  

    Final Occupation by Irrep:
             A1    A2    B1    B2 
    DOCC [     6,    0,    2,    2 ]
    SOCC [     1,    0,    0,    1 ]
    NA   [     7,    0,    2,    3 ]
    NB   [     6,    0,    2,    2 ]

  @DF-UKS Final Energy:  -361.51754674174521

   => Energetics <=

    Nuclear Repulsion Energy =             56.7060705201146646
    One-Electron Energy =                -609.8261376528489563
    Two-Electron Energy =                 216.5911740658331439
    DFT Exchange-Correlation Energy =     -24.9886536748440378
    Empirical Dispersion Energy =           0.0000000000000000
    VV10 Nonlocal Energy =                  0.0000000000000000
    Total Energy =                       -361.5175467417452637

  UHF NO Occupations:
  HONO-2 :    2 B1 1.9999963
  HONO-1 :    3 B2 1.0000000
  HONO-0 :    7 A1 1.0000000
  LUNO+0 :    3 B1 0.0000037
  LUNO+1 :    4 B2 0.0000014
  LUNO+2 :    8 A1 0.0000007
  LUNO+3 :    9 A1 0.0000003


Computation Completed


Properties will be evaluated at   0.000000,   0.000000,   0.000000 [a0]

Properties computed using the SCF density matrix


 Multipole Moments:

 ------------------------------------------------------------------------------------
     Multipole            Electronic (a.u.)      Nuclear  (a.u.)        Total (a.u.)
 ------------------------------------------------------------------------------------

 L = 1.  Multiply by 2.5417464519 to convert [e a0] to [Debye]
 Dipole X            :          0.0000000            0.0000000            0.0000000
 Dipole Y            :          0.0000000            0.0000000            0.0000000
 Dipole Z            :          0.9289893           -0.5967189            0.3322705
 Magnitude           :                                                    0.3322705

 ------------------------------------------------------------------------------------

*** tstop() called on Joses-MacBook-Pro-2.local at Thu Jul 17 14:46:20 2025
Module time:
	user time   =      13.82 seconds =       0.23 minutes
	system time =       2.40 seconds =       0.04 minutes
	total time  =          1 seconds =       0.02 minutes
Total time:
	user time   =      61.69 seconds =       1.03 minutes
	system time =      16.32 seconds =       0.27 minutes
	total time  =          8 seconds =       0.13 minutes

*** tstart() called on Joses-MacBook-Pro-2.local
*** at Thu Jul 17 14:46:20 2025


         ------------------------------------------------------------
                                   SCF GRAD                          
                          Rob Parrish, Justin Turney,                
                       Andy Simmonett, and Alex Sokolov              
         ------------------------------------------------------------

  ==> Geometry <==

    Molecular point group: c2v
    Full point group: C_inf_v

    Geometry (in Angstrom), charge = 1, multiplicity = 3:

       Center              X                  Y                   Z               Mass       
    ------------   -----------------  -----------------  -----------------  -----------------
         NA           0.000000000000     0.000000000000     0.628956988311    22.989769282000
         MG           0.000000000000     0.000000000000    -0.602858074305    23.985041697000

  Nuclear repulsion =   56.706070520114665

  ==> Basis Set <==

  Basis Set: CC-PVDZ
    Blend: CC-PVDZ
    Number of shells: 16
    Number of basis functions: 36
    Number of Cartesian functions: 38
    Spherical Harmonics?: true
    Max angular momentum: 2

  ==> DFJKGrad: Density-Fitted SCF Gradients <==

    Gradient:                    1
    J tasked:                  Yes
    K tasked:                  Yes
    wK tasked:                  No
    OpenMP threads:              1
    Integrals threads:           1
    Memory [MiB]:              375
    Schwarz Cutoff:          1E-12
    Fitting Condition:       1E-10

   => Auxiliary Basis Set <=

  Basis Set: (CC-PVDZ AUX)
    Blend: DEF2-UNIVERSAL-JKFIT
    Number of shells: 68
    Number of basis functions: 224
    Number of Cartesian functions: 274
    Spherical Harmonics?: true
    Max angular momentum: 4

  ==> DFT Potential <==

   => LibXC <=

    Version 6.2.2
    S. Lehtola, C. Steigemann, M. J.T. Oliveira, and M. A.L. Marques.,  SoftwareX 7, 1–5 (2018) (10.1016/j.softx.2017.11.002)

   => Composite Functional: B3LYP <= 

    B3LYP Hyb-GGA Exchange-Correlation Functional

    P. J. Stephens, F. J. Devlin, C. F. Chabalowski, and M. J. Frisch.,  J. Phys. Chem. 98, 11623 (1994) (10.1021/j100096a001)

    Deriv               =              1
    GGA                 =           TRUE
    Meta                =          FALSE

    Exchange Hybrid     =           TRUE
    MP2 Hybrid          =          FALSE

   => Exchange Functionals <=

    0.0800   Slater exchange
    0.7200         Becke 88

   => Exact (HF) Exchange <=

    0.2000               HF 

   => Correlation Functionals <=

    0.1900   Vosko, Wilk & Nusair (VWN5_RPA)
    0.8100   Lee, Yang & Parr

   => LibXC Density Thresholds  <==

    XC_HYB_GGA_XC_B3LYP:  1.00E-15 

   => Molecular Quadrature <=

    Radial Scheme          =       TREUTLER
    Pruning Scheme         =           NONE
    Nuclear Scheme         =       TREUTLER

    Blocking Scheme        =         OCTREE
    BS radius alpha        =              1
    Pruning alpha          =              1
    Radial Points          =             75
    Spherical Points       =            302
    Total Points           =          43494
    Total Blocks           =            448
    Max Points             =            255
    Max Functions          =             36
    Weights Tolerance      =       1.00E-15


  -Total Gradient:
     Atom            X                  Y                   Z
    ------   -----------------  -----------------  -----------------
       1        0.000000000000    -0.000000000000    -1.059917040375
       2        0.000000000000     0.000000000000     1.059964145206


*** tstop() called on Joses-MacBook-Pro-2.local at Thu Jul 17 14:46:21 2025
Module time:
	user time   =       3.88 seconds =       0.06 minutes
	system time =       2.05 seconds =       0.03 minutes
	total time  =          1 seconds =       0.02 minutes
Total time:
	user time   =      65.57 seconds =       1.09 minutes
	system time =      18.38 seconds =       0.31 minutes
	total time  =          9 seconds =       0.15 minutes

    			-----------------------------------------

    			 OPTKING 3.0: for geometry optimizations 

    			     By R.A. King, Bethel University     

    			        with contributions from          

    			    A.V. Copan, J. Cayton, A. Heide      

    			-----------------------------------------

    
	                            ===> Fragment 1 <== 

	 Z (Atomic Numbers)          Masses                          Geom                  
	      11.000000            22.989769          0.00000000  0.00000000  1.18855645   
	      12.000000            23.985042          0.00000000  0.00000000 -1.13923665   

	 - Coordinate -           - BOHR/RAD -       - ANG/DEG -
	 R(1,2)           =         2.327793           1.231815


	        --- Internal Coordinate Step in ANG or DEG, aJ/ANG or AJ/DEG ---
	-------------------------------------------------------------------------------
	           Coordinate      Previous         Force          Change          New 
	           ----------      --------        ------          ------        ------
	               R(1,2)       1.23182        8.73256        0.15132       1.38314
	-------------------------------------------------------------------------------

	                                 ==> Convergence Check <==                                  
    
	Measures of convergence in internal coordinates in au.
    
	Criteria marked as inactive (o), active & met (*), and active & unmet ( ).

	----------------------------------------------------------------------------------------------
	   Step    Total Energy     Delta E     Max Force     RMS Force      Max Disp      RMS Disp   
	----------------------------------------------------------------------------------------------
	  Convergence Criteria     1.00e-06 *    3.00e-04 *             o    1.20e-03 *             o
	----------------------------------------------------------------------------------------------
	     4    -361.51754674   -4.85e-02      1.06e+00      1.06e+00 o    2.86e-01      2.86e-01 o  ~
	----------------------------------------------------------------------------------------------

Next Geometry in Ang 
	Fragment 1 (Ang)

	   Na   0.0000000000   0.0000000000   0.7046193943
	   Mg   0.0000000000   0.0000000000  -0.6785204803


    Structure for next step:
    Molecular point group: c2v
    Full point group: C_inf_v

    Geometry (in Angstrom), charge = 1, multiplicity = 3:

    NA           0.000000000000     0.000000000000     0.706222481255
    MG           0.000000000000     0.000000000000    -0.676917393387


Scratch directory: /tmp/
gradient() will perform analytic gradient computation.
   => Libint2 <=

    Primary   basis highest AM E, G, H:  6, 6, 3
    Auxiliary basis highest AM E, G, H:  7, 7, 4
    Onebody   basis highest AM E, G, H:  -, -, -
    Solid Harmonics ordering:            Gaussian

*** tstart() called on Joses-MacBook-Pro-2.local
*** at Thu Jul 17 14:46:21 2025

   => Loading Basis Set <=

    Name: CC-PVDZ
    Role: ORBITAL
    Keyword: BASIS
    atoms 1 entry NA         line   288 file /Users/joseantoniorodriguesromero/anaconda3/share/psi4/basis/cc-pvdz.gbs 
    atoms 2 entry MG         line   353 file /Users/joseantoniorodriguesromero/anaconda3/share/psi4/basis/cc-pvdz.gbs 


         ---------------------------------------------------------
                                   SCF
               by Justin Turney, Rob Parrish, Andy Simmonett
                          and Daniel G. A. Smith
                              UKS Reference
                        1 Threads,    500 MiB Core
         ---------------------------------------------------------

  ==> Geometry <==

    Molecular point group: c2v
    Full point group: C_inf_v

    Geometry (in Angstrom), charge = 1, multiplicity = 3:

       Center              X                  Y                   Z               Mass       
    ------------   -----------------  -----------------  -----------------  -----------------
         NA           0.000000000000     0.000000000000     0.706222481255    22.989769282000
         MG           0.000000000000     0.000000000000    -0.676917393387    23.985041697000

  Running in c2v symmetry.

  Rotational constants: A = ************  B =      0.75068  C =      0.75068 [cm^-1]
  Rotational constants: A = ************  B =  22504.78904  C =  22504.78904 [MHz]
  Nuclear repulsion =   50.502044723825271

  Charge       = 1
  Multiplicity = 3
  Electrons    = 22
  Nalpha       = 12
  Nbeta        = 10

  ==> Algorithm <==

  SCF Algorithm Type is DF.
  DIIS enabled.
  MOM disabled.
  Fractional occupation disabled.
  Guess Type is READ.
  Energy threshold   = 1.00e-08
  Density threshold  = 1.00e-08
  Integral threshold = 1.00e-12

  ==> Primary Basis <==

  Basis Set: CC-PVDZ
    Blend: CC-PVDZ
    Number of shells: 16
    Number of basis functions: 36
    Number of Cartesian functions: 38
    Spherical Harmonics?: true
    Max angular momentum: 2

  ==> DFT Potential <==

   => LibXC <=

    Version 6.2.2
    S. Lehtola, C. Steigemann, M. J.T. Oliveira, and M. A.L. Marques.,  SoftwareX 7, 1–5 (2018) (10.1016/j.softx.2017.11.002)

   => Composite Functional: B3LYP <= 

    B3LYP Hyb-GGA Exchange-Correlation Functional

    P. J. Stephens, F. J. Devlin, C. F. Chabalowski, and M. J. Frisch.,  J. Phys. Chem. 98, 11623 (1994) (10.1021/j100096a001)

    Deriv               =              1
    GGA                 =           TRUE
    Meta                =          FALSE

    Exchange Hybrid     =           TRUE
    MP2 Hybrid          =          FALSE

[...]
    
	Measures of convergence in internal coordinates in au.
    
	Criteria marked as inactive (o), active & met (*), and active & unmet ( ).

	----------------------------------------------------------------------------------------------
	   Step    Total Energy     Delta E     Max Force     RMS Force      Max Disp      RMS Disp   
	----------------------------------------------------------------------------------------------
	  Convergence Criteria     1.00e-06 *    3.00e-04 *             o    1.20e-03 *             o
	----------------------------------------------------------------------------------------------
	    17    -362.08661276   -3.51e-06      4.00e-05 *    4.00e-05 o    6.17e-03      6.17e-03 o  ~
	----------------------------------------------------------------------------------------------

Next Geometry in Ang 
	Fragment 1 (Ang)

	   Na   0.0000000000   0.0000000000   1.7317700500
	   Mg   0.0000000000   0.0000000000  -1.6599770328


    Structure for next step:
    Molecular point group: c2v
    Full point group: C_inf_v

    Geometry (in Angstrom), charge = 1, multiplicity = 3:

    NA           0.000000000000     0.000000000000     1.731804631245
    MG           0.000000000000     0.000000000000    -1.659942451499


Scratch directory: /tmp/
gradient() will perform analytic gradient computation.
   => Libint2 <=

    Primary   basis highest AM E, G, H:  6, 6, 3
    Auxiliary basis highest AM E, G, H:  7, 7, 4
    Onebody   basis highest AM E, G, H:  -, -, -
    Solid Harmonics ordering:            Gaussian

*** tstart() called on Joses-MacBook-Pro-2.local
*** at Thu Jul 17 14:46:42 2025

   => Loading Basis Set <=

    Name: CC-PVDZ
    Role: ORBITAL
    Keyword: BASIS
    atoms 1 entry NA         line   288 file /Users/joseantoniorodriguesromero/anaconda3/share/psi4/basis/cc-pvdz.gbs 
    atoms 2 entry MG         line   353 file /Users/joseantoniorodriguesromero/anaconda3/share/psi4/basis/cc-pvdz.gbs 


         ---------------------------------------------------------
                                   SCF
               by Justin Turney, Rob Parrish, Andy Simmonett
                          and Daniel G. A. Smith
                              UKS Reference
                        1 Threads,    500 MiB Core
         ---------------------------------------------------------

  ==> Geometry <==

    Molecular point group: c2v
    Full point group: C_inf_v

    Geometry (in Angstrom), charge = 1, multiplicity = 3:

       Center              X                  Y                   Z               Mass       
    ------------   -----------------  -----------------  -----------------  -----------------
         NA           0.000000000000     0.000000000000     1.731804631245    22.989769282000
         MG           0.000000000000     0.000000000000    -1.659942451499    23.985041697000

  Running in c2v symmetry.

  Rotational constants: A = ************  B =      0.12484  C =      0.12484 [cm^-1]
  Rotational constants: A = ************  B =   3742.48639  C =   3742.48639 [MHz]
  Nuclear repulsion =   20.594516661881269

  Charge       = 1
  Multiplicity = 3
  Electrons    = 22
  Nalpha       = 12
  Nbeta        = 10

  ==> Algorithm <==

  SCF Algorithm Type is DF.
  DIIS enabled.
  MOM disabled.
  Fractional occupation disabled.
  Guess Type is READ.
  Energy threshold   = 1.00e-08
  Density threshold  = 1.00e-08
  Integral threshold = 1.00e-12

  ==> Primary Basis <==

  Basis Set: CC-PVDZ
    Blend: CC-PVDZ
    Number of shells: 16
    Number of basis functions: 36
    Number of Cartesian functions: 38
    Spherical Harmonics?: true
    Max angular momentum: 2

  ==> DFT Potential <==

   => LibXC <=

    Version 6.2.2
    S. Lehtola, C. Steigemann, M. J.T. Oliveira, and M. A.L. Marques.,  SoftwareX 7, 1–5 (2018) (10.1016/j.softx.2017.11.002)

   => Composite Functional: B3LYP <= 

    B3LYP Hyb-GGA Exchange-Correlation Functional

    P. J. Stephens, F. J. Devlin, C. F. Chabalowski, and M. J. Frisch.,  J. Phys. Chem. 98, 11623 (1994) (10.1021/j100096a001)

    Deriv               =              1
    GGA                 =           TRUE
    Meta                =          FALSE

    Exchange Hybrid     =           TRUE
    MP2 Hybrid          =          FALSE

   => Exchange Functionals <=

    0.0800   Slater exchange
    0.7200         Becke 88

   => Exact (HF) Exchange <=

    0.2000               HF 

   => Correlation Functionals <=

    0.1900   Vosko, Wilk & Nusair (VWN5_RPA)
    0.8100   Lee, Yang & Parr

   => LibXC Density Thresholds  <==

    XC_HYB_GGA_XC_B3LYP:  1.00E-15 

   => Molecular Quadrature <=

    Radial Scheme          =       TREUTLER
    Pruning Scheme         =           NONE
    Nuclear Scheme         =       TREUTLER

    Blocking Scheme        =         OCTREE
    BS radius alpha        =              1
    Pruning alpha          =              1
    Radial Points          =             75
    Spherical Points       =            302
    Total Points           =          43618
    Total Blocks           =            458
    Max Points             =            256
    Max Functions          =             36
    Weights Tolerance      =       1.00E-15

   => Loading Basis Set <=

    Name: (CC-PVDZ AUX)
    Role: JKFIT
    Keyword: DF_BASIS_SCF
    atoms 1 entry NA         line   498 file /Users/joseantoniorodriguesromero/anaconda3/share/psi4/basis/def2-universal-jkfit.gbs 
    atoms 2 entry MG         line   576 file /Users/joseantoniorodriguesromero/anaconda3/share/psi4/basis/def2-universal-jkfit.gbs 

   => Loading Basis Set <=

    Name: CC-PVDZ
    Role: ORBITAL
    Keyword: BASIS
    atoms 1 entry NA         line   288 file /Users/joseantoniorodriguesromero/anaconda3/share/psi4/basis/cc-pvdz.gbs 
    atoms 2 entry MG         line   353 file /Users/joseantoniorodriguesromero/anaconda3/share/psi4/basis/cc-pvdz.gbs 

  Reading orbitals from file /tmp/triplet_NaMg.default.74883.180.npy, no projection.

  ==> Integral Setup <==

  DFHelper Memory: AOs need 0.003 GiB; user supplied 0.320 GiB. 
  Using in-core AOs.

  ==> MemDFJK: Density-Fitted J/K Matrices <==

    J tasked:                   Yes
    K tasked:                   Yes
    wK tasked:                   No
    OpenMP threads:               1
    Memory [MiB]:               328
    Algorithm:                 Core
    Schwarz Cutoff:           1E-12
    Mask sparsity (%):       0.0000
    Fitting Condition:        1E-10

   => Auxiliary Basis Set <=

  Basis Set: (CC-PVDZ AUX)
    Blend: DEF2-UNIVERSAL-JKFIT
    Number of shells: 68
    Number of basis functions: 224
    Number of Cartesian functions: 274
    Spherical Harmonics?: true
    Max angular momentum: 4

  Cached 100.0% of DFT collocation blocks in 0.046 [GiB].

  Minimum eigenvalue in the overlap matrix is 1.1283579832E-02.
  Reciprocal condition number of the overlap matrix is 3.0589153910E-03.
    Using symmetric orthogonalization.

  ==> Pre-Iterations <==

  SCF Guess: Orbitals guess was supplied from a previous computation.

   -------------------------------------------------------
    Irrep   Nso     Nmo     Nalpha   Nbeta   Ndocc  Nsocc
   -------------------------------------------------------
     A1        18      18       7       6       6       1
     A2         2       2       0       0       0       0
     B1         8       8       2       2       2       0
     B2         8       8       3       2       2       1
   -------------------------------------------------------
    Total      36      36      12      10      10       2
   -------------------------------------------------------

  ==> Iterations <==

                           Total Energy        Delta E     RMS |[F,P]|

   @DF-UKS iter   0:  -362.08640200536416   -3.62086e+02   3.14329e-05 
   @DF-UKS iter   1:  -362.08661286660174   -2.10861e-04   2.50762e-06 DIIS
   @DF-UKS iter   2:  -362.08661287634879   -9.74705e-09   6.63372e-07 DIIS/DAMP=1%
   @DF-UKS iter   3:  -362.08661265032885    2.26020e-07   7.34787e-08 DIIS/DAMP=1%
   @DF-UKS iter   4:  -362.08661289985361   -2.49525e-07   1.62761e-08 DIIS/DAMP=1%
   @DF-UKS iter   5:  -362.08661288236345    1.74902e-08   3.29900e-09 DIIS/DAMP=1%
   @DF-UKS iter   6:  -362.08661287708486    5.27859e-09   8.72312e-10 DIIS/DAMP=1%
  Energy and wave function converged.


  ==> Post-Iterations <==

   Electrons on quadrature grid:
      Nalpha   =   11.9999998811 ; deviation = -1.189e-07
      Nbeta    =    9.9999999921 ; deviation = -7.867e-09
      Ntotal   =   21.9999998732 ; deviation = -1.268e-07 

   @Spin Contamination Metric:   5.773798595E-06
   @S^2 Expected:                2.000000000E+00
   @S^2 Observed:                2.000005774E+00
   @S   Expected:                1.000000000E+00
   @S   Observed:                1.000000000E+00

    Orbital Energies [Eh]
    ---------------------

    Alpha Occupied:                                                       

       1A1   -47.051981     2A1   -38.736324     3A1    -3.329565  
       4A1    -2.474692     5A1    -2.073969     1B1    -2.073894  
       1B2    -2.071013     6A1    -1.406173     2B1    -1.405991  
       2B2    -1.405484     7A1    -0.410717     3B2    -0.257926  

    Alpha Virtual:                                                        

       8A1    -0.256442     3B1    -0.205909     9A1    -0.186693  
       4B2    -0.144374     4B1    -0.132129    10A1    -0.099718  
      11A1    -0.072976     5B2    -0.055021     5B1    -0.048770  
      12A1    -0.044624    13A1    -0.008230     6B2     0.003747  
       1A2     0.006228    14A1     0.010967     6B1     0.011157  
       7B2     0.015569     7B1     0.024498    15A1     0.037506  
      16A1     0.110224     2A2     0.125022    17A1     0.131226  
       8B2     0.184716     8B1     0.195665    18A1     0.300977  

    Beta Occupied:                                                        

       1A1   -47.047946     2A1   -38.735998     3A1    -3.322867  
       4A1    -2.474096     1B1    -2.069950     5A1    -2.069793  
       1B2    -2.062332     2B1    -1.405732     6A1    -1.405690  
       2B2    -1.404847  

    Beta Virtual:                                                         

       7A1    -0.306719     8A1    -0.238830     3B1    -0.172054  
       9A1    -0.162925     3B2    -0.160020     4B1    -0.125616  
       4B2    -0.116354    10A1    -0.086617    11A1    -0.059057  
       5B1    -0.044562     5B2    -0.043004    12A1    -0.034637  
      13A1     0.007501     1A2     0.011976    14A1     0.013239  
       6B1     0.018523     6B2     0.023823     7B1     0.041847  
       7B2     0.054896    15A1     0.062916    16A1     0.124115  
      17A1     0.185294     2A2     0.185529     8B1     0.217979  
       8B2     0.235389    18A1     0.326301  

    Final Occupation by Irrep:
             A1    A2    B1    B2 
    DOCC [     6,    0,    2,    2 ]
    SOCC [     1,    0,    0,    1 ]
    NA   [     7,    0,    2,    3 ]
    NB   [     6,    0,    2,    2 ]

  @DF-UKS Final Energy:  -362.08661287708486

   => Energetics <=

    Nuclear Repulsion Energy =             20.5945166618812685
    One-Electron Energy =                -542.9653469313551568
    Two-Electron Energy =                 185.0631809622859976
    DFT Exchange-Correlation Energy =     -24.7789635698969164
    Empirical Dispersion Energy =           0.0000000000000000
    VV10 Nonlocal Energy =                  0.0000000000000000
    Total Energy =                       -362.0866128770848604

  UHF NO Occupations:
  HONO-2 :    6 A1 1.9999990
  HONO-1 :    3 B2 1.0000000
  HONO-0 :    7 A1 1.0000000
  LUNO+0 :    8 A1 0.0000010
  LUNO+1 :    3 B1 0.0000006
  LUNO+2 :    9 A1 0.0000005
  LUNO+3 :    4 B2 0.0000004


Computation Completed


Properties will be evaluated at   0.000000,   0.000000,   0.000000 [a0]

Properties computed using the SCF density matrix


 Multipole Moments:

 ------------------------------------------------------------------------------------
     Multipole            Electronic (a.u.)      Nuclear  (a.u.)        Total (a.u.)
 ------------------------------------------------------------------------------------

 L = 1.  Multiply by 2.5417464519 to convert [e a0] to [Debye]
 Dipole X            :          0.0000000            0.0000000            0.0000000
 Dipole Y            :          0.0000000            0.0000000            0.0000000
 Dipole Z            :          3.0526129           -1.6430384            1.4095745
 Magnitude           :                                                    1.4095745

 ------------------------------------------------------------------------------------

*** tstop() called on Joses-MacBook-Pro-2.local at Thu Jul 17 14:46:43 2025
Module time:
	user time   =       6.11 seconds =       0.10 minutes
	system time =       2.41 seconds =       0.04 minutes
	total time  =          1 seconds =       0.02 minutes
Total time:
	user time   =     230.98 seconds =       3.85 minutes
	system time =      73.85 seconds =       1.23 minutes
	total time  =         31 seconds =       0.52 minutes

*** tstart() called on Joses-MacBook-Pro-2.local
*** at Thu Jul 17 14:46:43 2025


         ------------------------------------------------------------
                                   SCF GRAD                          
                          Rob Parrish, Justin Turney,                
                       Andy Simmonett, and Alex Sokolov              
         ------------------------------------------------------------

  ==> Geometry <==

    Molecular point group: c2v
    Full point group: C_inf_v

    Geometry (in Angstrom), charge = 1, multiplicity = 3:

       Center              X                  Y                   Z               Mass       
    ------------   -----------------  -----------------  -----------------  -----------------
         NA           0.000000000000     0.000000000000     1.731804631245    22.989769282000
         MG           0.000000000000     0.000000000000    -1.659942451499    23.985041697000

  Nuclear repulsion =   20.594516661881269

  ==> Basis Set <==

  Basis Set: CC-PVDZ
    Blend: CC-PVDZ
    Number of shells: 16
    Number of basis functions: 36
    Number of Cartesian functions: 38
    Spherical Harmonics?: true
    Max angular momentum: 2

  ==> DFJKGrad: Density-Fitted SCF Gradients <==

    Gradient:                    1
    J tasked:                  Yes
    K tasked:                  Yes
    wK tasked:                  No
    OpenMP threads:              1
    Integrals threads:           1
    Memory [MiB]:              375
    Schwarz Cutoff:          1E-12
    Fitting Condition:       1E-10

   => Auxiliary Basis Set <=

  Basis Set: (CC-PVDZ AUX)
    Blend: DEF2-UNIVERSAL-JKFIT
    Number of shells: 68
    Number of basis functions: 224
    Number of Cartesian functions: 274
    Spherical Harmonics?: true
    Max angular momentum: 4

  ==> DFT Potential <==

   => LibXC <=

    Version 6.2.2
    S. Lehtola, C. Steigemann, M. J.T. Oliveira, and M. A.L. Marques.,  SoftwareX 7, 1–5 (2018) (10.1016/j.softx.2017.11.002)

   => Composite Functional: B3LYP <= 

    B3LYP Hyb-GGA Exchange-Correlation Functional

    P. J. Stephens, F. J. Devlin, C. F. Chabalowski, and M. J. Frisch.,  J. Phys. Chem. 98, 11623 (1994) (10.1021/j100096a001)

    Deriv               =              1
    GGA                 =           TRUE
    Meta                =          FALSE

    Exchange Hybrid     =           TRUE
    MP2 Hybrid          =          FALSE

   => Exchange Functionals <=

    0.0800   Slater exchange
    0.7200         Becke 88

   => Exact (HF) Exchange <=

    0.2000               HF 

   => Correlation Functionals <=

    0.1900   Vosko, Wilk & Nusair (VWN5_RPA)
    0.8100   Lee, Yang & Parr

   => LibXC Density Thresholds  <==

    XC_HYB_GGA_XC_B3LYP:  1.00E-15 

   => Molecular Quadrature <=

    Radial Scheme          =       TREUTLER
    Pruning Scheme         =           NONE
    Nuclear Scheme         =       TREUTLER

    Blocking Scheme        =         OCTREE
    BS radius alpha        =              1
    Pruning alpha          =              1
    Radial Points          =             75
    Spherical Points       =            302
    Total Points           =          43618
    Total Blocks           =            458
    Max Points             =            256
    Max Functions          =             36
    Weights Tolerance      =       1.00E-15


  -Total Gradient:
     Atom            X                  Y                   Z
    ------   -----------------  -----------------  -----------------
       1        0.000000000000     0.000000000000    -0.000003185986
       2        0.000000000000     0.000000000000     0.000013059451


*** tstop() called on Joses-MacBook-Pro-2.local at Thu Jul 17 14:46:43 2025
Module time:
	user time   =       3.12 seconds =       0.05 minutes
	system time =       2.10 seconds =       0.04 minutes
	total time  =          0 seconds =       0.00 minutes
Total time:
	user time   =     234.12 seconds =       3.90 minutes
	system time =      75.96 seconds =       1.27 minutes
	total time  =         31 seconds =       0.52 minutes

    			-----------------------------------------

    			 OPTKING 3.0: for geometry optimizations 

    			     By R.A. King, Bethel University     

    			        with contributions from          

    			    A.V. Copan, J. Cayton, A. Heide      

    			-----------------------------------------

    
	                            ===> Fragment 1 <== 

	 Z (Atomic Numbers)          Masses                          Geom                  
	      11.000000            22.989769          0.00000000  0.00000000  3.27263646   
	      12.000000            23.985042          0.00000000  0.00000000 -3.13683662   

	 - Coordinate -           - BOHR/RAD -       - ANG/DEG -
	 R(1,2)           =         6.409473           3.391747


	        --- Internal Coordinate Step in ANG or DEG, aJ/ANG or AJ/DEG ---
	-------------------------------------------------------------------------------
	           Coordinate      Previous         Force          Change          New 
	           ----------      --------        ------          ------        ------
	               R(1,2)       3.39175        0.00007        0.00067       3.39241
	-------------------------------------------------------------------------------

	                                 ==> Convergence Check <==                                  
    
	Measures of convergence in internal coordinates in au.
    
	Criteria marked as inactive (o), active & met (*), and active & unmet ( ).

	----------------------------------------------------------------------------------------------
	   Step    Total Energy     Delta E     Max Force     RMS Force      Max Disp      RMS Disp   
	----------------------------------------------------------------------------------------------
	  Convergence Criteria     1.00e-06 *    3.00e-04 *             o    1.20e-03 *             o
	----------------------------------------------------------------------------------------------
	    18    -362.08661288   -1.21e-07 *    8.12e-06 *    8.12e-06 o    1.26e-03      1.26e-03 o  ~
	----------------------------------------------------------------------------------------------

Next Geometry in Ang 
	Fragment 1 (Ang)

	   Na   0.0000000000   0.0000000000   1.7321376988
	   Mg   0.0000000000   0.0000000000  -1.6602755190


    Final optimized geometry and variables:
    Molecular point group: c2v
    Full point group: C_inf_v

    Geometry (in Angstrom), charge = 1, multiplicity = 3:

    NA           0.000000000000     0.000000000000     1.731804631245
    MG           0.000000000000     0.000000000000    -1.659942451499


    Psi4 stopped on: Thursday, 17 July 2025 02:46PM
    Psi4 wall time for execution: 0:00:31.94

*** Psi4 exiting successfully. Buy a developer a beer!
