
    -----------------------------------------------------------------------
          Psi4: An Open-Source Ab Initio Electronic Structure Package
                               Psi4 1.9.1 release

                         Git: Rev {} zzzzzzz 


    D. G. A. Smith, L. A. Burns, A. C. Simmonett, R. M. Parrish,
    M. C. Schieber, R. Galvelis, P. Kraus, H. Kruse, R. Di Remigio,
    A. Alenaizan, A. M. James, S. Lehtola, J. P. Misiewicz, M. Scheurer,
    R. A. Shaw, J. B. Schriber, Y. Xie, Z. L. Glick, D. A. Sirianni,
    J. S. O'Brien, J. M. Waldrop, A. Kumar, E. G. Hohenstein,
    B. P. Pritchard, B. R. Brooks, H. F. Schaefer III, A. Yu. Sokolov,
    K. Patkowski, A. E. DePrince III, U. Bozkaya, R. A. King,
    F. A. Evangelista, J. M. Turney, T. D. Crawford, C. D. Sherrill,
    J. Chem. Phys. 152(18) 184108 (2020). https://doi.org/10.1063/5.0006002

                            Additional Code Authors
    E. T. Seidl, C. L. Janssen, E. F. Valeev, M. L. Leininger,
    J. F. Gonthier, R. M. Richard, H. R. McAlexander, M. Saitow, X. Wang,
    P. Verma, M. H. Lechner, A. Jiang, S. Behnle, A. G. Heide,
    M. F. Herbst, and D. L. Poole

             Previous Authors, Complete List of Code Contributors,
                       and Citations for Specific Modules
    https://github.com/psi4/psi4/blob/master/codemeta.json
    https://github.com/psi4/psi4/graphs/contributors
    http://psicode.org/psi4manual/master/introduction.html#citing-psifour

    -----------------------------------------------------------------------


    Psi4 started on: Thursday, 17 July 2025 02:42PM

    Process ID: 74838
    Host:       Joses-MacBook-Pro-2.local
    PSIDATADIR: /Users/joseantoniorodriguesromero/anaconda3/share/psi4
    Memory:     500.0 MiB
    Threads:    1
    
  ==> Input File <==

--------------------------------------------------------------------------
molecule { 
1 3
Ne   0.00000        0.60000        0.00000
Cl   0.00000       -0.60000        0.00000
}

set { 
basis              cc-pvdz
reference          uks
maxiter            500
geom_maxiter       500
DAMPING_PERCENTAGE 1
guess              SAP
}

optimize('b3lyp')
--------------------------------------------------------------------------

Scratch directory: /tmp/
gradient() will perform analytic gradient computation.
   => Libint2 <=

    Primary   basis highest AM E, G, H:  6, 6, 3
    Auxiliary basis highest AM E, G, H:  7, 7, 4
    Onebody   basis highest AM E, G, H:  -, -, -
    Solid Harmonics ordering:            Gaussian

*** tstart() called on Joses-MacBook-Pro-2.local
*** at Thu Jul 17 14:42:52 2025

   => Loading Basis Set <=

    Name: CC-PVDZ
    Role: ORBITAL
    Keyword: BASIS
    atoms 1 entry NE         line   258 file /Users/joseantoniorodriguesromero/anaconda3/share/psi4/basis/cc-pvdz.gbs 
    atoms 2 entry CL         line   658 file /Users/joseantoniorodriguesromero/anaconda3/share/psi4/basis/cc-pvdz.gbs 


         ---------------------------------------------------------
                                   SCF
               by Justin Turney, Rob Parrish, Andy Simmonett
                          and Daniel G. A. Smith
                              UKS Reference
                        1 Threads,    500 MiB Core
         ---------------------------------------------------------

  ==> Geometry <==

    Molecular point group: c2v
    Full point group: C_inf_v

    Geometry (in Angstrom), charge = 1, multiplicity = 3:

       Center              X                  Y                   Z               Mass       
    ------------   -----------------  -----------------  -----------------  -----------------
         NE           0.000000000000     0.000000000000     0.763494107147    19.992440176200
         CL           0.000000000000     0.000000000000    -0.436505892853    34.968852682000

  Running in c2v symmetry.

  Rotational constants: A = ************  B =      0.92033  C =      0.92033 [cm^-1]
  Rotational constants: A = ************  B =  27590.81052  C =  27590.81052 [MHz]
  Nuclear repulsion =   74.966771511583346

  Charge       = 1
  Multiplicity = 3
  Electrons    = 26
  Nalpha       = 14
  Nbeta        = 12

  ==> Algorithm <==

  SCF Algorithm Type is DF.
  DIIS enabled.
  MOM disabled.
  Fractional occupation disabled.
  Guess Type is SAP.
  Energy threshold   = 1.00e-08
  Density threshold  = 1.00e-08
  Integral threshold = 1.00e-12

  ==> Primary Basis <==

  Basis Set: CC-PVDZ
    Blend: CC-PVDZ
    Number of shells: 14
    Number of basis functions: 32
    Number of Cartesian functions: 34
    Spherical Harmonics?: true
    Max angular momentum: 2

  ==> DFT Potential <==

   => LibXC <=

    Version 6.2.2
    S. Lehtola, C. Steigemann, M. J.T. Oliveira, and M. A.L. Marques.,  SoftwareX 7, 1–5 (2018) (10.1016/j.softx.2017.11.002)

   => Composite Functional: B3LYP <= 

    B3LYP Hyb-GGA Exchange-Correlation Functional

    P. J. Stephens, F. J. Devlin, C. F. Chabalowski, and M. J. Frisch.,  J. Phys. Chem. 98, 11623 (1994) (10.1021/j100096a001)

    Deriv               =              1
    GGA                 =           TRUE
    Meta                =          FALSE

    Exchange Hybrid     =           TRUE
    MP2 Hybrid          =          FALSE

   => Exchange Functionals <=

    0.0800   Slater exchange
    0.7200         Becke 88

   => Exact (HF) Exchange <=

    0.2000               HF 

   => Correlation Functionals <=

    0.1900   Vosko, Wilk & Nusair (VWN5_RPA)
    0.8100   Lee, Yang & Parr

   => LibXC Density Thresholds  <==

    XC_HYB_GGA_XC_B3LYP:  1.00E-15 

   => Molecular Quadrature <=

    Radial Scheme          =       TREUTLER
    Pruning Scheme         =           NONE
    Nuclear Scheme         =       TREUTLER

    Blocking Scheme        =         OCTREE
    BS radius alpha        =              1
    Pruning alpha          =              1
    Radial Points          =             75
    Spherical Points       =            302
    Total Points           =          41726
    Total Blocks           =            368
    Max Points             =            256
    Max Functions          =             32
    Weights Tolerance      =       1.00E-15

   => Loading Basis Set <=

    Name: (CC-PVDZ AUX)
    Role: JKFIT
    Keyword: DF_BASIS_SCF
    atoms 1 entry NE         line   321 file /Users/joseantoniorodriguesromero/anaconda3/share/psi4/basis/cc-pvdz-jkfit.gbs 
    atoms 2 entry CL         line   667 file /Users/joseantoniorodriguesromero/anaconda3/share/psi4/basis/cc-pvdz-jkfit.gbs 

  ==> Integral Setup <==

  DFHelper Memory: AOs need 0.002 GiB; user supplied 0.329 GiB. 
  Using in-core AOs.

  ==> MemDFJK: Density-Fitted J/K Matrices <==

    J tasked:                   Yes
    K tasked:                   Yes
    wK tasked:                   No
    OpenMP threads:               1
    Memory [MiB]:               336
    Algorithm:                 Core
    Schwarz Cutoff:           1E-12
    Mask sparsity (%):       0.0000
    Fitting Condition:        1E-10

   => Auxiliary Basis Set <=

  Basis Set: (CC-PVDZ AUX)
    Blend: CC-PVDZ-JKFIT
    Number of shells: 60
    Number of basis functions: 182
    Number of Cartesian functions: 211
    Spherical Harmonics?: true
    Max angular momentum: 3

  Cached 100.0% of DFT collocation blocks in 0.037 [GiB].

  Minimum eigenvalue in the overlap matrix is 3.7483671914E-02.
  Reciprocal condition number of the overlap matrix is 1.3148206936E-02.
    Using symmetric orthogonalization.

  ==> Pre-Iterations <==

  SCF Guess: Superposition of Atomic Potentials (doi:10.1021/acs.jctc.8b01089).

  ==> SAP guess <==

   => Molecular Quadrature <=

    Radial Scheme          =       TREUTLER
    Pruning Scheme         =           NONE
    Nuclear Scheme         =       TREUTLER

    Blocking Scheme        =         OCTREE
    BS radius alpha        =              1
    Pruning alpha          =              1
    Radial Points          =             75
    Spherical Points       =            302
    Total Points           =          41726
    Total Blocks           =            368
    Max Points             =            256
    Max Functions          =             32
    Weights Tolerance      =       1.00E-15

   -------------------------------------------------------
    Irrep   Nso     Nmo     Nalpha   Nbeta   Ndocc  Nsocc
   -------------------------------------------------------
     A1        16      16       8       7       7       1
     A2         2       2       0       0       0       0
     B1         7       7       3       2       2       1
     B2         7       7       3       3       3       0
   -------------------------------------------------------
    Total      32      32      14      12      12       2
   -------------------------------------------------------

  ==> Iterations <==

                           Total Energy        Delta E     RMS |[F,P]|

   @DF-UKS iter   1:  -587.89543091039104   -5.87895e+02   1.29191e-02 DIIS/ADIIS
   @DF-UKS iter   2:  -587.90852360733527   -1.30927e-02   5.42498e-03 DIIS/ADIIS/DAMP=1%
   @DF-UKS iter   3:  -587.91278866724588   -4.26506e-03   2.28760e-03 DIIS/ADIIS/DAMP=1%
   @DF-UKS iter   4:  -587.91007180996417    2.71686e-03   4.35639e-04 DIIS/ADIIS/DAMP=1%
   @DF-UKS iter   5:  -587.91116990995727   -1.09810e-03   4.65182e-05 DIIS/DAMP=1%
   @DF-UKS iter   6:  -587.91097001370645    1.99896e-04   1.06414e-05 DIIS/DAMP=1%
   @DF-UKS iter   7:  -587.91101204150686   -4.20278e-05   1.91558e-06 DIIS/DAMP=1%
   @DF-UKS iter   8:  -587.91100181085903    1.02306e-05   3.30434e-07 DIIS/DAMP=1%
   @DF-UKS iter   9:  -587.91100360829421   -1.79744e-06   2.83433e-08 DIIS/DAMP=1%
   @DF-UKS iter  10:  -587.91100336333909    2.44955e-07   2.48664e-09 DIIS/DAMP=1%
   @DF-UKS iter  11:  -587.91100336142154    1.91756e-09   2.85850e-10 DIIS/DAMP=1%
  Energy and wave function converged.


  ==> Post-Iterations <==

   Electrons on quadrature grid:
      Nalpha   =   14.0000053498 ; deviation = 5.350e-06
      Nbeta    =   12.0000049658 ; deviation = 4.966e-06
      Ntotal   =   26.0000103156 ; deviation = 1.032e-05 

   @Spin Contamination Metric:   2.065522274E-03
   @S^2 Expected:                2.000000000E+00
   @S^2 Observed:                2.002065522E+00
   @S   Expected:                1.000000000E+00
   @S   Observed:                1.000000000E+00

    Orbital Energies [Eh]
    ---------------------

    Alpha Occupied:                                                       

       1A1  -102.026531     2A1   -31.628674     3A1    -9.950338  
       4A1    -7.720211     1B1    -7.711828     1B2    -7.686921  
       5A1    -2.314388     6A1    -1.451451     2B1    -1.296804  
       2B2    -1.278664     7A1    -1.063015     3B1    -0.731149  
       3B2    -0.677489     8A1    -0.440632  

    Alpha Virtual:                                                        

       4B1     0.151325     4B2     0.181010     9A1     0.184762  
      10A1     0.266311     1A2     0.279025    11A1     0.280286  
       5B1     0.327204     5B2     0.367082    12A1     0.640088  
       6B1     0.966919     6B2     0.979686    13A1     1.053063  
      14A1     2.073611    15A1     4.026421     2A2     4.026485  
       7B1     4.185671     7B2     4.199123    16A1     4.814629  

    Beta Occupied:                                                        

       1A1  -102.015053     2A1   -31.615151     3A1    -9.938765  
       4A1    -7.703146     1B1    -7.685495     1B2    -7.680022  
       5A1    -2.283749     6A1    -1.422764     2B2    -1.264286  
       2B1    -1.258599     7A1    -0.978182     3B2    -0.645738  

    Beta Virtual:                                                         

       3B1    -0.550980     8A1    -0.290894     4B2     0.197522  
       4B1     0.201004     9A1     0.225776    10A1     0.307833  
       1A2     0.348125    11A1     0.353234     5B2     0.404714  
       5B1     0.411763    12A1     0.675655     6B1     0.987314  
       6B2     0.990108    13A1     1.100956    14A1     2.087589  
       2A2     4.041574    15A1     4.041639     7B1     4.210290  
       7B2     4.212822    16A1     4.835741  

    Final Occupation by Irrep:
             A1    A2    B1    B2 
    DOCC [     7,    0,    2,    3 ]
    SOCC [     1,    0,    1,    0 ]
    NA   [     8,    0,    3,    3 ]
    NB   [     7,    0,    2,    3 ]

  @DF-UKS Final Energy:  -587.91100336142154

   => Energetics <=

    Nuclear Repulsion Energy =             74.9667715115833460
    One-Electron Energy =                -951.9571355952575686
    Two-Electron Energy =                 321.8506055105170844
    DFT Exchange-Correlation Energy =     -32.7712447882643900
    Empirical Dispersion Energy =           0.0000000000000000
    VV10 Nonlocal Energy =                  0.0000000000000000
    Total Energy =                       -587.9110033614215354

  UHF NO Occupations:
  HONO-2 :    7 A1 1.9991878
  HONO-1 :    3 B1 1.0000000
  HONO-0 :    8 A1 1.0000000
  LUNO+0 :    9 A1 0.0008122
  LUNO+1 :    4 B2 0.0000993
  LUNO+2 :    4 B1 0.0000689
  LUNO+3 :   10 A1 0.0000409


Computation Completed


Properties will be evaluated at   0.000000,   0.000000,   0.000000 [a0]

Properties computed using the SCF density matrix


 Multipole Moments:

 ------------------------------------------------------------------------------------
     Multipole            Electronic (a.u.)      Nuclear  (a.u.)        Total (a.u.)
 ------------------------------------------------------------------------------------

 L = 1.  Multiply by 2.5417464519 to convert [e a0] to [Debye]
 Dipole X            :          0.0000000            0.0000000            0.0000000
 Dipole Y            :          0.0000000            0.0000000            0.0000000
 Dipole Z            :          0.3498279            0.4050456            0.7548735
 Magnitude           :                                                    0.7548735

 ------------------------------------------------------------------------------------

*** tstop() called on Joses-MacBook-Pro-2.local at Thu Jul 17 14:42:53 2025
Module time:
	user time   =       4.17 seconds =       0.07 minutes
	system time =       4.40 seconds =       0.07 minutes
	total time  =          1 seconds =       0.02 minutes
Total time:
	user time   =       4.17 seconds =       0.07 minutes
	system time =       4.40 seconds =       0.07 minutes
	total time  =          1 seconds =       0.02 minutes

*** tstart() called on Joses-MacBook-Pro-2.local
*** at Thu Jul 17 14:42:53 2025


         ------------------------------------------------------------
                                   SCF GRAD                          
                          Rob Parrish, Justin Turney,                
                       Andy Simmonett, and Alex Sokolov              
         ------------------------------------------------------------

  ==> Geometry <==

    Molecular point group: c2v
    Full point group: C_inf_v

    Geometry (in Angstrom), charge = 1, multiplicity = 3:

       Center              X                  Y                   Z               Mass       
    ------------   -----------------  -----------------  -----------------  -----------------
         NE           0.000000000000     0.000000000000     0.763494107147    19.992440176200
         CL           0.000000000000     0.000000000000    -0.436505892853    34.968852682000

  Nuclear repulsion =   74.966771511583346

  ==> Basis Set <==

  Basis Set: CC-PVDZ
    Blend: CC-PVDZ
    Number of shells: 14
    Number of basis functions: 32
    Number of Cartesian functions: 34
    Spherical Harmonics?: true
    Max angular momentum: 2

  ==> DFJKGrad: Density-Fitted SCF Gradients <==

    Gradient:                    1
    J tasked:                  Yes
    K tasked:                  Yes
    wK tasked:                  No
    OpenMP threads:              1
    Integrals threads:           1
    Memory [MiB]:              375
    Schwarz Cutoff:          1E-12
    Fitting Condition:       1E-10

   => Auxiliary Basis Set <=

  Basis Set: (CC-PVDZ AUX)
    Blend: CC-PVDZ-JKFIT
    Number of shells: 60
    Number of basis functions: 182
    Number of Cartesian functions: 211
    Spherical Harmonics?: true
    Max angular momentum: 3

  ==> DFT Potential <==

   => LibXC <=

    Version 6.2.2
    S. Lehtola, C. Steigemann, M. J.T. Oliveira, and M. A.L. Marques.,  SoftwareX 7, 1–5 (2018) (10.1016/j.softx.2017.11.002)

   => Composite Functional: B3LYP <= 

    B3LYP Hyb-GGA Exchange-Correlation Functional

    P. J. Stephens, F. J. Devlin, C. F. Chabalowski, and M. J. Frisch.,  J. Phys. Chem. 98, 11623 (1994) (10.1021/j100096a001)

    Deriv               =              1
    GGA                 =           TRUE
    Meta                =          FALSE

    Exchange Hybrid     =           TRUE
    MP2 Hybrid          =          FALSE

   => Exchange Functionals <=

    0.0800   Slater exchange
    0.7200         Becke 88

   => Exact (HF) Exchange <=

    0.2000               HF 

   => Correlation Functionals <=

    0.1900   Vosko, Wilk & Nusair (VWN5_RPA)
    0.8100   Lee, Yang & Parr

   => LibXC Density Thresholds  <==

    XC_HYB_GGA_XC_B3LYP:  1.00E-15 

   => Molecular Quadrature <=

    Radial Scheme          =       TREUTLER
    Pruning Scheme         =           NONE
    Nuclear Scheme         =       TREUTLER

    Blocking Scheme        =         OCTREE
    BS radius alpha        =              1
    Pruning alpha          =              1
    Radial Points          =             75
    Spherical Points       =            302
    Total Points           =          41726
    Total Blocks           =            368
    Max Points             =            256
    Max Functions          =             32
    Weights Tolerance      =       1.00E-15


  -Total Gradient:
     Atom            X                  Y                   Z
    ------   -----------------  -----------------  -----------------
       1        0.000000000000    -0.000000000000    -1.377015933189
       2        0.000000000000     0.000000000000     1.376957385352


*** tstop() called on Joses-MacBook-Pro-2.local at Thu Jul 17 14:42:53 2025
Module time:
	user time   =       0.99 seconds =       0.02 minutes
	system time =       1.06 seconds =       0.02 minutes
	total time  =          0 seconds =       0.00 minutes
Total time:
	user time   =       5.17 seconds =       0.09 minutes
	system time =       5.46 seconds =       0.09 minutes
	total time  =          1 seconds =       0.02 minutes

    			-----------------------------------------

    			 OPTKING 3.0: for geometry optimizations 

    			     By R.A. King, Bethel University     

    			        with contributions from          

    			    A.V. Copan, J. Cayton, A. Heide      

    			-----------------------------------------

    
	                            ===> Fragment 1 <== 

	 Z (Atomic Numbers)          Masses                          Geom                  
	      10.000000            19.992440          0.00000000  0.00000000  1.44279476   
	      17.000000            34.968853          0.00000000  0.00000000 -0.82487659   

	 - Coordinate -           - BOHR/RAD -       - ANG/DEG -
	 R(1,2)           =         2.267671           1.200000


	        --- Internal Coordinate Step in ANG or DEG, aJ/ANG or AJ/DEG ---
	-------------------------------------------------------------------------------
	           Coordinate      Previous         Force          Change          New 
	           ----------      --------        ------          ------        ------
	               R(1,2)       1.20000       11.34461        0.15858       1.35858
	-------------------------------------------------------------------------------

	                                 ==> Convergence Check <==                                  
    
	Measures of convergence in internal coordinates in au.
    
	Criteria marked as inactive (o), active & met (*), and active & unmet ( ).

	----------------------------------------------------------------------------------------------
	   Step    Total Energy     Delta E     Max Force     RMS Force      Max Disp      RMS Disp   
	----------------------------------------------------------------------------------------------
	  Convergence Criteria     1.00e-06 *    3.00e-04 *             o    1.20e-03 *             o
	----------------------------------------------------------------------------------------------
	     1    -587.91100336   -5.88e+02      1.38e+00      1.38e+00 o    3.00e-01      3.00e-01 o  ~
	----------------------------------------------------------------------------------------------

Next Geometry in Ang 
	Fragment 1 (Ang)

	   Ne   0.0000000000   0.0000000000   0.8427857485
	   Cl   0.0000000000   0.0000000000  -0.5157975342


    Structure for next step:
    Molecular point group: c2v
    Full point group: C_inf_v

    Geometry (in Angstrom), charge = 1, multiplicity = 3:

    NE           0.000000000000     0.000000000000     0.864391941989
    CL           0.000000000000     0.000000000000    -0.494191340681


Scratch directory: /tmp/
gradient() will perform analytic gradient computation.
   => Libint2 <=

    Primary   basis highest AM E, G, H:  6, 6, 3
    Auxiliary basis highest AM E, G, H:  7, 7, 4
    Onebody   basis highest AM E, G, H:  -, -, -
    Solid Harmonics ordering:            Gaussian

*** tstart() called on Joses-MacBook-Pro-2.local
*** at Thu Jul 17 14:42:53 2025

   => Loading Basis Set <=

    Name: CC-PVDZ
    Role: ORBITAL
    Keyword: BASIS
    atoms 1 entry NE         line   258 file /Users/joseantoniorodriguesromero/anaconda3/share/psi4/basis/cc-pvdz.gbs 
    atoms 2 entry CL         line   658 file /Users/joseantoniorodriguesromero/anaconda3/share/psi4/basis/cc-pvdz.gbs 


         ---------------------------------------------------------
                                   SCF
               by Justin Turney, Rob Parrish, Andy Simmonett
                          and Daniel G. A. Smith
                              UKS Reference
                        1 Threads,    500 MiB Core
         ---------------------------------------------------------

  ==> Geometry <==

    Molecular point group: c2v
    Full point group: C_inf_v

    Geometry (in Angstrom), charge = 1, multiplicity = 3:

       Center              X                  Y                   Z               Mass       
    ------------   -----------------  -----------------  -----------------  -----------------
         NE           0.000000000000     0.000000000000     0.864391941989    19.992440176200
         CL           0.000000000000     0.000000000000    -0.494191340681    34.968852682000

  Running in c2v symmetry.

  Rotational constants: A = ************  B =      0.71802  C =      0.71802 [cm^-1]
  Rotational constants: A = ************  B =  21525.55799  C =  21525.55799 [MHz]
  Nuclear repulsion =   66.216128934765507

  Charge       = 1
  Multiplicity = 3
  Electrons    = 26
  Nalpha       = 14
  Nbeta        = 12

  ==> Algorithm <==

  SCF Algorithm Type is DF.
  DIIS enabled.
  MOM disabled.
  Fractional occupation disabled.
  Guess Type is READ.
  Energy threshold   = 1.00e-08
  Density threshold  = 1.00e-08
  Integral threshold = 1.00e-12

  ==> Primary Basis <==

  Basis Set: CC-PVDZ
    Blend: CC-PVDZ
    Number of shells: 14
    Number of basis functions: 32
    Number of Cartesian functions: 34
    Spherical Harmonics?: true
    Max angular momentum: 2

  ==> DFT Potential <==

   => LibXC <=

    Version 6.2.2
    S. Lehtola, C. Steigemann, M. J.T. Oliveira, and M. A.L. Marques.,  SoftwareX 7, 1–5 (2018) (10.1016/j.softx.2017.11.002)

   => Composite Functional: B3LYP <= 

    B3LYP Hyb-GGA Exchange-Correlation Functional

    P. J. Stephens, F. J. Devlin, C. F. Chabalowski, and M. J. Frisch.,  J. Phys. Chem. 98, 11623 (1994) (10.1021/j100096a001)

    Deriv               =              1
    GGA                 =           TRUE
    Meta                =          FALSE

    Exchange Hybrid     =           TRUE
    MP2 Hybrid          =          FALSE

   => Exchange Functionals <=

    0.0800   Slater exchange
    0.7200         Becke 88

   => Exact (HF) Exchange <=

    0.2000               HF 

   => Correlation Functionals <=

    0.1900   Vosko, Wilk & Nusair (VWN5_RPA)
    0.8100   Lee, Yang & Parr

   => LibXC Density Thresholds  <==

    XC_HYB_GGA_XC_B3LYP:  1.00E-15 

   => Molecular Quadrature <=

    Radial Scheme          =       TREUTLER
    Pruning Scheme         =           NONE
    Nuclear Scheme         =       TREUTLER

    Blocking Scheme        =         OCTREE
    BS radius alpha        =              1
    Pruning alpha          =              1
    Radial Points          =             75
    Spherical Points       =            302
    Total Points           =          41765
    Total Blocks           =            373
    Max Points             =            256
    Max Functions          =             32
    Weights Tolerance      =       1.00E-15

   => Loading Basis Set <=

    Name: (CC-PVDZ AUX)
    Role: JKFIT
    Keyword: DF_BASIS_SCF
    atoms 1 entry NE         line   321 file /Users/joseantoniorodriguesromero/anaconda3/share/psi4/basis/cc-pvdz-jkfit.gbs 
    atoms 2 entry CL         line   667 file /Users/joseantoniorodriguesromero/anaconda3/share/psi4/basis/cc-pvdz-jkfit.gbs 

   => Loading Basis Set <=

    Name: CC-PVDZ
    Role: ORBITAL
    Keyword: BASIS
    atoms 1 entry NE         line   258 file /Users/joseantoniorodriguesromero/anaconda3/share/psi4/basis/cc-pvdz.gbs 
    atoms 2 entry CL         line   658 file /Users/joseantoniorodriguesromero/anaconda3/share/psi4/basis/cc-pvdz.gbs 

  Reading orbitals from file /tmp/triplet_NeCl.default.74838.180.npy, no projection.

  ==> Integral Setup <==

  DFHelper Memory: AOs need 0.002 GiB; user supplied 0.329 GiB. 
  Using in-core AOs.

  ==> MemDFJK: Density-Fitted J/K Matrices <==

    J tasked:                   Yes
    K tasked:                   Yes
    wK tasked:                   No
    OpenMP threads:               1
    Memory [MiB]:               336
    Algorithm:                 Core
    Schwarz Cutoff:           1E-12
    Mask sparsity (%):       0.0000
    Fitting Condition:        1E-10

   => Auxiliary Basis Set <=

  Basis Set: (CC-PVDZ AUX)
    Blend: CC-PVDZ-JKFIT
    Number of shells: 60
    Number of basis functions: 182
    Number of Cartesian functions: 211
    Spherical Harmonics?: true
    Max angular momentum: 3

  Cached 100.0% of DFT collocation blocks in 0.037 [GiB].

  Minimum eigenvalue in the overlap matrix is 5.0001811451E-02.
  Reciprocal condition number of the overlap matrix is 1.8469311253E-02.
    Using symmetric orthogonalization.

  ==> Pre-Iterations <==

  SCF Guess: Orbitals guess was supplied from a previous computation.

   -------------------------------------------------------
    Irrep   Nso     Nmo     Nalpha   Nbeta   Ndocc  Nsocc
   -------------------------------------------------------
     A1        16      16       8       7       7       1
     A2         2       2       0       0       0       0
     B1         7       7       3       2       2       1
     B2         7       7       3       3       3       0
   -------------------------------------------------------
    Total      32      32      14      12      12       2
   -------------------------------------------------------

  ==> Iterations <==

                           Total Energy        Delta E     RMS |[F,P]|

   @DF-UKS iter   0:  -588.19812405172206   -5.88198e+02   5.95780e-02 
   @DF-UKS iter   1:  -588.22045008665168   -2.23260e-02   5.28973e-03 DIIS/ADIIS
   @DF-UKS iter   2:  -588.22253634162405   -2.08625e-03   5.17615e-03 DIIS/ADIIS/DAMP=1%
   @DF-UKS iter   3:  -588.22555056474903   -3.01422e-03   9.09113e-04 DIIS/ADIIS/DAMP=1%
   @DF-UKS iter   4:  -588.22677823876029   -1.22767e-03   8.58319e-05 DIIS/DAMP=1%
   @DF-UKS iter   5:  -588.22595194977362    8.26289e-04   1.85593e-05 DIIS/DAMP=1%
   @DF-UKS iter   6:  -588.22602794043917   -7.59907e-05   3.57898e-06 DIIS/DAMP=1%
   @DF-UKS iter   7:  -588.22601349347713    1.44470e-05   4.65602e-07 DIIS/DAMP=1%
   @DF-UKS iter   8:  -588.22601527572101   -1.78224e-06   7.83163e-08 DIIS/DAMP=1%
   @DF-UKS iter   9:  -588.22601495822710    3.17494e-07   6.36501e-09 DIIS/DAMP=1%
   @DF-UKS iter  10:  -588.22601500692542   -4.86983e-08   7.61400e-10 DIIS/DAMP=1%
   @DF-UKS iter  11:  -588.22601500526821    1.65721e-09   8.56836e-11 DIIS/DAMP=1%
  Energy and wave function converged.


  ==> Post-Iterations <==

   Electrons on quadrature grid:
      Nalpha   =   14.0000017666 ; deviation = 1.767e-06
      Nbeta    =   12.0000019974 ; deviation = 1.997e-06
      Ntotal   =   26.0000037639 ; deviation = 3.764e-06 

   @Spin Contamination Metric:   2.321773320E-03
   @S^2 Expected:                2.000000000E+00
   @S^2 Observed:                2.002321773E+00
   @S   Expected:                1.000000000E+00
   @S   Observed:                1.000000000E+00

    Orbital Energies [Eh]
    ---------------------

    Alpha Occupied:                                                       

       1A1  -101.993966     2A1   -31.531125     3A1    -9.915650  
       4A1    -7.684067     1B1    -7.680710     1B2    -7.655662  
       5A1    -2.123488     6A1    -1.356682     2B1    -1.156750  
       2B2    -1.142682     7A1    -1.063288     3B1    -0.741240  
       3B2    -0.687022     8A1    -0.517896  

    Alpha Virtual:                                                        

       9A1     0.152929     4B1     0.169720     4B2     0.200743  
      10A1     0.258999     5B1     0.288049    11A1     0.296236  
       1A2     0.296538     5B2     0.327874    12A1     0.576629  
       6B1     1.028918     6B2     1.040364    13A1     1.042590  
      14A1     2.132913    15A1     4.141772     2A2     4.141778  
       7B1     4.202199     7B2     4.211885    16A1     4.610986  

    Beta Occupied:                                                        

       1A1  -101.980644     2A1   -31.517110     3A1    -9.902311  
       4A1    -7.661502     1B1    -7.653303     1B2    -7.647641  
       5A1    -2.091491     6A1    -1.307925     2B2    -1.128759  
       2B1    -1.123795     7A1    -0.980680     3B2    -0.654586  

    Beta Virtual:                                                         

       3B1    -0.560318     8A1    -0.357238     9A1     0.190848  
       4B2     0.219295     4B1     0.223505    10A1     0.298076  
       1A2     0.365186     5B2     0.369151    11A1     0.370526  
       5B1     0.376932    12A1     0.642056     6B1     1.048012  
       6B2     1.050293    13A1     1.071017    14A1     2.151271  
       2A2     4.155561    15A1     4.155641     7B1     4.227688  
       7B2     4.229778    16A1     4.636685  

    Final Occupation by Irrep:
             A1    A2    B1    B2 
    DOCC [     7,    0,    2,    3 ]
    SOCC [     1,    0,    1,    0 ]
    NA   [     8,    0,    3,    3 ]
    NB   [     7,    0,    2,    3 ]

  @DF-UKS Final Energy:  -588.22601500526821

   => Energetics <=

    Nuclear Repulsion Energy =             66.2161289347655071
    One-Electron Energy =                -936.7052371675451923
    Two-Electron Energy =                 314.9585717089966010
    DFT Exchange-Correlation Energy =     -32.6954784814850896
    Empirical Dispersion Energy =           0.0000000000000000
    VV10 Nonlocal Energy =                  0.0000000000000000
    Total Energy =                       -588.2260150052682093

  UHF NO Occupations:
  HONO-2 :    7 A1 1.9991715
  HONO-1 :    8 A1 1.0000000
  HONO-0 :    3 B1 1.0000000
  LUNO+0 :    9 A1 0.0008285
  LUNO+1 :    4 B2 0.0001478
  LUNO+2 :   10 A1 0.0000884
  LUNO+3 :    4 B1 0.0000819


Computation Completed


Properties will be evaluated at   0.000000,   0.000000,   0.000000 [a0]

Properties computed using the SCF density matrix


 Multipole Moments:

 ------------------------------------------------------------------------------------
     Multipole            Electronic (a.u.)      Nuclear  (a.u.)        Total (a.u.)
 ------------------------------------------------------------------------------------

 L = 1.  Multiply by 2.5417464519 to convert [e a0] to [Debye]
 Dipole X            :          0.0000000            0.0000000            0.0000000
 Dipole Y            :          0.0000000            0.0000000            0.0000000
 Dipole Z            :         -0.0842407            0.4585735            0.3743328
 Magnitude           :                                                    0.3743328

 ------------------------------------------------------------------------------------

*** tstop() called on Joses-MacBook-Pro-2.local at Thu Jul 17 14:42:54 2025
Module time:
	user time   =       3.25 seconds =       0.05 minutes
	system time =       4.62 seconds =       0.08 minutes
	total time  =          1 seconds =       0.02 minutes
Total time:
	user time   =       8.53 seconds =       0.14 minutes
	system time =      10.20 seconds =       0.17 minutes
	total time  =          2 seconds =       0.03 minutes

*** tstart() called on Joses-MacBook-Pro-2.local
*** at Thu Jul 17 14:42:54 2025


         ------------------------------------------------------------
                                   SCF GRAD                          
                          Rob Parrish, Justin Turney,                
                       Andy Simmonett, and Alex Sokolov              
         ------------------------------------------------------------

  ==> Geometry <==

    Molecular point group: c2v
    Full point group: C_inf_v

    Geometry (in Angstrom), charge = 1, multiplicity = 3:

       Center              X                  Y                   Z               Mass       
    ------------   -----------------  -----------------  -----------------  -----------------
         NE           0.000000000000     0.000000000000     0.864391941989    19.992440176200
         CL           0.000000000000     0.000000000000    -0.494191340681    34.968852682000

  Nuclear repulsion =   66.216128934765507

  ==> Basis Set <==

  Basis Set: CC-PVDZ
    Blend: CC-PVDZ
    Number of shells: 14
    Number of basis functions: 32
    Number of Cartesian functions: 34
    Spherical Harmonics?: true
    Max angular momentum: 2

  ==> DFJKGrad: Density-Fitted SCF Gradients <==

    Gradient:                    1
    J tasked:                  Yes
    K tasked:                  Yes
    wK tasked:                  No
    OpenMP threads:              1
    Integrals threads:           1
    Memory [MiB]:              375
    Schwarz Cutoff:          1E-12
    Fitting Condition:       1E-10

   => Auxiliary Basis Set <=

  Basis Set: (CC-PVDZ AUX)
    Blend: CC-PVDZ-JKFIT
    Number of shells: 60
    Number of basis functions: 182
    Number of Cartesian functions: 211
    Spherical Harmonics?: true
    Max angular momentum: 3

  ==> DFT Potential <==

   => LibXC <=

    Version 6.2.2
    S. Lehtola, C. Steigemann, M. J.T. Oliveira, and M. A.L. Marques.,  SoftwareX 7, 1–5 (2018) (10.1016/j.softx.2017.11.002)

   => Composite Functional: B3LYP <= 

    B3LYP Hyb-GGA Exchange-Correlation Functional

    P. J. Stephens, F. J. Devlin, C. F. Chabalowski, and M. J. Frisch.,  J. Phys. Chem. 98, 11623 (1994) (10.1021/j100096a001)

    Deriv               =              1
    GGA                 =           TRUE
    Meta                =          FALSE

    Exchange Hybrid     =           TRUE
    MP2 Hybrid          =          FALSE

   => Exchange Functionals <=

    0.0800   Slater exchange
    0.7200         Becke 88

   => Exact (HF) Exchange <=

    0.2000               HF 

   => Correlation Functionals <=

    0.1900   Vosko, Wilk & Nusair (VWN5_RPA)
    0.8100   Lee, Yang & Parr

   => LibXC Density Thresholds  <==

    XC_HYB_GGA_XC_B3LYP:  1.00E-15 

   => Molecular Quadrature <=

    Radial Scheme          =       TREUTLER
    Pruning Scheme         =           NONE
    Nuclear Scheme         =       TREUTLER

    Blocking Scheme        =         OCTREE
    BS radius alpha        =              1
    Pruning alpha          =              1
    Radial Points          =             75
    Spherical Points       =            302
    Total Points           =          41765
    Total Blocks           =            373
    Max Points             =            256
    Max Functions          =             32
    Weights Tolerance      =       1.00E-15


  -Total Gradient:
     Atom            X                  Y                   Z
    ------   -----------------  -----------------  -----------------
       1        0.000000000000     0.000000000000    -0.786130047414
       2        0.000000000000     0.000000000000     0.786035680366


*** tstop() called on Joses-MacBook-Pro-2.local at Thu Jul 17 14:42:54 2025
Module time:
	user time   =       0.86 seconds =       0.01 minutes
	system time =       1.47 seconds =       0.02 minutes
	total time  =          0 seconds =       0.00 minutes
Total time:
	user time   =       9.39 seconds =       0.16 minutes
	system time =      11.67 seconds =       0.19 minutes
	total time  =          2 seconds =       0.03 minutes

    			-----------------------------------------

    			 OPTKING 3.0: for geometry optimizations 

    			     By R.A. King, Bethel University     

    			        with contributions from          

    			    A.V. Copan, J. Cayton, A. Heide      

    			-----------------------------------------

    
	                            ===> Fragment 1 <== 

	 Z (Atomic Numbers)          Masses                          Geom                  
	      10.000000            19.992440          0.00000000  0.00000000  1.63346404   
	      17.000000            34.968853          0.00000000  0.00000000 -0.93388629   

	 - Coordinate -           - BOHR/RAD -       - ANG/DEG -
	 R(1,2)           =         2.567350           1.358583


	        --- Internal Coordinate Step in ANG or DEG, aJ/ANG or AJ/DEG ---
	-------------------------------------------------------------------------------
	           Coordinate      Previous         Force          Change          New 
	           ----------      --------        ------          ------        ------
	               R(1,2)       1.35858        6.47632        0.17674       1.53532
	-------------------------------------------------------------------------------

	                                 ==> Convergence Check <==                                  
    
	Measures of convergence in internal coordinates in au.
    
	Criteria marked as inactive (o), active & met (*), and active & unmet ( ).

	----------------------------------------------------------------------------------------------
	   Step    Total Energy     Delta E     Max Force     RMS Force      Max Disp      RMS Disp   
	----------------------------------------------------------------------------------------------
	  Convergence Criteria     1.00e-06 *    3.00e-04 *             o    1.20e-03 *             o
	----------------------------------------------------------------------------------------------
	     2    -588.22601501   -3.15e-01      7.86e-01      7.86e-01 o    3.34e-01      3.34e-01 o  ~
	----------------------------------------------------------------------------------------------

Next Geometry in Ang 
	Fragment 1 (Ang)

	   Ne   0.0000000000   0.0000000000   0.9527605020
	   Cl   0.0000000000   0.0000000000  -0.5825599007


    Structure for next step:
    Molecular point group: c2v
    Full point group: C_inf_v

    Geometry (in Angstrom), charge = 1, multiplicity = 3:

    NE           0.000000000000     0.000000000000     0.976840066691
    CL           0.000000000000     0.000000000000    -0.558480335990


Scratch directory: /tmp/
gradient() will perform analytic gradient computation.
   => Libint2 <=

    Primary   basis highest AM E, G, H:  6, 6, 3
    Auxiliary basis highest AM E, G, H:  7, 7, 4
    Onebody   basis highest AM E, G, H:  -, -, -
    Solid Harmonics ordering:            Gaussian

*** tstart() called on Joses-MacBook-Pro-2.local
*** at Thu Jul 17 14:42:54 2025

   => Loading Basis Set <=

    Name: CC-PVDZ
    Role: ORBITAL
    Keyword: BASIS
    atoms 1 entry NE         line   258 file /Users/joseantoniorodriguesromero/anaconda3/share/psi4/basis/cc-pvdz.gbs 
    atoms 2 entry CL         line   658 file /Users/joseantoniorodriguesromero/anaconda3/share/psi4/basis/cc-pvdz.gbs 


         ---------------------------------------------------------
                                   SCF
               by Justin Turney, Rob Parrish, Andy Simmonett
                          and Daniel G. A. Smith
                              UKS Reference
                        1 Threads,    500 MiB Core
         ---------------------------------------------------------

  ==> Geometry <==

    Molecular point group: c2v
    Full point group: C_inf_v

    Geometry (in Angstrom), charge = 1, multiplicity = 3:

       Center              X                  Y                   Z               Mass       
    ------------   -----------------  -----------------  -----------------  -----------------
         NE           0.000000000000     0.000000000000     0.976840066691    19.992440176200
         CL           0.000000000000     0.000000000000    -0.558480335990    34.968852682000

  Running in c2v symmetry.

  Rotational constants: A = ************  B =      0.56222  C =      0.56222 [cm^-1]
  Rotational constants: A = ************  B =  16855.00588  C =  16855.00588 [MHz]
  Nuclear repulsion =   58.593714808179961

  Charge       = 1
  Multiplicity = 3
  Electrons    = 26
  Nalpha       = 14
  Nbeta        = 12

  ==> Algorithm <==

  SCF Algorithm Type is DF.
  DIIS enabled.
  MOM disabled.
  Fractional occupation disabled.
  Guess Type is READ.
  Energy threshold   = 1.00e-08
  Density threshold  = 1.00e-08
  Integral threshold = 1.00e-12

  ==> Primary Basis <==

  Basis Set: CC-PVDZ
    Blend: CC-PVDZ
    Number of shells: 14
    Number of basis functions: 32
    Number of Cartesian functions: 34
    Spherical Harmonics?: true
    Max angular momentum: 2

  ==> DFT Potential <==

   => LibXC <=

    Version 6.2.2
    S. Lehtola, C. Steigemann, M. J.T. Oliveira, and M. A.L. Marques.,  SoftwareX 7, 1–5 (2018) (10.1016/j.softx.2017.11.002)

   => Composite Functional: B3LYP <= 

    B3LYP Hyb-GGA Exchange-Correlation Functional

    P. J. Stephens, F. J. Devlin, C. F. Chabalowski, and M. J. Frisch.,  J. Phys. Chem. 98, 11623 (1994) (10.1021/j100096a001)

    Deriv               =              1
    GGA                 =           TRUE
    Meta                =          FALSE

    Exchange Hybrid     =           TRUE
    MP2 Hybrid          =          FALSE

   => Exchange Functionals <=

    0.0800   Slater exchange
    0.7200         Becke 88

   => Exact (HF) Exchange <=

    0.2000               HF 

   => Correlation Functionals <=

    0.1900   Vosko, Wilk & Nusair (VWN5_RPA)
    0.8100   Lee, Yang & Parr

   => LibXC Density Thresholds  <==

    XC_HYB_GGA_XC_B3LYP:  1.00E-15 

   => Molecular Quadrature <=

    Radial Scheme          =       TREUTLER
    Pruning Scheme         =           NONE
    Nuclear Scheme         =       TREUTLER

    Blocking Scheme        =         OCTREE
    BS radius alpha        =              1
    Pruning alpha          =              1
    Radial Points          =             75
    Spherical Points       =            302
    Total Points           =          41813
    Total Blocks           =            376
    Max Points             =            256
    Max Functions          =             32
    Weights Tolerance      =       1.00E-15

   => Loading Basis Set <=

    Name: (CC-PVDZ AUX)
    Role: JKFIT
    Keyword: DF_BASIS_SCF
    atoms 1 entry NE         line   321 file /Users/joseantoniorodriguesromero/anaconda3/share/psi4/basis/cc-pvdz-jkfit.gbs 
    atoms 2 entry CL         line   667 file /Users/joseantoniorodriguesromero/anaconda3/share/psi4/basis/cc-pvdz-jkfit.gbs 

   => Loading Basis Set <=

    Name: CC-PVDZ
    Role: ORBITAL
    Keyword: BASIS
    atoms 1 entry NE         line   258 file /Users/joseantoniorodriguesromero/anaconda3/share/psi4/basis/cc-pvdz.gbs 
    atoms 2 entry CL         line   658 file /Users/joseantoniorodriguesromero/anaconda3/share/psi4/basis/cc-pvdz.gbs 

  Reading orbitals from file /tmp/triplet_NeCl.default.74838.180.npy, no projection.

  ==> Integral Setup <==

  DFHelper Memory: AOs need 0.002 GiB; user supplied 0.329 GiB. 
  Using in-core AOs.

  ==> MemDFJK: Density-Fitted J/K Matrices <==

    J tasked:                   Yes
    K tasked:                   Yes
    wK tasked:                   No
    OpenMP threads:               1
    Memory [MiB]:               337
    Algorithm:                 Core
    Schwarz Cutoff:           1E-12
    Mask sparsity (%):       0.0000
    Fitting Condition:        1E-10

   => Auxiliary Basis Set <=

  Basis Set: (CC-PVDZ AUX)
    Blend: CC-PVDZ-JKFIT
    Number of shells: 60
    Number of basis functions: 182
    Number of Cartesian functions: 211
    Spherical Harmonics?: true
    Max angular momentum: 3

  Cached 100.0% of DFT collocation blocks in 0.037 [GiB].

  Minimum eigenvalue in the overlap matrix is 6.2280100411E-02.
  Reciprocal condition number of the overlap matrix is 2.4587595494E-02.
    Using symmetric orthogonalization.

  ==> Pre-Iterations <==

  SCF Guess: Orbitals guess was supplied from a previous computation.

   -------------------------------------------------------
    Irrep   Nso     Nmo     Nalpha   Nbeta   Ndocc  Nsocc
   -------------------------------------------------------
     A1        16      16       8       7       7       1
     A2         2       2       0       0       0       0
     B1         7       7       3       2       2       1
     B2         7       7       3       3       3       0
   -------------------------------------------------------
    Total      32      32      14      12      12       2
   -------------------------------------------------------

  ==> Iterations <==

                           Total Energy        Delta E     RMS |[F,P]|

   @DF-UKS iter   0:  -588.42022121799300   -5.88420e+02   4.74470e-02 
   @DF-UKS iter   1:  -588.41640560474934    3.81561e-03   4.29951e-03 DIIS/ADIIS
   @DF-UKS iter   2:  -588.41805675107139   -1.65115e-03   4.04551e-03 DIIS/ADIIS/DAMP=1%
   @DF-UKS iter   3:  -588.42025070081968   -2.19395e-03   9.17375e-04 DIIS/ADIIS/DAMP=1%
   @DF-UKS iter   4:  -588.42106252301733   -8.11822e-04   6.76590e-05 DIIS/DAMP=1%
   @DF-UKS iter   5:  -588.42034258766989    7.19935e-04   1.31397e-05 DIIS/DAMP=1%
   @DF-UKS iter   6:  -588.42037770673915   -3.51191e-05   2.45178e-06 DIIS/DAMP=1%
   @DF-UKS iter   7:  -588.42037038634351    7.32040e-06   5.09284e-07 DIIS/DAMP=1%
   @DF-UKS iter   8:  -588.42037162694010   -1.24060e-06   6.02280e-08 DIIS/DAMP=1%
   @DF-UKS iter   9:  -588.42037154060768    8.63324e-08   1.18105e-08 DIIS/DAMP=1%
   @DF-UKS iter  10:  -588.42037157238406   -3.17764e-08   1.27703e-09 DIIS/DAMP=1%
   @DF-UKS iter  11:  -588.42037156556728    6.81678e-09   1.13025e-10 DIIS/DAMP=1%
  Energy and wave function converged.


  ==> Post-Iterations <==

   Electrons on quadrature grid:
      Nalpha   =   13.9999895285 ; deviation = -1.047e-05
      Nbeta    =   11.9999901898 ; deviation = -9.810e-06
      Ntotal   =   25.9999797183 ; deviation = -2.028e-05 

   @Spin Contamination Metric:   2.445374338E-03
   @S^2 Expected:                2.000000000E+00
   @S^2 Observed:                2.002445374E+00
   @S   Expected:                1.000000000E+00
   @S   Observed:                1.000000000E+00

    Orbital Energies [Eh]
    ---------------------

    Alpha Occupied:                                                       

       1A1  -101.990577     2A1   -31.450843     3A1    -9.909241  
       1B1    -7.676520     4A1    -7.676479     1B2    -7.651236  
       5A1    -1.977782     6A1    -1.290536     7A1    -1.047596  
       2B1    -1.045451     2B2    -1.035336     3B1    -0.753086  
       3B2    -0.698085     8A1    -0.601825  

    Alpha Virtual:                                                        

       9A1     0.142437     4B1     0.182735     4B2     0.214291  
      10A1     0.249212     5B1     0.259691    11A1     0.300020  
       5B2     0.300285     1A2     0.300857    12A1     0.502240  
       6B1     1.063196     6B2     1.072697    13A1     1.101484  
      14A1     2.110894     2A2     4.238938    15A1     4.239038  
       7B1     4.244035     7B2     4.250384    16A1     4.447819  

    Beta Occupied:                                                        

       1A1  -101.976360     2A1   -31.438110     3A1    -9.895170  
       4A1    -7.650810     1B1    -7.648613     1B2    -7.642759  
       5A1    -1.949089     6A1    -1.218506     2B2    -1.023205  
       2B1    -1.019387     7A1    -0.973423     3B2    -0.665875  

    Beta Virtual:                                                         

       3B1    -0.571456     8A1    -0.435126     9A1     0.185288  
       4B2     0.231649     4B1     0.236085    10A1     0.288342  
       5B2     0.348021     5B1     0.357340     1A2     0.368727  
      11A1     0.374316    12A1     0.573120     6B1     1.079461  
       6B2     1.081349    13A1     1.122489    14A1     2.132602  
       2A2     4.250103    15A1     4.250265     7B1     4.269177  
       7B2     4.270719    16A1     4.475082  

    Final Occupation by Irrep:
             A1    A2    B1    B2 
    DOCC [     7,    0,    2,    3 ]
    SOCC [     1,    0,    1,    0 ]
    NA   [     8,    0,    3,    3 ]
    NB   [     7,    0,    2,    3 ]

  @DF-UKS Final Energy:  -588.42037156556728

   => Energetics <=

    Nuclear Repulsion Energy =             58.5937148081799606
    One-Electron Energy =                -922.8835577583524810
    Two-Electron Energy =                 308.5037831381090427
    DFT Exchange-Correlation Energy =     -32.6343117535037948
    Empirical Dispersion Energy =           0.0000000000000000
    VV10 Nonlocal Energy =                  0.0000000000000000
    Total Energy =                       -588.4203715655672795

  UHF NO Occupations:
  HONO-2 :    7 A1 1.9991537
  HONO-1 :    3 B1 1.0000000
  HONO-0 :    8 A1 1.0000000
  LUNO+0 :    9 A1 0.0008463
  LUNO+1 :    4 B2 0.0001486
  LUNO+2 :   10 A1 0.0001439
  LUNO+3 :    4 B1 0.0000687


Computation Completed


Properties will be evaluated at   0.000000,   0.000000,   0.000000 [a0]

Properties computed using the SCF density matrix


 Multipole Moments:

 ------------------------------------------------------------------------------------
     Multipole            Electronic (a.u.)      Nuclear  (a.u.)        Total (a.u.)
 ------------------------------------------------------------------------------------

 L = 1.  Multiply by 2.5417464519 to convert [e a0] to [Debye]
 Dipole X            :          0.0000000            0.0000000            0.0000000
 Dipole Y            :          0.0000000            0.0000000            0.0000000
 Dipole Z            :         -0.5365149            0.5182290           -0.0182859
 Magnitude           :                                                    0.0182859

 ------------------------------------------------------------------------------------

*** tstop() called on Joses-MacBook-Pro-2.local at Thu Jul 17 14:42:55 2025
Module time:
	user time   =       3.96 seconds =       0.07 minutes
	system time =       4.06 seconds =       0.07 minutes
	total time  =          1 seconds =       0.02 minutes
Total time:
	user time   =      13.43 seconds =       0.22 minutes
	system time =      15.96 seconds =       0.27 minutes
	total time  =          3 seconds =       0.05 minutes

*** tstart() called on Joses-MacBook-Pro-2.local
*** at Thu Jul 17 14:42:55 2025


         ------------------------------------------------------------
                                   SCF GRAD                          
                          Rob Parrish, Justin Turney,                
                       Andy Simmonett, and Alex Sokolov              
         ------------------------------------------------------------

  ==> Geometry <==

    Molecular point group: c2v
    Full point group: C_inf_v

    Geometry (in Angstrom), charge = 1, multiplicity = 3:

       Center              X                  Y                   Z               Mass       
    ------------   -----------------  -----------------  -----------------  -----------------
         NE           0.000000000000     0.000000000000     0.976840066691    19.992440176200
         CL           0.000000000000     0.000000000000    -0.558480335990    34.968852682000

  Nuclear repulsion =   58.593714808179961

  ==> Basis Set <==

  Basis Set: CC-PVDZ
    Blend: CC-PVDZ
    Number of shells: 14
    Number of basis functions: 32
    Number of Cartesian functions: 34
    Spherical Harmonics?: true
    Max angular momentum: 2

  ==> DFJKGrad: Density-Fitted SCF Gradients <==

    Gradient:                    1
    J tasked:                  Yes
    K tasked:                  Yes
    wK tasked:                  No
    OpenMP threads:              1
    Integrals threads:           1
    Memory [MiB]:              375
    Schwarz Cutoff:          1E-12
    Fitting Condition:       1E-10

   => Auxiliary Basis Set <=

  Basis Set: (CC-PVDZ AUX)
    Blend: CC-PVDZ-JKFIT
    Number of shells: 60
    Number of basis functions: 182
    Number of Cartesian functions: 211
    Spherical Harmonics?: true
    Max angular momentum: 3

  ==> DFT Potential <==

   => LibXC <=

    Version 6.2.2
    S. Lehtola, C. Steigemann, M. J.T. Oliveira, and M. A.L. Marques.,  SoftwareX 7, 1–5 (2018) (10.1016/j.softx.2017.11.002)

   => Composite Functional: B3LYP <= 

    B3LYP Hyb-GGA Exchange-Correlation Functional

    P. J. Stephens, F. J. Devlin, C. F. Chabalowski, and M. J. Frisch.,  J. Phys. Chem. 98, 11623 (1994) (10.1021/j100096a001)

    Deriv               =              1
    GGA                 =           TRUE
    Meta                =          FALSE

    Exchange Hybrid     =           TRUE
    MP2 Hybrid          =          FALSE

   => Exchange Functionals <=

    0.0800   Slater exchange
    0.7200         Becke 88

   => Exact (HF) Exchange <=

    0.2000               HF 

   => Correlation Functionals <=

    0.1900   Vosko, Wilk & Nusair (VWN5_RPA)
    0.8100   Lee, Yang & Parr

   => LibXC Density Thresholds  <==

    XC_HYB_GGA_XC_B3LYP:  1.00E-15 

   => Molecular Quadrature <=

    Radial Scheme          =       TREUTLER
    Pruning Scheme         =           NONE
    Nuclear Scheme         =       TREUTLER

    Blocking Scheme        =         OCTREE
    BS radius alpha        =              1
    Pruning alpha          =              1
    Radial Points          =             75
    Spherical Points       =            302
    Total Points           =          41813
    Total Blocks           =            376
    Max Points             =            256
    Max Functions          =             32
    Weights Tolerance      =       1.00E-15


  -Total Gradient:
     Atom            X                  Y                   Z
    ------   -----------------  -----------------  -----------------
       1        0.000000000000     0.000000000000    -0.412366122838
       2       -0.000000000000     0.000000000000     0.412251741825


*** tstop() called on Joses-MacBook-Pro-2.local at Thu Jul 17 14:42:55 2025
Module time:
	user time   =       0.74 seconds =       0.01 minutes
	system time =       1.80 seconds =       0.03 minutes
	total time  =          0 seconds =       0.00 minutes
Total time:
	user time   =      14.17 seconds =       0.24 minutes
	system time =      17.77 seconds =       0.30 minutes
	total time  =          3 seconds =       0.05 minutes

    			-----------------------------------------

    			 OPTKING 3.0: for geometry optimizations 

    			     By R.A. King, Bethel University     

    			        with contributions from          

    			    A.V. Copan, J. Cayton, A. Heide      

    			-----------------------------------------

    
	                            ===> Fragment 1 <== 

	 Z (Atomic Numbers)          Masses                          Geom                  
	      10.000000            19.992440          0.00000000  0.00000000  1.84596019   
	      17.000000            34.968853          0.00000000  0.00000000 -1.05537488   

	 - Coordinate -           - BOHR/RAD -       - ANG/DEG -
	 R(1,2)           =         2.901335           1.535320


	        --- Internal Coordinate Step in ANG or DEG, aJ/ANG or AJ/DEG ---
	-------------------------------------------------------------------------------
	           Coordinate      Previous         Force          Change          New 
	           ----------      --------        ------          ------        ------
	               R(1,2)       1.53532        3.39690        0.17390       1.70922
	-------------------------------------------------------------------------------

	                                 ==> Convergence Check <==                                  
    
	Measures of convergence in internal coordinates in au.
    
	Criteria marked as inactive (o), active & met (*), and active & unmet ( ).

	----------------------------------------------------------------------------------------------
	   Step    Total Energy     Delta E     Max Force     RMS Force      Max Disp      RMS Disp   
	----------------------------------------------------------------------------------------------
	  Convergence Criteria     1.00e-06 *    3.00e-04 *             o    1.20e-03 *             o
	----------------------------------------------------------------------------------------------
	     3    -588.42037157   -1.94e-01      4.12e-01      4.12e-01 o    3.29e-01      3.29e-01 o  ~
	----------------------------------------------------------------------------------------------

Next Geometry in Ang 
	Fragment 1 (Ang)

	   Ne   0.0000000000   0.0000000000   1.0637916838
	   Cl   0.0000000000   0.0000000000  -0.6454319531


    Structure for next step:
    Molecular point group: c2v
    Full point group: C_inf_v

    Geometry (in Angstrom), charge = 1, multiplicity = 3:

    NE           0.000000000000     0.000000000000     1.087485145433
    CL           0.000000000000     0.000000000000    -0.621738491402


Scratch directory: /tmp/
gradient() will perform analytic gradient computation.
   => Libint2 <=

    Primary   basis highest AM E, G, H:  6, 6, 3
    Auxiliary basis highest AM E, G, H:  7, 7, 4
    Onebody   basis highest AM E, G, H:  -, -, -
    Solid Harmonics ordering:            Gaussian

*** tstart() called on Joses-MacBook-Pro-2.local
*** at Thu Jul 17 14:42:55 2025

   => Loading Basis Set <=

    Name: CC-PVDZ
    Role: ORBITAL
    Keyword: BASIS
    atoms 1 entry NE         line   258 file /Users/joseantoniorodriguesromero/anaconda3/share/psi4/basis/cc-pvdz.gbs 
    atoms 2 entry CL         line   658 file /Users/joseantoniorodriguesromero/anaconda3/share/psi4/basis/cc-pvdz.gbs 


         ---------------------------------------------------------
                                   SCF
               by Justin Turney, Rob Parrish, Andy Simmonett
                          and Daniel G. A. Smith
                              UKS Reference
                        1 Threads,    500 MiB Core
         ---------------------------------------------------------

  ==> Geometry <==

    Molecular point group: c2v
    Full point group: C_inf_v

    Geometry (in Angstrom), charge = 1, multiplicity = 3:

       Center              X                  Y                   Z               Mass       
    ------------   -----------------  -----------------  -----------------  -----------------
         NE           0.000000000000     0.000000000000     1.087485145433    19.992440176200
         CL           0.000000000000     0.000000000000    -0.621738491402    34.968852682000

  Running in c2v symmetry.

  Rotational constants: A = ************  B =      0.45364  C =      0.45364 [cm^-1]
  Rotational constants: A = ************  B =  13599.69507  C =  13599.69507 [MHz]
  Nuclear repulsion =   52.632156421899055

  Charge       = 1
  Multiplicity = 3
  Electrons    = 26
  Nalpha       = 14
  Nbeta        = 12

  ==> Algorithm <==

  SCF Algorithm Type is DF.
  DIIS enabled.
  MOM disabled.
  Fractional occupation disabled.
  Guess Type is READ.
  Energy threshold   = 1.00e-08
  Density threshold  = 1.00e-08
  Integral threshold = 1.00e-12

  ==> Primary Basis <==

  Basis Set: CC-PVDZ
    Blend: CC-PVDZ
    Number of shells: 14
    Number of basis functions: 32
    Number of Cartesian functions: 34
    Spherical Harmonics?: true
    Max angular momentum: 2

  ==> DFT Potential <==

   => LibXC <=

    Version 6.2.2
    S. Lehtola, C. Steigemann, M. J.T. Oliveira, and M. A.L. Marques.,  SoftwareX 7, 1–5 (2018) (10.1016/j.softx.2017.11.002)

   => Composite Functional: B3LYP <= 

    B3LYP Hyb-GGA Exchange-Correlation Functional

    P. J. Stephens, F. J. Devlin, C. F. Chabalowski, and M. J. Frisch.,  J. Phys. Chem. 98, 11623 (1994) (10.1021/j100096a001)

    Deriv               =              1
    GGA                 =           TRUE
    Meta                =          FALSE

    Exchange Hybrid     =           TRUE
    MP2 Hybrid          =          FALSE

   => Exchange Functionals <=

    0.0800   Slater exchange
    0.7200         Becke 88

   => Exact (HF) Exchange <=

    0.2000               HF 

   => Correlation Functionals <=

    0.1900   Vosko, Wilk & Nusair (VWN5_RPA)
    0.8100   Lee, Yang & Parr

   => LibXC Density Thresholds  <==

    XC_HYB_GGA_XC_B3LYP:  1.00E-15 

   => Molecular Quadrature <=

    Radial Scheme          =       TREUTLER
    Pruning Scheme         =           NONE
    Nuclear Scheme         =       TREUTLER

    Blocking Scheme        =         OCTREE
    BS radius alpha        =              1
    Pruning alpha          =              1
    Radial Points          =             75
    Spherical Points       =            302
    Total Points           =          41867
    Total Blocks           =            371
    Max Points             =            256
    Max Functions          =             32
    Weights Tolerance      =       1.00E-15

   => Loading Basis Set <=

    Name: (CC-PVDZ AUX)
    Role: JKFIT
    Keyword: DF_BASIS_SCF
    atoms 1 entry NE         line   321 file /Users/joseantoniorodriguesromero/anaconda3/share/psi4/basis/cc-pvdz-jkfit.gbs 
    atoms 2 entry CL         line   667 file /Users/joseantoniorodriguesromero/anaconda3/share/psi4/basis/cc-pvdz-jkfit.gbs 

   => Loading Basis Set <=

    Name: CC-PVDZ
    Role: ORBITAL
    Keyword: BASIS
    atoms 1 entry NE         line   258 file /Users/joseantoniorodriguesromero/anaconda3/share/psi4/basis/cc-pvdz.gbs 
    atoms 2 entry CL         line   658 file /Users/joseantoniorodriguesromero/anaconda3/share/psi4/basis/cc-pvdz.gbs 

  Reading orbitals from file /tmp/triplet_NeCl.default.74838.180.npy, no projection.

  ==> Integral Setup <==

  DFHelper Memory: AOs need 0.002 GiB; user supplied 0.329 GiB. 
  Using in-core AOs.

  ==> MemDFJK: Density-Fitted J/K Matrices <==

    J tasked:                   Yes
    K tasked:                   Yes
    wK tasked:                   No
    OpenMP threads:               1
    Memory [MiB]:               337
    Algorithm:                 Core
    Schwarz Cutoff:           1E-12
    Mask sparsity (%):       0.0000
    Fitting Condition:        1E-10

   => Auxiliary Basis Set <=

  Basis Set: (CC-PVDZ AUX)
    Blend: CC-PVDZ-JKFIT
    Number of shells: 60
    Number of basis functions: 182
    Number of Cartesian functions: 211
    Spherical Harmonics?: true
    Max angular momentum: 3

  Cached 100.0% of DFT collocation blocks in 0.037 [GiB].

  Minimum eigenvalue in the overlap matrix is 7.2951151553E-02.
  Reciprocal condition number of the overlap matrix is 3.0871541388E-02.
    Using symmetric orthogonalization.

  ==> Pre-Iterations <==

  SCF Guess: Orbitals guess was supplied from a previous computation.

   -------------------------------------------------------
    Irrep   Nso     Nmo     Nalpha   Nbeta   Ndocc  Nsocc
   -------------------------------------------------------
     A1        16      16       8       7       7       1
     A2         2       2       0       0       0       0
     B1         7       7       3       2       2       1
     B2         7       7       3       3       3       0
   -------------------------------------------------------
    Total      32      32      14      12      12       2
   -------------------------------------------------------

  ==> Iterations <==

                           Total Energy        Delta E     RMS |[F,P]|

   @DF-UKS iter   0:  -588.52370403720920   -5.88524e+02   2.89593e-02 
   @DF-UKS iter   1:  -588.51687424489728    6.82979e-03   2.70880e-03 DIIS/ADIIS
   @DF-UKS iter   2:  -588.51771426379594   -8.40019e-04   2.20850e-03 DIIS/ADIIS/DAMP=1%
   @DF-UKS iter   3:  -588.51867117510471   -9.56911e-04   7.00435e-04 DIIS/ADIIS/DAMP=1%
   @DF-UKS iter   4:  -588.51892256052417   -2.51385e-04   5.06321e-05 DIIS/DAMP=1%
   @DF-UKS iter   5:  -588.51847154646009    4.51014e-04   1.31459e-05 DIIS/DAMP=1%
   @DF-UKS iter   6:  -588.51849418572976   -2.26393e-05   2.39350e-06 DIIS/DAMP=1%
   @DF-UKS iter   7:  -588.51849319648329    9.89246e-07   5.74664e-07 DIIS/DAMP=1%
   @DF-UKS iter   8:  -588.51849219808344    9.98400e-07   7.84442e-08 DIIS/DAMP=1%
   @DF-UKS iter   9:  -588.51849257686092   -3.78777e-07   1.00153e-08 DIIS/DAMP=1%
   @DF-UKS iter  10:  -588.51849253986677    3.69942e-08   1.16591e-09 DIIS/DAMP=1%
   @DF-UKS iter  11:  -588.51849254036074   -4.93969e-10   8.70376e-11 DIIS/DAMP=1%
  Energy and wave function converged.


  ==> Post-Iterations <==

   Electrons on quadrature grid:
      Nalpha   =   13.9999916990 ; deviation = -8.301e-06
      Nbeta    =   11.9999913315 ; deviation = -8.668e-06
      Ntotal   =   25.9999830306 ; deviation = -1.697e-05 

   @Spin Contamination Metric:   2.471539465E-03
   @S^2 Expected:                2.000000000E+00
   @S^2 Observed:                2.002471539E+00
   @S   Expected:                1.000000000E+00
   @S   Observed:                1.000000000E+00

    Orbital Energies [Eh]
    ---------------------

    Alpha Occupied:                                                       

       1A1  -102.004012     2A1   -31.393429     3A1    -9.918622  
       1B1    -7.687124     4A1    -7.685561     1B2    -7.661584  
       5A1    -1.884207     6A1    -1.264889     7A1    -1.009934  
       2B1    -0.969284     2B2    -0.962170     3B1    -0.764350  
       3B2    -0.708551     8A1    -0.663645  

    Alpha Virtual:                                                        

       9A1     0.149115     4B1     0.187435     4B2     0.218593  
      10A1     0.241252     5B1     0.245422     5B2     0.287510  
      11A1     0.296879     1A2     0.297836    12A1     0.435500  
       6B1     1.076165     6B2     1.083465    13A1     1.151501  
      14A1     2.025593     7B1     4.294169     7B2     4.298228  
      15A1     4.307740     2A2     4.307746    16A1     4.378571  

    Beta Occupied:                                                        

       1A1  -101.989542     2A1   -31.382791     3A1    -9.904394  
       1B1    -7.659015     4A1    -7.658779     1B2    -7.653031  
       5A1    -1.860400     6A1    -1.175636     2B2    -0.952218  
       2B1    -0.949546     7A1    -0.946449     3B2    -0.676451  

    Beta Virtual:                                                         

       3B1    -0.581410     8A1    -0.495302     9A1     0.198597  
       4B2     0.232980     4B1     0.237390    10A1     0.283057  
       5B2     0.342120     5B1     0.353077     1A2     0.365388  
      11A1     0.371143    12A1     0.502245     6B1     1.088593  
       6B2     1.090267    13A1     1.170229    14A1     2.046895  
       2A2     4.316186    15A1     4.316242     7B1     4.317072  
       7B2     4.318161    16A1     4.404254  

    Final Occupation by Irrep:
             A1    A2    B1    B2 
    DOCC [     7,    0,    2,    3 ]
    SOCC [     1,    0,    1,    0 ]
    NA   [     8,    0,    3,    3 ]
    NB   [     7,    0,    2,    3 ]

  @DF-UKS Final Energy:  -588.51849254036074

   => Energetics <=

    Nuclear Repulsion Energy =             52.6321564218990545
    One-Electron Energy =                -911.7057679578745137
    Two-Electron Energy =                 303.1456216411054925
    DFT Exchange-Correlation Energy =     -32.5905026454906519
    Empirical Dispersion Energy =           0.0000000000000000
    VV10 Nonlocal Energy =                  0.0000000000000000
    Total Energy =                       -588.5184925403607394

  UHF NO Occupations:
  HONO-2 :    7 A1 1.9991395
  HONO-1 :    8 A1 1.0000000
  HONO-0 :    3 B1 1.0000000
  LUNO+0 :    9 A1 0.0008605
  LUNO+1 :   10 A1 0.0001858
  LUNO+2 :    4 B2 0.0001297
  LUNO+3 :    4 B1 0.0000464


Computation Completed


Properties will be evaluated at   0.000000,   0.000000,   0.000000 [a0]

Properties computed using the SCF density matrix


 Multipole Moments:

 ------------------------------------------------------------------------------------
     Multipole            Electronic (a.u.)      Nuclear  (a.u.)        Total (a.u.)
 ------------------------------------------------------------------------------------

 L = 1.  Multiply by 2.5417464519 to convert [e a0] to [Debye]
 Dipole X            :          0.0000000            0.0000000            0.0000000
 Dipole Y            :          0.0000000            0.0000000            0.0000000
 Dipole Z            :         -0.9115706            0.5769279           -0.3346427
 Magnitude           :                                                    0.3346427

 ------------------------------------------------------------------------------------

*** tstop() called on Joses-MacBook-Pro-2.local at Thu Jul 17 14:42:56 2025
Module time:
	user time   =       3.51 seconds =       0.06 minutes
	system time =       4.04 seconds =       0.07 minutes
	total time  =          1 seconds =       0.02 minutes
Total time:
	user time   =      17.71 seconds =       0.30 minutes
	system time =      22.03 seconds =       0.37 minutes
	total time  =          4 seconds =       0.07 minutes

*** tstart() called on Joses-MacBook-Pro-2.local
*** at Thu Jul 17 14:42:56 2025


         ------------------------------------------------------------
                                   SCF GRAD                          
                          Rob Parrish, Justin Turney,                
                       Andy Simmonett, and Alex Sokolov              
         ------------------------------------------------------------

  ==> Geometry <==

    Molecular point group: c2v
    Full point group: C_inf_v

    Geometry (in Angstrom), charge = 1, multiplicity = 3:

       Center              X                  Y                   Z               Mass       
    ------------   -----------------  -----------------  -----------------  -----------------
         NE           0.000000000000     0.000000000000     1.087485145433    19.992440176200
         CL           0.000000000000     0.000000000000    -0.621738491402    34.968852682000

  Nuclear repulsion =   52.632156421899055

  ==> Basis Set <==

  Basis Set: CC-PVDZ
    Blend: CC-PVDZ
    Number of shells: 14
    Number of basis functions: 32
    Number of Cartesian functions: 34
    Spherical Harmonics?: true
    Max angular momentum: 2

  ==> DFJKGrad: Density-Fitted SCF Gradients <==

    Gradient:                    1
    J tasked:                  Yes
    K tasked:                  Yes
    wK tasked:                  No
    OpenMP threads:              1
    Integrals threads:           1
    Memory [MiB]:              375
    Schwarz Cutoff:          1E-12
    Fitting Condition:       1E-10

   => Auxiliary Basis Set <=

  Basis Set: (CC-PVDZ AUX)
    Blend: CC-PVDZ-JKFIT
    Number of shells: 60
    Number of basis functions: 182
    Number of Cartesian functions: 211
    Spherical Harmonics?: true
    Max angular momentum: 3

  ==> DFT Potential <==

   => LibXC <=

    Version 6.2.2
    S. Lehtola, C. Steigemann, M. J.T. Oliveira, and M. A.L. Marques.,  SoftwareX 7, 1–5 (2018) (10.1016/j.softx.2017.11.002)

   => Composite Functional: B3LYP <= 

    B3LYP Hyb-GGA Exchange-Correlation Functional

    P. J. Stephens, F. J. Devlin, C. F. Chabalowski, and M. J. Frisch.,  J. Phys. Chem. 98, 11623 (1994) (10.1021/j100096a001)

    Deriv               =              1
    GGA                 =           TRUE
    Meta                =          FALSE

    Exchange Hybrid     =           TRUE
    MP2 Hybrid          =          FALSE

   => Exchange Functionals <=

    0.0800   Slater exchange
    0.7200         Becke 88

   => Exact (HF) Exchange <=

    0.2000               HF 

   => Correlation Functionals <=

    0.1900   Vosko, Wilk & Nusair (VWN5_RPA)
    0.8100   Lee, Yang & Parr

   => LibXC Density Thresholds  <==

    XC_HYB_GGA_XC_B3LYP:  1.00E-15 

   => Molecular Quadrature <=

    Radial Scheme          =       TREUTLER
    Pruning Scheme         =           NONE
    Nuclear Scheme         =       TREUTLER

    Blocking Scheme        =         OCTREE
    BS radius alpha        =              1
    Pruning alpha          =              1
    Radial Points          =             75
    Spherical Points       =            302
    Total Points           =          41867
    Total Blocks           =            371
    Max Points             =            256
    Max Functions          =             32
    Weights Tolerance      =       1.00E-15


  -Total Gradient:
     Atom            X                  Y                   Z
    ------   -----------------  -----------------  -----------------
       1        0.000000000000     0.000000000000    -0.205686077550
       2       -0.000000000000     0.000000000000     0.205625949829


*** tstop() called on Joses-MacBook-Pro-2.local at Thu Jul 17 14:42:56 2025
Module time:
	user time   =       1.06 seconds =       0.02 minutes
	system time =       1.90 seconds =       0.03 minutes
	total time  =          0 seconds =       0.00 minutes
Total time:
	user time   =      18.77 seconds =       0.31 minutes
	system time =      23.93 seconds =       0.40 minutes
	total time  =          4 seconds =       0.07 minutes

    			-----------------------------------------

    			 OPTKING 3.0: for geometry optimizations 

    			     By R.A. King, Bethel University     

    			        with contributions from          

    			    A.V. Copan, J. Cayton, A. Heide      

    			-----------------------------------------

    
	                            ===> Fragment 1 <== 

	 Z (Atomic Numbers)          Masses                          Geom                  
	      10.000000            19.992440          0.00000000  0.00000000  2.05504909   
	      17.000000            34.968853          0.00000000  0.00000000 -1.17491547   

	 - Coordinate -           - BOHR/RAD -       - ANG/DEG -
	 R(1,2)           =         3.229965           1.709224


	        --- Internal Coordinate Step in ANG or DEG, aJ/ANG or AJ/DEG ---
	-------------------------------------------------------------------------------
	           Coordinate      Previous         Force          Change          New 
	           ----------      --------        ------          ------        ------
	               R(1,2)       1.70922        1.69434        0.15770       1.86692
	-------------------------------------------------------------------------------

	                                 ==> Convergence Check <==                                  
    
	Measures of convergence in internal coordinates in au.
    
	Criteria marked as inactive (o), active & met (*), and active & unmet ( ).

	----------------------------------------------------------------------------------------------
	   Step    Total Energy     Delta E     Max Force     RMS Force      Max Disp      RMS Disp   
	----------------------------------------------------------------------------------------------
	  Convergence Criteria     1.00e-06 *    3.00e-04 *             o    1.20e-03 *             o
	----------------------------------------------------------------------------------------------
	     4    -588.51849254   -9.81e-02      2.06e-01      2.06e-01 o    2.98e-01      2.98e-01 o  ~
	----------------------------------------------------------------------------------------------

Next Geometry in Ang 
	Fragment 1 (Ang)

	   Ne   0.0000000000   0.0000000000   1.1663328441
	   Cl   0.0000000000   0.0000000000  -0.7005861900


    Structure for next step:
    Molecular point group: c2v
    Full point group: C_inf_v

    Geometry (in Angstrom), charge = 1, multiplicity = 3:

    NE           0.000000000000     0.000000000000     1.187818067558
    CL           0.000000000000     0.000000000000    -0.679100966561


Scratch directory: /tmp/
gradient() will perform analytic gradient computation.
   => Libint2 <=

    Primary   basis highest AM E, G, H:  6, 6, 3
    Auxiliary basis highest AM E, G, H:  7, 7, 4
    Onebody   basis highest AM E, G, H:  -, -, -
    Solid Harmonics ordering:            Gaussian

*** tstart() called on Joses-MacBook-Pro-2.local
*** at Thu Jul 17 14:42:56 2025

   => Loading Basis Set <=

    Name: CC-PVDZ
    Role: ORBITAL
    Keyword: BASIS
    atoms 1 entry NE         line   258 file /Users/joseantoniorodriguesromero/anaconda3/share/psi4/basis/cc-pvdz.gbs 
    atoms 2 entry CL         line   658 file /Users/joseantoniorodriguesromero/anaconda3/share/psi4/basis/cc-pvdz.gbs 


         ---------------------------------------------------------
                                   SCF
               by Justin Turney, Rob Parrish, Andy Simmonett
                          and Daniel G. A. Smith
                              UKS Reference
                        1 Threads,    500 MiB Core
         ---------------------------------------------------------

  ==> Geometry <==

    Molecular point group: c2v
    Full point group: C_inf_v

    Geometry (in Angstrom), charge = 1, multiplicity = 3:

       Center              X                  Y                   Z               Mass       
    ------------   -----------------  -----------------  -----------------  -----------------
         NE           0.000000000000     0.000000000000     1.187818067558    19.992440176200
         CL           0.000000000000     0.000000000000    -0.679100966561    34.968852682000

  Running in c2v symmetry.

  Rotational constants: A = ************  B =      0.38024  C =      0.38024 [cm^-1]
  Rotational constants: A = ************  B =  11399.24227  C =  11399.24227 [MHz]
  Nuclear repulsion =   48.186409892372730

  Charge       = 1
  Multiplicity = 3
  Electrons    = 26
  Nalpha       = 14
  Nbeta        = 12

  ==> Algorithm <==

  SCF Algorithm Type is DF.
  DIIS enabled.
  MOM disabled.
  Fractional occupation disabled.
  Guess Type is READ.
  Energy threshold   = 1.00e-08
  Density threshold  = 1.00e-08
  Integral threshold = 1.00e-12

  ==> Primary Basis <==

  Basis Set: CC-PVDZ
    Blend: CC-PVDZ
    Number of shells: 14
    Number of basis functions: 32
    Number of Cartesian functions: 34
    Spherical Harmonics?: true
    Max angular momentum: 2

  ==> DFT Potential <==

   => LibXC <=

    Version 6.2.2
    S. Lehtola, C. Steigemann, M. J.T. Oliveira, and M. A.L. Marques.,  SoftwareX 7, 1–5 (2018) (10.1016/j.softx.2017.11.002)

   => Composite Functional: B3LYP <= 

    B3LYP Hyb-GGA Exchange-Correlation Functional

[...]
    
	Measures of convergence in internal coordinates in au.
    
	Criteria marked as inactive (o), active & met (*), and active & unmet ( ).

	----------------------------------------------------------------------------------------------
	   Step    Total Energy     Delta E     Max Force     RMS Force      Max Disp      RMS Disp   
	----------------------------------------------------------------------------------------------
	  Convergence Criteria     1.00e-06 *    3.00e-04 *             o    1.20e-03 *             o
	----------------------------------------------------------------------------------------------
	    13    -588.59820922   -6.57e-06      2.05e-04 *    2.05e-04 o    7.30e-03      7.30e-03 o  ~
	----------------------------------------------------------------------------------------------

Next Geometry in Ang 
	Fragment 1 (Ang)

	   Ne   0.0000000000   0.0000000000   1.5475638935
	   Cl   0.0000000000   0.0000000000  -0.8856030409


    Structure for next step:
    Molecular point group: c2v
    Full point group: C_inf_v

    Geometry (in Angstrom), charge = 1, multiplicity = 3:

    NE           0.000000000000     0.000000000000     1.548090513445
    CL           0.000000000000     0.000000000000    -0.885076420975


Scratch directory: /tmp/
gradient() will perform analytic gradient computation.
   => Libint2 <=

    Primary   basis highest AM E, G, H:  6, 6, 3
    Auxiliary basis highest AM E, G, H:  7, 7, 4
    Onebody   basis highest AM E, G, H:  -, -, -
    Solid Harmonics ordering:            Gaussian

*** tstart() called on Joses-MacBook-Pro-2.local
*** at Thu Jul 17 14:43:05 2025

   => Loading Basis Set <=

    Name: CC-PVDZ
    Role: ORBITAL
    Keyword: BASIS
    atoms 1 entry NE         line   258 file /Users/joseantoniorodriguesromero/anaconda3/share/psi4/basis/cc-pvdz.gbs 
    atoms 2 entry CL         line   658 file /Users/joseantoniorodriguesromero/anaconda3/share/psi4/basis/cc-pvdz.gbs 


         ---------------------------------------------------------
                                   SCF
               by Justin Turney, Rob Parrish, Andy Simmonett
                          and Daniel G. A. Smith
                              UKS Reference
                        1 Threads,    500 MiB Core
         ---------------------------------------------------------

  ==> Geometry <==

    Molecular point group: c2v
    Full point group: C_inf_v

    Geometry (in Angstrom), charge = 1, multiplicity = 3:

       Center              X                  Y                   Z               Mass       
    ------------   -----------------  -----------------  -----------------  -----------------
         NE           0.000000000000     0.000000000000     1.548090513445    19.992440176200
         CL           0.000000000000     0.000000000000    -0.885076420975    34.968852682000

  Running in c2v symmetry.

  Rotational constants: A = ************  B =      0.22385  C =      0.22385 [cm^-1]
  Rotational constants: A = ************  B =   6710.93665  C =   6710.93665 [MHz]
  Nuclear repulsion =   36.972443008869270

  Charge       = 1
  Multiplicity = 3
  Electrons    = 26
  Nalpha       = 14
  Nbeta        = 12

  ==> Algorithm <==

  SCF Algorithm Type is DF.
  DIIS enabled.
  MOM disabled.
  Fractional occupation disabled.
  Guess Type is READ.
  Energy threshold   = 1.00e-08
  Density threshold  = 1.00e-08
  Integral threshold = 1.00e-12

  ==> Primary Basis <==

  Basis Set: CC-PVDZ
    Blend: CC-PVDZ
    Number of shells: 14
    Number of basis functions: 32
    Number of Cartesian functions: 34
    Spherical Harmonics?: true
    Max angular momentum: 2

  ==> DFT Potential <==

   => LibXC <=

    Version 6.2.2
    S. Lehtola, C. Steigemann, M. J.T. Oliveira, and M. A.L. Marques.,  SoftwareX 7, 1–5 (2018) (10.1016/j.softx.2017.11.002)

   => Composite Functional: B3LYP <= 

    B3LYP Hyb-GGA Exchange-Correlation Functional

    P. J. Stephens, F. J. Devlin, C. F. Chabalowski, and M. J. Frisch.,  J. Phys. Chem. 98, 11623 (1994) (10.1021/j100096a001)

    Deriv               =              1
    GGA                 =           TRUE
    Meta                =          FALSE

    Exchange Hybrid     =           TRUE
    MP2 Hybrid          =          FALSE

   => Exchange Functionals <=

    0.0800   Slater exchange
    0.7200         Becke 88

   => Exact (HF) Exchange <=

    0.2000               HF 

   => Correlation Functionals <=

    0.1900   Vosko, Wilk & Nusair (VWN5_RPA)
    0.8100   Lee, Yang & Parr

   => LibXC Density Thresholds  <==

    XC_HYB_GGA_XC_B3LYP:  1.00E-15 

   => Molecular Quadrature <=

    Radial Scheme          =       TREUTLER
    Pruning Scheme         =           NONE
    Nuclear Scheme         =       TREUTLER

    Blocking Scheme        =         OCTREE
    BS radius alpha        =              1
    Pruning alpha          =              1
    Radial Points          =             75
    Spherical Points       =            302
    Total Points           =          41962
    Total Blocks           =            377
    Max Points             =            256
    Max Functions          =             32
    Weights Tolerance      =       1.00E-15

   => Loading Basis Set <=

    Name: (CC-PVDZ AUX)
    Role: JKFIT
    Keyword: DF_BASIS_SCF
    atoms 1 entry NE         line   321 file /Users/joseantoniorodriguesromero/anaconda3/share/psi4/basis/cc-pvdz-jkfit.gbs 
    atoms 2 entry CL         line   667 file /Users/joseantoniorodriguesromero/anaconda3/share/psi4/basis/cc-pvdz-jkfit.gbs 

   => Loading Basis Set <=

    Name: CC-PVDZ
    Role: ORBITAL
    Keyword: BASIS
    atoms 1 entry NE         line   258 file /Users/joseantoniorodriguesromero/anaconda3/share/psi4/basis/cc-pvdz.gbs 
    atoms 2 entry CL         line   658 file /Users/joseantoniorodriguesromero/anaconda3/share/psi4/basis/cc-pvdz.gbs 

  Reading orbitals from file /tmp/triplet_NeCl.default.74838.180.npy, no projection.

  ==> Integral Setup <==

  DFHelper Memory: AOs need 0.002 GiB; user supplied 0.332 GiB. 
  Using in-core AOs.

  ==> MemDFJK: Density-Fitted J/K Matrices <==

    J tasked:                   Yes
    K tasked:                   Yes
    wK tasked:                   No
    OpenMP threads:               1
    Memory [MiB]:               340
    Algorithm:                 Core
    Schwarz Cutoff:           1E-12
    Mask sparsity (%):       0.0000
    Fitting Condition:        1E-10

   => Auxiliary Basis Set <=

  Basis Set: (CC-PVDZ AUX)
    Blend: CC-PVDZ-JKFIT
    Number of shells: 60
    Number of basis functions: 182
    Number of Cartesian functions: 211
    Spherical Harmonics?: true
    Max angular momentum: 3

  Cached 100.0% of DFT collocation blocks in 0.034 [GiB].

  Minimum eigenvalue in the overlap matrix is 1.0516180009E-01.
  Reciprocal condition number of the overlap matrix is 5.6566439570E-02.
    Using symmetric orthogonalization.

  ==> Pre-Iterations <==

  SCF Guess: Orbitals guess was supplied from a previous computation.

   -------------------------------------------------------
    Irrep   Nso     Nmo     Nalpha   Nbeta   Ndocc  Nsocc
   -------------------------------------------------------
     A1        16      16       8       7       7       1
     A2         2       2       0       0       0       0
     B1         7       7       3       2       2       1
     B2         7       7       3       3       3       0
   -------------------------------------------------------
    Total      32      32      14      12      12       2
   -------------------------------------------------------

  ==> Iterations <==

                           Total Energy        Delta E     RMS |[F,P]|

   @DF-UKS iter   0:  -588.59791294230320   -5.88598e+02   7.69966e-05 
   @DF-UKS iter   1:  -588.59820995501684   -2.97013e-04   2.68168e-05 DIIS
   @DF-UKS iter   2:  -588.59820991065294    4.43639e-08   3.49459e-05 DIIS/DAMP=1%
   @DF-UKS iter   3:  -588.59819986406058    1.00466e-05   1.41462e-06 DIIS/DAMP=1%
   @DF-UKS iter   4:  -588.59821081522671   -1.09512e-05   4.25269e-07 DIIS/DAMP=1%
   @DF-UKS iter   5:  -588.59820991123490    9.03992e-07   1.08994e-07 DIIS/DAMP=1%
   @DF-UKS iter   6:  -588.59821001182149   -1.00587e-07   3.20523e-08 DIIS/DAMP=1%
   @DF-UKS iter   7:  -588.59821006159132   -4.97698e-08   7.70475e-09 DIIS/DAMP=1%
   @DF-UKS iter   8:  -588.59821004184823    1.97431e-08   9.04183e-10 DIIS/DAMP=1%
   @DF-UKS iter   9:  -588.59821004276398   -9.15747e-10   1.27200e-10 DIIS/DAMP=1%
  Energy and wave function converged.


  ==> Post-Iterations <==

   Electrons on quadrature grid:
      Nalpha   =   14.0000037464 ; deviation = 3.746e-06
      Nbeta    =   12.0000041526 ; deviation = 4.153e-06
      Ntotal   =   26.0000078990 ; deviation = 7.899e-06 

   @Spin Contamination Metric:   2.353387493E-03
   @S^2 Expected:                2.000000000E+00
   @S^2 Observed:                2.002353387E+00
   @S   Expected:                1.000000000E+00
   @S   Observed:                1.000000000E+00

    Orbital Energies [Eh]
    ---------------------

    Alpha Occupied:                                                       

       1A1  -102.054270     2A1   -31.240522     3A1    -9.960970  
       1B1    -7.730548     4A1    -7.729281     1B2    -7.704335  
       5A1    -1.699117     6A1    -1.271872     7A1    -0.841342  
       2B1    -0.806075     2B2    -0.800314     3B1    -0.790398  
       8A1    -0.764000     3B2    -0.736496  

    Alpha Virtual:                                                        

       4B1     0.173597     9A1     0.194900     4B2     0.204009  
      10A1     0.227416     5B1     0.232922    11A1     0.234592  
       1A2     0.276809     5B2     0.278001    12A1     0.291573  
       6B1     1.124004     6B2     1.125465    13A1     1.224176  
      14A1     1.684860     7B1     4.455369     7B2     4.455996  
      15A1     4.457206     2A2     4.465550    16A1     4.465568  

    Beta Occupied:                                                        

       1A1  -102.039474     2A1   -31.236780     3A1    -9.946473  
       1B1    -7.701871     4A1    -7.701307     1B2    -7.695678  
       5A1    -1.690452     6A1    -1.163510     7A1    -0.802083  
       2B2    -0.796726     2B1    -0.796359     3B2    -0.703402  

    Beta Virtual:                                                         

       3B1    -0.606146     8A1    -0.596885     4B2     0.216331  
       4B1     0.221107     9A1     0.239960    10A1     0.271703  
      11A1     0.338946     5B2     0.342940     1A2     0.344674  
      12A1     0.352593     5B1     0.356489     6B1     1.126123  
       6B2     1.126953    13A1     1.234822    14A1     1.691528  
       7B1     4.465006     7B2     4.465252    15A1     4.467801  
       2A2     4.467805    16A1     4.469021  

    Final Occupation by Irrep:
             A1    A2    B1    B2 
    DOCC [     7,    0,    2,    3 ]
    SOCC [     1,    0,    1,    0 ]
    NA   [     8,    0,    3,    3 ]
    NB   [     7,    0,    2,    3 ]

  @DF-UKS Final Energy:  -588.59821004276398

   => Energetics <=

    Nuclear Repulsion Energy =             36.9724430088692699
    One-Electron Energy =                -881.5646377119028330
    Two-Electron Energy =                 288.5272867234198202
    DFT Exchange-Correlation Energy =     -32.5333020631502734
    Empirical Dispersion Energy =           0.0000000000000000
    VV10 Nonlocal Energy =                  0.0000000000000000
    Total Energy =                       -588.5982100427639807

  UHF NO Occupations:
  HONO-2 :    7 A1 1.9990668
  HONO-1 :    8 A1 1.0000000
  HONO-0 :    3 B1 1.0000000
  LUNO+0 :    9 A1 0.0009332
  LUNO+1 :   10 A1 0.0001366
  LUNO+2 :    4 B2 0.0000997
  LUNO+3 :    4 B1 0.0000048


Computation Completed


Properties will be evaluated at   0.000000,   0.000000,   0.000000 [a0]

Properties computed using the SCF density matrix


 Multipole Moments:

 ------------------------------------------------------------------------------------
     Multipole            Electronic (a.u.)      Nuclear  (a.u.)        Total (a.u.)
 ------------------------------------------------------------------------------------

 L = 1.  Multiply by 2.5417464519 to convert [e a0] to [Debye]
 Dipole X            :          0.0000000            0.0000000            0.0000000
 Dipole Y            :          0.0000000            0.0000000            0.0000000
 Dipole Z            :         -2.0858228            0.8212863           -1.2645365
 Magnitude           :                                                    1.2645365

 ------------------------------------------------------------------------------------

*** tstop() called on Joses-MacBook-Pro-2.local at Thu Jul 17 14:43:06 2025
Module time:
	user time   =       3.24 seconds =       0.05 minutes
	system time =       3.55 seconds =       0.06 minutes
	total time  =          1 seconds =       0.02 minutes
Total time:
	user time   =      66.24 seconds =       1.10 minutes
	system time =      73.63 seconds =       1.23 minutes
	total time  =         14 seconds =       0.23 minutes

*** tstart() called on Joses-MacBook-Pro-2.local
*** at Thu Jul 17 14:43:06 2025


         ------------------------------------------------------------
                                   SCF GRAD                          
                          Rob Parrish, Justin Turney,                
                       Andy Simmonett, and Alex Sokolov              
         ------------------------------------------------------------

  ==> Geometry <==

    Molecular point group: c2v
    Full point group: C_inf_v

    Geometry (in Angstrom), charge = 1, multiplicity = 3:

       Center              X                  Y                   Z               Mass       
    ------------   -----------------  -----------------  -----------------  -----------------
         NE           0.000000000000     0.000000000000     1.548090513445    19.992440176200
         CL           0.000000000000     0.000000000000    -0.885076420975    34.968852682000

  Nuclear repulsion =   36.972443008869270

  ==> Basis Set <==

  Basis Set: CC-PVDZ
    Blend: CC-PVDZ
    Number of shells: 14
    Number of basis functions: 32
    Number of Cartesian functions: 34
    Spherical Harmonics?: true
    Max angular momentum: 2

  ==> DFJKGrad: Density-Fitted SCF Gradients <==

    Gradient:                    1
    J tasked:                  Yes
    K tasked:                  Yes
    wK tasked:                  No
    OpenMP threads:              1
    Integrals threads:           1
    Memory [MiB]:              375
    Schwarz Cutoff:          1E-12
    Fitting Condition:       1E-10

   => Auxiliary Basis Set <=

  Basis Set: (CC-PVDZ AUX)
    Blend: CC-PVDZ-JKFIT
    Number of shells: 60
    Number of basis functions: 182
    Number of Cartesian functions: 211
    Spherical Harmonics?: true
    Max angular momentum: 3

  ==> DFT Potential <==

   => LibXC <=

    Version 6.2.2
    S. Lehtola, C. Steigemann, M. J.T. Oliveira, and M. A.L. Marques.,  SoftwareX 7, 1–5 (2018) (10.1016/j.softx.2017.11.002)

   => Composite Functional: B3LYP <= 

    B3LYP Hyb-GGA Exchange-Correlation Functional

    P. J. Stephens, F. J. Devlin, C. F. Chabalowski, and M. J. Frisch.,  J. Phys. Chem. 98, 11623 (1994) (10.1021/j100096a001)

    Deriv               =              1
    GGA                 =           TRUE
    Meta                =          FALSE

    Exchange Hybrid     =           TRUE
    MP2 Hybrid          =          FALSE

   => Exchange Functionals <=

    0.0800   Slater exchange
    0.7200         Becke 88

   => Exact (HF) Exchange <=

    0.2000               HF 

   => Correlation Functionals <=

    0.1900   Vosko, Wilk & Nusair (VWN5_RPA)
    0.8100   Lee, Yang & Parr

   => LibXC Density Thresholds  <==

    XC_HYB_GGA_XC_B3LYP:  1.00E-15 

   => Molecular Quadrature <=

    Radial Scheme          =       TREUTLER
    Pruning Scheme         =           NONE
    Nuclear Scheme         =       TREUTLER

    Blocking Scheme        =         OCTREE
    BS radius alpha        =              1
    Pruning alpha          =              1
    Radial Points          =             75
    Spherical Points       =            302
    Total Points           =          41962
    Total Blocks           =            377
    Max Points             =            256
    Max Functions          =             32
    Weights Tolerance      =       1.00E-15


  -Total Gradient:
     Atom            X                  Y                   Z
    ------   -----------------  -----------------  -----------------
       1        0.000000000000    -0.000000000000    -0.000049677879
       2        0.000000000000    -0.000000000000     0.000048507626


*** tstop() called on Joses-MacBook-Pro-2.local at Thu Jul 17 14:43:06 2025
Module time:
	user time   =       1.02 seconds =       0.02 minutes
	system time =       1.11 seconds =       0.02 minutes
	total time  =          0 seconds =       0.00 minutes
Total time:
	user time   =      67.26 seconds =       1.12 minutes
	system time =      74.74 seconds =       1.25 minutes
	total time  =         14 seconds =       0.23 minutes

    			-----------------------------------------

    			 OPTKING 3.0: for geometry optimizations 

    			     By R.A. King, Bethel University     

    			        with contributions from          

    			    A.V. Copan, J. Cayton, A. Heide      

    			-----------------------------------------

    
	                            ===> Fragment 1 <== 

	 Z (Atomic Numbers)          Masses                          Geom                  
	      10.000000            19.992440          0.00000000  0.00000000  2.92546709   
	      17.000000            34.968853          0.00000000  0.00000000 -1.67255204   

	 - Coordinate -           - BOHR/RAD -       - ANG/DEG -
	 R(1,2)           =         4.598019           2.433167


	        --- Internal Coordinate Step in ANG or DEG, aJ/ANG or AJ/DEG ---
	-------------------------------------------------------------------------------
	           Coordinate      Previous         Force          Change          New 
	           ----------      --------        ------          ------        ------
	               R(1,2)       2.43317        0.00040        0.00108       2.43424
	-------------------------------------------------------------------------------

	                                 ==> Convergence Check <==                                  
    
	Measures of convergence in internal coordinates in au.
    
	Criteria marked as inactive (o), active & met (*), and active & unmet ( ).

	----------------------------------------------------------------------------------------------
	   Step    Total Energy     Delta E     Max Force     RMS Force      Max Disp      RMS Disp   
	----------------------------------------------------------------------------------------------
	  Convergence Criteria     1.00e-06 *    3.00e-04 *             o    1.20e-03 *             o
	----------------------------------------------------------------------------------------------
	    14    -588.59821004   -8.21e-07 *    4.91e-05 *    4.91e-05 o    2.03e-03      2.03e-03 o  ~
	----------------------------------------------------------------------------------------------

Next Geometry in Ang 
	Fragment 1 (Ang)

	   Ne   0.0000000000   0.0000000000   1.5486282113
	   Cl   0.0000000000   0.0000000000  -0.8856141188


    Final optimized geometry and variables:
    Molecular point group: c2v
    Full point group: C_inf_v

    Geometry (in Angstrom), charge = 1, multiplicity = 3:

    NE           0.000000000000     0.000000000000     1.548090513445
    CL           0.000000000000     0.000000000000    -0.885076420975


    Psi4 stopped on: Thursday, 17 July 2025 02:43PM
    Psi4 wall time for execution: 0:00:14.80

*** Psi4 exiting successfully. Buy a developer a beer!
