
    -----------------------------------------------------------------------
          Psi4: An Open-Source Ab Initio Electronic Structure Package
                               Psi4 1.9.1 release

                         Git: Rev {} zzzzzzz 


    D. G. A. Smith, L. A. Burns, A. C. Simmonett, R. M. Parrish,
    M. C. Schieber, R. Galvelis, P. Kraus, H. Kruse, R. Di Remigio,
    A. Alenaizan, A. M. James, S. Lehtola, J. P. Misiewicz, M. Scheurer,
    R. A. Shaw, J. B. Schriber, Y. Xie, Z. L. Glick, D. A. Sirianni,
    J. S. O'Brien, J. M. Waldrop, A. Kumar, E. G. Hohenstein,
    B. P. Pritchard, B. R. Brooks, H. F. Schaefer III, A. Yu. Sokolov,
    K. Patkowski, A. E. DePrince III, U. Bozkaya, R. A. King,
    F. A. Evangelista, J. M. Turney, T. D. Crawford, C. D. Sherrill,
    J. Chem. Phys. 152(18) 184108 (2020). https://doi.org/10.1063/5.0006002

                            Additional Code Authors
    E. T. Seidl, C. L. Janssen, E. F. Valeev, M. L. Leininger,
    J. F. Gonthier, R. M. Richard, H. R. McAlexander, M. Saitow, X. Wang,
    P. Verma, M. H. Lechner, A. Jiang, S. Behnle, A. G. Heide,
    M. F. Herbst, and D. L. Poole

             Previous Authors, Complete List of Code Contributors,
                       and Citations for Specific Modules
    https://github.com/psi4/psi4/blob/master/codemeta.json
    https://github.com/psi4/psi4/graphs/contributors
    http://psicode.org/psi4manual/master/introduction.html#citing-psifour

    -----------------------------------------------------------------------


    Psi4 started on: Thursday, 17 July 2025 03:53PM

    Process ID: 75666
    Host:       Joses-MacBook-Pro-2.local
    PSIDATADIR: /Users/joseantoniorodriguesromero/anaconda3/share/psi4
    Memory:     500.0 MiB
    Threads:    1
    
  ==> Input File <==

--------------------------------------------------------------------------
molecule { 
1 3
S   0.00000        0.60000        0.00000
Cl   0.00000       -0.60000        0.00000
}

set { 
basis              cc-pvdz
reference          uks
maxiter            500
geom_maxiter       500
DAMPING_PERCENTAGE 1
guess              SAP
}

optimize('b3lyp')
--------------------------------------------------------------------------

Scratch directory: /tmp/
gradient() will perform analytic gradient computation.
   => Libint2 <=

    Primary   basis highest AM E, G, H:  6, 6, 3
    Auxiliary basis highest AM E, G, H:  7, 7, 4
    Onebody   basis highest AM E, G, H:  -, -, -
    Solid Harmonics ordering:            Gaussian

*** tstart() called on Joses-MacBook-Pro-2.local
*** at Thu Jul 17 15:53:40 2025

   => Loading Basis Set <=

    Name: CC-PVDZ
    Role: ORBITAL
    Keyword: BASIS
    atoms 1 entry S          line   598 file /Users/joseantoniorodriguesromero/anaconda3/share/psi4/basis/cc-pvdz.gbs 
    atoms 2 entry CL         line   658 file /Users/joseantoniorodriguesromero/anaconda3/share/psi4/basis/cc-pvdz.gbs 


         ---------------------------------------------------------
                                   SCF
               by Justin Turney, Rob Parrish, Andy Simmonett
                          and Daniel G. A. Smith
                              UKS Reference
                        1 Threads,    500 MiB Core
         ---------------------------------------------------------

  ==> Geometry <==

    Molecular point group: c2v
    Full point group: C_inf_v

    Geometry (in Angstrom), charge = 1, multiplicity = 3:

       Center              X                  Y                   Z               Mass       
    ------------   -----------------  -----------------  -----------------  -----------------
         S            0.000000000000     0.000000000000     0.626860533153    31.972071174400
         CL           0.000000000000     0.000000000000    -0.573139466847    34.968852682000

  Running in c2v symmetry.

  Rotational constants: A = ************  B =      0.70093  C =      0.70093 [cm^-1]
  Rotational constants: A = ************  B =  21013.29969  C =  21013.29969 [MHz]
  Nuclear repulsion =  119.946834418533356

  Charge       = 1
  Multiplicity = 3
  Electrons    = 32
  Nalpha       = 17
  Nbeta        = 15

  ==> Algorithm <==

  SCF Algorithm Type is DF.
  DIIS enabled.
  MOM disabled.
  Fractional occupation disabled.
  Guess Type is SAP.
  Energy threshold   = 1.00e-08
  Density threshold  = 1.00e-08
  Integral threshold = 1.00e-12

  ==> Primary Basis <==

  Basis Set: CC-PVDZ
    Blend: CC-PVDZ
    Number of shells: 16
    Number of basis functions: 36
    Number of Cartesian functions: 38
    Spherical Harmonics?: true
    Max angular momentum: 2

  ==> DFT Potential <==

   => LibXC <=

    Version 6.2.2
    S. Lehtola, C. Steigemann, M. J.T. Oliveira, and M. A.L. Marques.,  SoftwareX 7, 1–5 (2018) (10.1016/j.softx.2017.11.002)

   => Composite Functional: B3LYP <= 

    B3LYP Hyb-GGA Exchange-Correlation Functional

    P. J. Stephens, F. J. Devlin, C. F. Chabalowski, and M. J. Frisch.,  J. Phys. Chem. 98, 11623 (1994) (10.1021/j100096a001)

    Deriv               =              1
    GGA                 =           TRUE
    Meta                =          FALSE

    Exchange Hybrid     =           TRUE
    MP2 Hybrid          =          FALSE

   => Exchange Functionals <=

    0.0800   Slater exchange
    0.7200         Becke 88

   => Exact (HF) Exchange <=

    0.2000               HF 

   => Correlation Functionals <=

    0.1900   Vosko, Wilk & Nusair (VWN5_RPA)
    0.8100   Lee, Yang & Parr

   => LibXC Density Thresholds  <==

    XC_HYB_GGA_XC_B3LYP:  1.00E-15 

   => Molecular Quadrature <=

    Radial Scheme          =       TREUTLER
    Pruning Scheme         =           NONE
    Nuclear Scheme         =       TREUTLER

    Blocking Scheme        =         OCTREE
    BS radius alpha        =              1
    Pruning alpha          =              1
    Radial Points          =             75
    Spherical Points       =            302
    Total Points           =          40082
    Total Blocks           =            362
    Max Points             =            256
    Max Functions          =             36
    Weights Tolerance      =       1.00E-15

   => Loading Basis Set <=

    Name: (CC-PVDZ AUX)
    Role: JKFIT
    Keyword: DF_BASIS_SCF
    atoms 1 entry S          line   593 file /Users/joseantoniorodriguesromero/anaconda3/share/psi4/basis/cc-pvdz-jkfit.gbs 
    atoms 2 entry CL         line   667 file /Users/joseantoniorodriguesromero/anaconda3/share/psi4/basis/cc-pvdz-jkfit.gbs 

  ==> Integral Setup <==

  DFHelper Memory: AOs need 0.003 GiB; user supplied 0.325 GiB. 
  Using in-core AOs.

  ==> MemDFJK: Density-Fitted J/K Matrices <==

    J tasked:                   Yes
    K tasked:                   Yes
    wK tasked:                   No
    OpenMP threads:               1
    Memory [MiB]:               332
    Algorithm:                 Core
    Schwarz Cutoff:           1E-12
    Mask sparsity (%):       0.0000
    Fitting Condition:        1E-10

   => Auxiliary Basis Set <=

  Basis Set: (CC-PVDZ AUX)
    Blend: CC-PVDZ-JKFIT
    Number of shells: 72
    Number of basis functions: 224
    Number of Cartesian functions: 260
    Spherical Harmonics?: true
    Max angular momentum: 3

  Cached 100.0% of DFT collocation blocks in 0.041 [GiB].

  Minimum eigenvalue in the overlap matrix is 5.4816984114E-03.
  Reciprocal condition number of the overlap matrix is 1.7448808935E-03.
    Using symmetric orthogonalization.

  ==> Pre-Iterations <==

  SCF Guess: Superposition of Atomic Potentials (doi:10.1021/acs.jctc.8b01089).

  ==> SAP guess <==

   => Molecular Quadrature <=

    Radial Scheme          =       TREUTLER
    Pruning Scheme         =           NONE
    Nuclear Scheme         =       TREUTLER

    Blocking Scheme        =         OCTREE
    BS radius alpha        =              1
    Pruning alpha          =              1
    Radial Points          =             75
    Spherical Points       =            302
    Total Points           =          40082
    Total Blocks           =            362
    Max Points             =            256
    Max Functions          =             36
    Weights Tolerance      =       1.00E-15

   -------------------------------------------------------
    Irrep   Nso     Nmo     Nalpha   Nbeta   Ndocc  Nsocc
   -------------------------------------------------------
     A1        18      18       9       9       9       0
     A2         2       2       0       0       0       0
     B1         8       8       4       3       3       1
     B2         8       8       4       3       3       1
   -------------------------------------------------------
    Total      36      36      17      15      15       2
   -------------------------------------------------------

  ==> Iterations <==

                           Total Energy        Delta E     RMS |[F,P]|

   @DF-UKS iter   1:  -856.74192588846620   -8.56742e+02   2.24582e-02 DIIS/ADIIS
   @DF-UKS iter   2:  -856.80814647920954   -6.62206e-02   1.64109e-02 DIIS/ADIIS/DAMP=1%
   @DF-UKS iter   3:  -856.85130884933767   -4.31624e-02   1.20828e-03 DIIS/ADIIS/DAMP=1%
   @DF-UKS iter   4:  -856.87578127900838   -2.44724e-02   6.72636e-04 DIIS/ADIIS/DAMP=1%
   @DF-UKS iter   5:  -856.87530201175355    4.79267e-04   6.10519e-05 DIIS/DAMP=1%
   @DF-UKS iter   6:  -856.87502865478234    2.73357e-04   1.02079e-05 DIIS/DAMP=1%
   @DF-UKS iter   7:  -856.87513526787893   -1.06613e-04   1.43663e-06 DIIS/DAMP=1%
   @DF-UKS iter   8:  -856.87512794326040    7.32462e-06   1.76245e-07 DIIS/DAMP=1%
   @DF-UKS iter   9:  -856.87512731318475    6.30076e-07   2.70227e-08 DIIS/DAMP=1%
   @DF-UKS iter  10:  -856.87512733011033   -1.69256e-08   2.31788e-09 DIIS/DAMP=1%
   @DF-UKS iter  11:  -856.87512733137453   -1.26420e-09   2.75617e-10 DIIS/DAMP=1%
  Energy and wave function converged.


  ==> Post-Iterations <==

   Electrons on quadrature grid:
      Nalpha   =   16.9999974695 ; deviation = -2.530e-06
      Nbeta    =   14.9999974790 ; deviation = -2.521e-06
      Ntotal   =   31.9999949485 ; deviation = -5.052e-06 

   @Spin Contamination Metric:   4.009663772E-03
   @S^2 Expected:                2.000000000E+00
   @S^2 Observed:                2.004009664E+00
   @S   Expected:                1.000000000E+00
   @S   Observed:                1.000000000E+00

    Orbital Energies [Eh]
    ---------------------

    Alpha Occupied:                                                       

       1A1  -101.933128     2A1   -89.218671     3A1    -9.925920  
       4A1    -8.366761     5A1    -7.690550     1B1    -7.664964  
       1B2    -7.664964     6A1    -6.334626     2B1    -6.306608  
       2B2    -6.306608     7A1    -1.550833     8A1    -0.961589  
       3B2    -0.942085     3B1    -0.942085     9A1    -0.757324  
       4B1    -0.491441     4B2    -0.491441  

    Alpha Virtual:                                                        

      10A1    -0.120008     5B1    -0.037392     5B2    -0.037392  
      11A1    -0.033302     1A2     0.050859    12A1     0.050860  
      13A1     0.187468    14A1     0.259156     6B1     0.276639  
       6B2     0.276639     7B2     0.300637     7B1     0.300637  
       2A2     0.459694    15A1     0.459694    16A1     0.628511  
      17A1     0.873286     8B2     1.004247     8B1     1.004247  
      18A1     2.093200  

    Beta Occupied:                                                        

       1A1  -101.927979     2A1   -89.210981     3A1    -9.920917  
       4A1    -8.359027     5A1    -7.687656     1B1    -7.655051  
       1B2    -7.655051     6A1    -6.330302     2B1    -6.291432  
       2B2    -6.291432     7A1    -1.534347     3B2    -0.905727  
       3B1    -0.905727     8A1    -0.903094     9A1    -0.710688  

    Beta Virtual:                                                         

       4B1    -0.364870     4B2    -0.364870    10A1    -0.107204  
      11A1    -0.018429     5B1    -0.012732     5B2    -0.012732  
       1A2     0.097228    12A1     0.097230    13A1     0.209569  
      14A1     0.278841     6B1     0.318356     6B2     0.318356  
       7B2     0.333964     7B1     0.333964     2A2     0.525066  
      15A1     0.525067    16A1     0.651633    17A1     0.895887  
       8B2     1.040500     8B1     1.040500    18A1     2.111009  

    Final Occupation by Irrep:
             A1    A2    B1    B2 
    DOCC [     9,    0,    3,    3 ]
    SOCC [     0,    0,    1,    1 ]
    NA   [     9,    0,    4,    4 ]
    NB   [     9,    0,    3,    3 ]

  @DF-UKS Final Energy:  -856.87512733137453

   => Energetics <=

    Nuclear Repulsion Energy =            119.9468344185333564
    One-Electron Energy =               -1408.7409533283132532
    Two-Electron Energy =                 475.6489035099016860
    DFT Exchange-Correlation Energy =     -43.7299119314964670
    Empirical Dispersion Energy =           0.0000000000000000
    VV10 Nonlocal Energy =                  0.0000000000000000
    Total Energy =                       -856.8751273313746424

  UHF NO Occupations:
  HONO-2 :    9 A1 1.9993228
  HONO-1 :    4 B1 1.0000000
  HONO-0 :    4 B2 1.0000000
  LUNO+0 :   10 A1 0.0006772
  LUNO+1 :    5 B1 0.0005900
  LUNO+2 :    5 B2 0.0005900
  LUNO+3 :   11 A1 0.0001439


Computation Completed


Properties will be evaluated at   0.000000,   0.000000,   0.000000 [a0]

Properties computed using the SCF density matrix


 Multipole Moments:

 ------------------------------------------------------------------------------------
     Multipole            Electronic (a.u.)      Nuclear  (a.u.)        Total (a.u.)
 ------------------------------------------------------------------------------------

 L = 1.  Multiply by 2.5417464519 to convert [e a0] to [Debye]
 Dipole X            :          0.0000000            0.0000000            0.0000000
 Dipole Y            :          0.0000000            0.0000000            0.0000000
 Dipole Z            :         -0.8833604            0.5412130           -0.3421474
 Magnitude           :                                                    0.3421474

 ------------------------------------------------------------------------------------

*** tstop() called on Joses-MacBook-Pro-2.local at Thu Jul 17 15:53:42 2025
Module time:
	user time   =      17.34 seconds =       0.29 minutes
	system time =       2.06 seconds =       0.03 minutes
	total time  =          2 seconds =       0.03 minutes
Total time:
	user time   =      17.34 seconds =       0.29 minutes
	system time =       2.06 seconds =       0.03 minutes
	total time  =          2 seconds =       0.03 minutes

*** tstart() called on Joses-MacBook-Pro-2.local
*** at Thu Jul 17 15:53:42 2025


         ------------------------------------------------------------
                                   SCF GRAD                          
                          Rob Parrish, Justin Turney,                
                       Andy Simmonett, and Alex Sokolov              
         ------------------------------------------------------------

  ==> Geometry <==

    Molecular point group: c2v
    Full point group: C_inf_v

    Geometry (in Angstrom), charge = 1, multiplicity = 3:

       Center              X                  Y                   Z               Mass       
    ------------   -----------------  -----------------  -----------------  -----------------
         S            0.000000000000     0.000000000000     0.626860533153    31.972071174400
         CL           0.000000000000     0.000000000000    -0.573139466847    34.968852682000

  Nuclear repulsion =  119.946834418533356

  ==> Basis Set <==

  Basis Set: CC-PVDZ
    Blend: CC-PVDZ
    Number of shells: 16
    Number of basis functions: 36
    Number of Cartesian functions: 38
    Spherical Harmonics?: true
    Max angular momentum: 2

  ==> DFJKGrad: Density-Fitted SCF Gradients <==

    Gradient:                    1
    J tasked:                  Yes
    K tasked:                  Yes
    wK tasked:                  No
    OpenMP threads:              1
    Integrals threads:           1
    Memory [MiB]:              375
    Schwarz Cutoff:          1E-12
    Fitting Condition:       1E-10

   => Auxiliary Basis Set <=

  Basis Set: (CC-PVDZ AUX)
    Blend: CC-PVDZ-JKFIT
    Number of shells: 72
    Number of basis functions: 224
    Number of Cartesian functions: 260
    Spherical Harmonics?: true
    Max angular momentum: 3

  ==> DFT Potential <==

   => LibXC <=

    Version 6.2.2
    S. Lehtola, C. Steigemann, M. J.T. Oliveira, and M. A.L. Marques.,  SoftwareX 7, 1–5 (2018) (10.1016/j.softx.2017.11.002)

   => Composite Functional: B3LYP <= 

    B3LYP Hyb-GGA Exchange-Correlation Functional

    P. J. Stephens, F. J. Devlin, C. F. Chabalowski, and M. J. Frisch.,  J. Phys. Chem. 98, 11623 (1994) (10.1021/j100096a001)

    Deriv               =              1
    GGA                 =           TRUE
    Meta                =          FALSE

    Exchange Hybrid     =           TRUE
    MP2 Hybrid          =          FALSE

   => Exchange Functionals <=

    0.0800   Slater exchange
    0.7200         Becke 88

   => Exact (HF) Exchange <=

    0.2000               HF 

   => Correlation Functionals <=

    0.1900   Vosko, Wilk & Nusair (VWN5_RPA)
    0.8100   Lee, Yang & Parr

   => LibXC Density Thresholds  <==

    XC_HYB_GGA_XC_B3LYP:  1.00E-15 

   => Molecular Quadrature <=

    Radial Scheme          =       TREUTLER
    Pruning Scheme         =           NONE
    Nuclear Scheme         =       TREUTLER

    Blocking Scheme        =         OCTREE
    BS radius alpha        =              1
    Pruning alpha          =              1
    Radial Points          =             75
    Spherical Points       =            302
    Total Points           =          40082
    Total Blocks           =            362
    Max Points             =            256
    Max Functions          =             36
    Weights Tolerance      =       1.00E-15


  -Total Gradient:
     Atom            X                  Y                   Z
    ------   -----------------  -----------------  -----------------
       1        0.000000000000    -0.000000000000    -3.138675638166
       2       -0.000000000000     0.000000000000     3.138640406371


*** tstop() called on Joses-MacBook-Pro-2.local at Thu Jul 17 15:53:42 2025
Module time:
	user time   =       3.16 seconds =       0.05 minutes
	system time =       0.95 seconds =       0.02 minutes
	total time  =          0 seconds =       0.00 minutes
Total time:
	user time   =      20.50 seconds =       0.34 minutes
	system time =       3.01 seconds =       0.05 minutes
	total time  =          2 seconds =       0.03 minutes

    			-----------------------------------------

    			 OPTKING 3.0: for geometry optimizations 

    			     By R.A. King, Bethel University     

    			        with contributions from          

    			    A.V. Copan, J. Cayton, A. Heide      

    			-----------------------------------------

    
	                            ===> Fragment 1 <== 

	 Z (Atomic Numbers)          Masses                          Geom                  
	      16.000000            31.972071          0.00000000  0.00000000  1.18459473   
	      17.000000            34.968853          0.00000000  0.00000000 -1.08307662   

	 - Coordinate -           - BOHR/RAD -       - ANG/DEG -
	 R(1,2)           =         2.267671           1.200000


	        --- Internal Coordinate Step in ANG or DEG, aJ/ANG or AJ/DEG ---
	-------------------------------------------------------------------------------
	           Coordinate      Previous         Force          Change          New 
	           ----------      --------        ------          ------        ------
	               R(1,2)       1.20000       25.85854        0.00762       1.20762
	-------------------------------------------------------------------------------

	                                 ==> Convergence Check <==                                  
    
	Measures of convergence in internal coordinates in au.
    
	Criteria marked as inactive (o), active & met (*), and active & unmet ( ).

	----------------------------------------------------------------------------------------------
	   Step    Total Energy     Delta E     Max Force     RMS Force      Max Disp      RMS Disp   
	----------------------------------------------------------------------------------------------
	  Convergence Criteria     1.00e-06 *    3.00e-04 *             o    1.20e-03 *             o
	----------------------------------------------------------------------------------------------
	     1    -856.87512733   -8.57e+02      3.14e+00      3.14e+00 o    1.44e-02      1.44e-02 o  ~
	----------------------------------------------------------------------------------------------

Next Geometry in Ang 
	Fragment 1 (Ang)

	    S   0.0000000000   0.0000000000   0.6306722722
	   Cl   0.0000000000   0.0000000000  -0.5769512059


    Structure for next step:
    Molecular point group: c2v
    Full point group: C_inf_v

    Geometry (in Angstrom), charge = 1, multiplicity = 3:

    S            0.000000000000     0.000000000000     0.630842914485
    CL           0.000000000000     0.000000000000    -0.576780563697


Scratch directory: /tmp/
gradient() will perform analytic gradient computation.
   => Libint2 <=

    Primary   basis highest AM E, G, H:  6, 6, 3
    Auxiliary basis highest AM E, G, H:  7, 7, 4
    Onebody   basis highest AM E, G, H:  -, -, -
    Solid Harmonics ordering:            Gaussian

*** tstart() called on Joses-MacBook-Pro-2.local
*** at Thu Jul 17 15:53:42 2025

   => Loading Basis Set <=

    Name: CC-PVDZ
    Role: ORBITAL
    Keyword: BASIS
    atoms 1 entry S          line   598 file /Users/joseantoniorodriguesromero/anaconda3/share/psi4/basis/cc-pvdz.gbs 
    atoms 2 entry CL         line   658 file /Users/joseantoniorodriguesromero/anaconda3/share/psi4/basis/cc-pvdz.gbs 


         ---------------------------------------------------------
                                   SCF
               by Justin Turney, Rob Parrish, Andy Simmonett
                          and Daniel G. A. Smith
                              UKS Reference
                        1 Threads,    500 MiB Core
         ---------------------------------------------------------

  ==> Geometry <==

    Molecular point group: c2v
    Full point group: C_inf_v

    Geometry (in Angstrom), charge = 1, multiplicity = 3:

       Center              X                  Y                   Z               Mass       
    ------------   -----------------  -----------------  -----------------  -----------------
         S            0.000000000000     0.000000000000     0.630842914485    31.972071174400
         CL           0.000000000000     0.000000000000    -0.576780563697    34.968852682000

  Running in c2v symmetry.

  Rotational constants: A = ************  B =      0.69211  C =      0.69211 [cm^-1]
  Rotational constants: A = ************  B =  20748.83184  C =  20748.83184 [MHz]
  Nuclear repulsion =  119.189634768426089

  Charge       = 1
  Multiplicity = 3
  Electrons    = 32
  Nalpha       = 17
  Nbeta        = 15

  ==> Algorithm <==

  SCF Algorithm Type is DF.
  DIIS enabled.
  MOM disabled.
  Fractional occupation disabled.
  Guess Type is READ.
  Energy threshold   = 1.00e-08
  Density threshold  = 1.00e-08
  Integral threshold = 1.00e-12

  ==> Primary Basis <==

  Basis Set: CC-PVDZ
    Blend: CC-PVDZ
    Number of shells: 16
    Number of basis functions: 36
    Number of Cartesian functions: 38
    Spherical Harmonics?: true
    Max angular momentum: 2

  ==> DFT Potential <==

   => LibXC <=

    Version 6.2.2
    S. Lehtola, C. Steigemann, M. J.T. Oliveira, and M. A.L. Marques.,  SoftwareX 7, 1–5 (2018) (10.1016/j.softx.2017.11.002)

   => Composite Functional: B3LYP <= 

    B3LYP Hyb-GGA Exchange-Correlation Functional

    P. J. Stephens, F. J. Devlin, C. F. Chabalowski, and M. J. Frisch.,  J. Phys. Chem. 98, 11623 (1994) (10.1021/j100096a001)

    Deriv               =              1
    GGA                 =           TRUE
    Meta                =          FALSE

    Exchange Hybrid     =           TRUE
    MP2 Hybrid          =          FALSE

   => Exchange Functionals <=

    0.0800   Slater exchange
    0.7200         Becke 88

   => Exact (HF) Exchange <=

    0.2000               HF 

   => Correlation Functionals <=

    0.1900   Vosko, Wilk & Nusair (VWN5_RPA)
    0.8100   Lee, Yang & Parr

   => LibXC Density Thresholds  <==

    XC_HYB_GGA_XC_B3LYP:  1.00E-15 

   => Molecular Quadrature <=

    Radial Scheme          =       TREUTLER
    Pruning Scheme         =           NONE
    Nuclear Scheme         =       TREUTLER

    Blocking Scheme        =         OCTREE
    BS radius alpha        =              1
    Pruning alpha          =              1
    Radial Points          =             75
    Spherical Points       =            302
    Total Points           =          40082
    Total Blocks           =            362
    Max Points             =            255
    Max Functions          =             36
    Weights Tolerance      =       1.00E-15

   => Loading Basis Set <=

    Name: (CC-PVDZ AUX)
    Role: JKFIT
    Keyword: DF_BASIS_SCF
    atoms 1 entry S          line   593 file /Users/joseantoniorodriguesromero/anaconda3/share/psi4/basis/cc-pvdz-jkfit.gbs 
    atoms 2 entry CL         line   667 file /Users/joseantoniorodriguesromero/anaconda3/share/psi4/basis/cc-pvdz-jkfit.gbs 

   => Loading Basis Set <=

    Name: CC-PVDZ
    Role: ORBITAL
    Keyword: BASIS
    atoms 1 entry S          line   598 file /Users/joseantoniorodriguesromero/anaconda3/share/psi4/basis/cc-pvdz.gbs 
    atoms 2 entry CL         line   658 file /Users/joseantoniorodriguesromero/anaconda3/share/psi4/basis/cc-pvdz.gbs 

  Reading orbitals from file /tmp/triplet_SCl.default.75666.180.npy, no projection.

  ==> Integral Setup <==

  DFHelper Memory: AOs need 0.003 GiB; user supplied 0.325 GiB. 
  Using in-core AOs.

  ==> MemDFJK: Density-Fitted J/K Matrices <==

    J tasked:                   Yes
    K tasked:                   Yes
    wK tasked:                   No
    OpenMP threads:               1
    Memory [MiB]:               332
    Algorithm:                 Core
    Schwarz Cutoff:           1E-12
    Mask sparsity (%):       0.0000
    Fitting Condition:        1E-10

   => Auxiliary Basis Set <=

  Basis Set: (CC-PVDZ AUX)
    Blend: CC-PVDZ-JKFIT
    Number of shells: 72
    Number of basis functions: 224
    Number of Cartesian functions: 260
    Spherical Harmonics?: true
    Max angular momentum: 3

  Cached 100.0% of DFT collocation blocks in 0.041 [GiB].

  Minimum eigenvalue in the overlap matrix is 5.5856011101E-03.
  Reciprocal condition number of the overlap matrix is 1.7787227506E-03.
    Using symmetric orthogonalization.

  ==> Pre-Iterations <==

  SCF Guess: Orbitals guess was supplied from a previous computation.

   -------------------------------------------------------
    Irrep   Nso     Nmo     Nalpha   Nbeta   Ndocc  Nsocc
   -------------------------------------------------------
     A1        18      18       9       9       9       0
     A2         2       2       0       0       0       0
     B1         8       8       4       3       3       1
     B2         8       8       4       3       3       1
   -------------------------------------------------------
    Total      36      36      17      15      15       2
   -------------------------------------------------------

  ==> Iterations <==

                           Total Energy        Delta E     RMS |[F,P]|

   @DF-UKS iter   0:  -856.92920408164798   -8.56929e+02   4.39037e-03 
   @DF-UKS iter   1:  -856.91954139009226    9.66269e-03   3.57915e-04 DIIS/ADIIS
   @DF-UKS iter   2:  -856.91956054496609   -1.91549e-05   2.15611e-04 DIIS/ADIIS/DAMP=1%
   @DF-UKS iter   3:  -856.91992320163934   -3.62657e-04   2.06769e-05 DIIS/DAMP=1%
   @DF-UKS iter   4:  -856.91957127174624    3.51930e-04   4.51665e-06 DIIS/DAMP=1%
   @DF-UKS iter   5:  -856.91957057312948    6.98617e-07   1.28205e-06 DIIS/DAMP=1%
   @DF-UKS iter   6:  -856.91957284285002   -2.26972e-06   9.03435e-08 DIIS/DAMP=1%
   @DF-UKS iter   7:  -856.91957222427561    6.18574e-07   1.32169e-08 DIIS/DAMP=1%
   @DF-UKS iter   8:  -856.91957227327043   -4.89948e-08   1.21438e-09 DIIS/DAMP=1%
   @DF-UKS iter   9:  -856.91957227156252    1.70792e-09   1.18649e-10 DIIS/DAMP=1%
  Energy and wave function converged.


  ==> Post-Iterations <==

   Electrons on quadrature grid:
      Nalpha   =   16.9999976165 ; deviation = -2.384e-06
      Nbeta    =   14.9999975903 ; deviation = -2.410e-06
      Ntotal   =   31.9999952068 ; deviation = -4.793e-06 

   @Spin Contamination Metric:   4.038300480E-03
   @S^2 Expected:                2.000000000E+00
   @S^2 Observed:                2.004038300E+00
   @S   Expected:                1.000000000E+00
   @S   Observed:                1.000000000E+00

    Orbital Energies [Eh]
    ---------------------

    Alpha Occupied:                                                       

       1A1  -101.932102     2A1   -89.218226     3A1    -9.922688  
       4A1    -8.363530     5A1    -7.687055     1B1    -7.662446  
       1B2    -7.662446     6A1    -6.331216     2B2    -6.304329  
       2B1    -6.304329     7A1    -1.548138     8A1    -0.962081  
       3B1    -0.938124     3B2    -0.938124     9A1    -0.758082  
       4B1    -0.492571     4B2    -0.492571  

    Alpha Virtual:                                                        

      10A1    -0.120262     5B2    -0.035462     5B1    -0.035462  
      11A1    -0.034842     1A2     0.054158    12A1     0.054159  
      13A1     0.187667    14A1     0.257371     6B1     0.275752  
       6B2     0.275752     7B1     0.299882     7B2     0.299882  
       2A2     0.457968    15A1     0.457969    16A1     0.628208  
      17A1     0.869570     8B2     0.997201     8B1     0.997201  
      18A1     2.067006  

    Beta Occupied:                                                        

       1A1  -101.926950     2A1   -89.210508     3A1    -9.917683  
       4A1    -8.355765     5A1    -7.684165     1B1    -7.652526  
       1B2    -7.652526     6A1    -6.326879     2B2    -6.289096  
       2B1    -6.289096     7A1    -1.531647     8A1    -0.903702  
       3B1    -0.901591     3B2    -0.901591     9A1    -0.711466  

    Beta Virtual:                                                         

       4B1    -0.366044     4B2    -0.366044    10A1    -0.107263  
      11A1    -0.019998     5B2    -0.010852     5B1    -0.010852  
       1A2     0.100772    12A1     0.100773    13A1     0.209711  
      14A1     0.276863     6B1     0.317718     6B2     0.317718  
       7B1     0.332720     7B2     0.332720     2A2     0.523207  
      15A1     0.523208    16A1     0.651406    17A1     0.892108  
       8B2     1.033419     8B1     1.033419    18A1     2.084871  

    Final Occupation by Irrep:
             A1    A2    B1    B2 
    DOCC [     9,    0,    3,    3 ]
    SOCC [     0,    0,    1,    1 ]
    NA   [     9,    0,    4,    4 ]
    NB   [     9,    0,    3,    3 ]

  @DF-UKS Final Energy:  -856.91957227156252

   => Energetics <=

    Nuclear Repulsion Energy =            119.1896347684260888
    One-Electron Energy =               -1407.3884426794575120
    Two-Electron Energy =                 474.9984635727352611
    DFT Exchange-Correlation Energy =     -43.7192279332662892
    Empirical Dispersion Energy =           0.0000000000000000
    VV10 Nonlocal Energy =                  0.0000000000000000
    Total Energy =                       -856.9195722715625152

  UHF NO Occupations:
  HONO-2 :    9 A1 1.9993154
  HONO-1 :    4 B2 1.0000000
  HONO-0 :    4 B1 1.0000000
  LUNO+0 :   10 A1 0.0006846
  LUNO+1 :    5 B2 0.0005935
  LUNO+2 :    5 B1 0.0005935
  LUNO+3 :   11 A1 0.0001437


Computation Completed


Properties will be evaluated at   0.000000,   0.000000,   0.000000 [a0]

Properties computed using the SCF density matrix


 Multipole Moments:

 ------------------------------------------------------------------------------------
     Multipole            Electronic (a.u.)      Nuclear  (a.u.)        Total (a.u.)
 ------------------------------------------------------------------------------------

 L = 1.  Multiply by 2.5417464519 to convert [e a0] to [Debye]
 Dipole X            :          0.0000000            0.0000000            0.0000000
 Dipole Y            :          0.0000000            0.0000000            0.0000000
 Dipole Z            :         -0.8824296            0.5446513           -0.3377783
 Magnitude           :                                                    0.3377783

 ------------------------------------------------------------------------------------

*** tstop() called on Joses-MacBook-Pro-2.local at Thu Jul 17 15:53:43 2025
Module time:
	user time   =       7.31 seconds =       0.12 minutes
	system time =       2.01 seconds =       0.03 minutes
	total time  =          1 seconds =       0.02 minutes
Total time:
	user time   =      27.93 seconds =       0.47 minutes
	system time =       5.33 seconds =       0.09 minutes
	total time  =          3 seconds =       0.05 minutes

*** tstart() called on Joses-MacBook-Pro-2.local
*** at Thu Jul 17 15:53:43 2025


         ------------------------------------------------------------
                                   SCF GRAD                          
                          Rob Parrish, Justin Turney,                
                       Andy Simmonett, and Alex Sokolov              
         ------------------------------------------------------------

  ==> Geometry <==

    Molecular point group: c2v
    Full point group: C_inf_v

    Geometry (in Angstrom), charge = 1, multiplicity = 3:

       Center              X                  Y                   Z               Mass       
    ------------   -----------------  -----------------  -----------------  -----------------
         S            0.000000000000     0.000000000000     0.630842914485    31.972071174400
         CL           0.000000000000     0.000000000000    -0.576780563697    34.968852682000

  Nuclear repulsion =  119.189634768426089

  ==> Basis Set <==

  Basis Set: CC-PVDZ
    Blend: CC-PVDZ
    Number of shells: 16
    Number of basis functions: 36
    Number of Cartesian functions: 38
    Spherical Harmonics?: true
    Max angular momentum: 2

  ==> DFJKGrad: Density-Fitted SCF Gradients <==

    Gradient:                    1
    J tasked:                  Yes
    K tasked:                  Yes
    wK tasked:                  No
    OpenMP threads:              1
    Integrals threads:           1
    Memory [MiB]:              375
    Schwarz Cutoff:          1E-12
    Fitting Condition:       1E-10

   => Auxiliary Basis Set <=

  Basis Set: (CC-PVDZ AUX)
    Blend: CC-PVDZ-JKFIT
    Number of shells: 72
    Number of basis functions: 224
    Number of Cartesian functions: 260
    Spherical Harmonics?: true
    Max angular momentum: 3

  ==> DFT Potential <==

   => LibXC <=

    Version 6.2.2
    S. Lehtola, C. Steigemann, M. J.T. Oliveira, and M. A.L. Marques.,  SoftwareX 7, 1–5 (2018) (10.1016/j.softx.2017.11.002)

   => Composite Functional: B3LYP <= 

    B3LYP Hyb-GGA Exchange-Correlation Functional

    P. J. Stephens, F. J. Devlin, C. F. Chabalowski, and M. J. Frisch.,  J. Phys. Chem. 98, 11623 (1994) (10.1021/j100096a001)

    Deriv               =              1
    GGA                 =           TRUE
    Meta                =          FALSE

    Exchange Hybrid     =           TRUE
    MP2 Hybrid          =          FALSE

   => Exchange Functionals <=

    0.0800   Slater exchange
    0.7200         Becke 88

   => Exact (HF) Exchange <=

    0.2000               HF 

   => Correlation Functionals <=

    0.1900   Vosko, Wilk & Nusair (VWN5_RPA)
    0.8100   Lee, Yang & Parr

   => LibXC Density Thresholds  <==

    XC_HYB_GGA_XC_B3LYP:  1.00E-15 

   => Molecular Quadrature <=

    Radial Scheme          =       TREUTLER
    Pruning Scheme         =           NONE
    Nuclear Scheme         =       TREUTLER

    Blocking Scheme        =         OCTREE
    BS radius alpha        =              1
    Pruning alpha          =              1
    Radial Points          =             75
    Spherical Points       =            302
    Total Points           =          40082
    Total Blocks           =            362
    Max Points             =            255
    Max Functions          =             36
    Weights Tolerance      =       1.00E-15


  -Total Gradient:
     Atom            X                  Y                   Z
    ------   -----------------  -----------------  -----------------
       1       -0.000000000000     0.000000000000    -3.032090991335
       2        0.000000000000    -0.000000000000     3.032053462205


*** tstop() called on Joses-MacBook-Pro-2.local at Thu Jul 17 15:53:43 2025
Module time:
	user time   =       2.60 seconds =       0.04 minutes
	system time =       1.02 seconds =       0.02 minutes
	total time  =          0 seconds =       0.00 minutes
Total time:
	user time   =      30.53 seconds =       0.51 minutes
	system time =       6.35 seconds =       0.11 minutes
	total time  =          3 seconds =       0.05 minutes

    			-----------------------------------------

    			 OPTKING 3.0: for geometry optimizations 

    			     By R.A. King, Bethel University     

    			        with contributions from          

    			    A.V. Copan, J. Cayton, A. Heide      

    			-----------------------------------------

    
	                            ===> Fragment 1 <== 

	 Z (Atomic Numbers)          Masses                          Geom                  
	      16.000000            31.972071          0.00000000  0.00000000  1.19212034   
	      17.000000            34.968853          0.00000000  0.00000000 -1.08995730   

	 - Coordinate -           - BOHR/RAD -       - ANG/DEG -
	 R(1,2)           =         2.282078           1.207623


	        --- Internal Coordinate Step in ANG or DEG, aJ/ANG or AJ/DEG ---
	-------------------------------------------------------------------------------
	           Coordinate      Previous         Force          Change          New 
	           ----------      --------        ------          ------        ------
	               R(1,2)       1.20762       24.98040        0.01472       1.22234
	-------------------------------------------------------------------------------

	                                 ==> Convergence Check <==                                  
    
	Measures of convergence in internal coordinates in au.
    
	Criteria marked as inactive (o), active & met (*), and active & unmet ( ).

	----------------------------------------------------------------------------------------------
	   Step    Total Energy     Delta E     Max Force     RMS Force      Max Disp      RMS Disp   
	----------------------------------------------------------------------------------------------
	  Convergence Criteria     1.00e-06 *    3.00e-04 *             o    1.20e-03 *             o
	----------------------------------------------------------------------------------------------
	     2    -856.91957227   -4.44e-02      3.03e+00      3.03e+00 o    2.78e-02      2.78e-02 o  ~
	----------------------------------------------------------------------------------------------

Next Geometry in Ang 
	Fragment 1 (Ang)

	    S   0.0000000000   0.0000000000   0.6382033351
	   Cl   0.0000000000   0.0000000000  -0.5841409843


    Structure for next step:
    Molecular point group: c2v
    Full point group: C_inf_v

    Geometry (in Angstrom), charge = 1, multiplicity = 3:

    S            0.000000000000     0.000000000000     0.638532843165
    CL           0.000000000000     0.000000000000    -0.583811476302


Scratch directory: /tmp/
gradient() will perform analytic gradient computation.
   => Libint2 <=

    Primary   basis highest AM E, G, H:  6, 6, 3
    Auxiliary basis highest AM E, G, H:  7, 7, 4
    Onebody   basis highest AM E, G, H:  -, -, -
    Solid Harmonics ordering:            Gaussian

*** tstart() called on Joses-MacBook-Pro-2.local
*** at Thu Jul 17 15:53:43 2025

   => Loading Basis Set <=

    Name: CC-PVDZ
    Role: ORBITAL
    Keyword: BASIS
    atoms 1 entry S          line   598 file /Users/joseantoniorodriguesromero/anaconda3/share/psi4/basis/cc-pvdz.gbs 
    atoms 2 entry CL         line   658 file /Users/joseantoniorodriguesromero/anaconda3/share/psi4/basis/cc-pvdz.gbs 


         ---------------------------------------------------------
                                   SCF
               by Justin Turney, Rob Parrish, Andy Simmonett
                          and Daniel G. A. Smith
                              UKS Reference
                        1 Threads,    500 MiB Core
         ---------------------------------------------------------

  ==> Geometry <==

    Molecular point group: c2v
    Full point group: C_inf_v

    Geometry (in Angstrom), charge = 1, multiplicity = 3:

       Center              X                  Y                   Z               Mass       
    ------------   -----------------  -----------------  -----------------  -----------------
         S            0.000000000000     0.000000000000     0.638532843165    31.972071174400
         CL           0.000000000000     0.000000000000    -0.583811476302    34.968852682000

  Running in c2v symmetry.

  Rotational constants: A = ************  B =      0.67554  C =      0.67554 [cm^-1]
  Rotational constants: A = ************  B =  20252.07977  C =  20252.07977 [MHz]
  Nuclear repulsion =  117.754219502551265

  Charge       = 1
  Multiplicity = 3
  Electrons    = 32
  Nalpha       = 17
  Nbeta        = 15

  ==> Algorithm <==

  SCF Algorithm Type is DF.
  DIIS enabled.
  MOM disabled.
  Fractional occupation disabled.
  Guess Type is READ.
  Energy threshold   = 1.00e-08
  Density threshold  = 1.00e-08
  Integral threshold = 1.00e-12

  ==> Primary Basis <==

  Basis Set: CC-PVDZ
    Blend: CC-PVDZ
    Number of shells: 16
    Number of basis functions: 36
    Number of Cartesian functions: 38
    Spherical Harmonics?: true
    Max angular momentum: 2

  ==> DFT Potential <==

   => LibXC <=

    Version 6.2.2
    S. Lehtola, C. Steigemann, M. J.T. Oliveira, and M. A.L. Marques.,  SoftwareX 7, 1–5 (2018) (10.1016/j.softx.2017.11.002)

   => Composite Functional: B3LYP <= 

    B3LYP Hyb-GGA Exchange-Correlation Functional

    P. J. Stephens, F. J. Devlin, C. F. Chabalowski, and M. J. Frisch.,  J. Phys. Chem. 98, 11623 (1994) (10.1021/j100096a001)

    Deriv               =              1
    GGA                 =           TRUE
    Meta                =          FALSE

    Exchange Hybrid     =           TRUE
    MP2 Hybrid          =          FALSE

   => Exchange Functionals <=

    0.0800   Slater exchange
    0.7200         Becke 88

   => Exact (HF) Exchange <=

    0.2000               HF 

   => Correlation Functionals <=

    0.1900   Vosko, Wilk & Nusair (VWN5_RPA)
    0.8100   Lee, Yang & Parr

   => LibXC Density Thresholds  <==

    XC_HYB_GGA_XC_B3LYP:  1.00E-15 

   => Molecular Quadrature <=

    Radial Scheme          =       TREUTLER
    Pruning Scheme         =           NONE
    Nuclear Scheme         =       TREUTLER

    Blocking Scheme        =         OCTREE
    BS radius alpha        =              1
    Pruning alpha          =              1
    Radial Points          =             75
    Spherical Points       =            302
    Total Points           =          40082
    Total Blocks           =            362
    Max Points             =            254
    Max Functions          =             36
    Weights Tolerance      =       1.00E-15

   => Loading Basis Set <=

    Name: (CC-PVDZ AUX)
    Role: JKFIT
    Keyword: DF_BASIS_SCF
    atoms 1 entry S          line   593 file /Users/joseantoniorodriguesromero/anaconda3/share/psi4/basis/cc-pvdz-jkfit.gbs 
    atoms 2 entry CL         line   667 file /Users/joseantoniorodriguesromero/anaconda3/share/psi4/basis/cc-pvdz-jkfit.gbs 

   => Loading Basis Set <=

    Name: CC-PVDZ
    Role: ORBITAL
    Keyword: BASIS
    atoms 1 entry S          line   598 file /Users/joseantoniorodriguesromero/anaconda3/share/psi4/basis/cc-pvdz.gbs 
    atoms 2 entry CL         line   658 file /Users/joseantoniorodriguesromero/anaconda3/share/psi4/basis/cc-pvdz.gbs 

  Reading orbitals from file /tmp/triplet_SCl.default.75666.180.npy, no projection.

  ==> Integral Setup <==

  DFHelper Memory: AOs need 0.003 GiB; user supplied 0.325 GiB. 
  Using in-core AOs.

  ==> MemDFJK: Density-Fitted J/K Matrices <==

    J tasked:                   Yes
    K tasked:                   Yes
    wK tasked:                   No
    OpenMP threads:               1
    Memory [MiB]:               332
    Algorithm:                 Core
    Schwarz Cutoff:           1E-12
    Mask sparsity (%):       0.0000
    Fitting Condition:        1E-10

   => Auxiliary Basis Set <=

  Basis Set: (CC-PVDZ AUX)
    Blend: CC-PVDZ-JKFIT
    Number of shells: 72
    Number of basis functions: 224
    Number of Cartesian functions: 260
    Spherical Harmonics?: true
    Max angular momentum: 3

  Cached 100.0% of DFT collocation blocks in 0.041 [GiB].

  Minimum eigenvalue in the overlap matrix is 5.7904347891E-03.
  Reciprocal condition number of the overlap matrix is 1.8455856122E-03.
    Using symmetric orthogonalization.

  ==> Pre-Iterations <==

  SCF Guess: Orbitals guess was supplied from a previous computation.

   -------------------------------------------------------
    Irrep   Nso     Nmo     Nalpha   Nbeta   Ndocc  Nsocc
   -------------------------------------------------------
     A1        18      18       9       9       9       0
     A2         2       2       0       0       0       0
     B1         8       8       4       3       3       1
     B2         8       8       4       3       3       1
   -------------------------------------------------------
    Total      36      36      17      15      15       2
   -------------------------------------------------------

  ==> Iterations <==

                           Total Energy        Delta E     RMS |[F,P]|

   @DF-UKS iter   0:  -857.01889225665275   -8.57019e+02   8.28160e-03 
   @DF-UKS iter   1:  -857.00105272394433    1.78395e-02   6.57430e-04 DIIS/ADIIS
   @DF-UKS iter   2:  -857.00111715034859   -6.44264e-05   3.95269e-04 DIIS/ADIIS/DAMP=1%
   @DF-UKS iter   3:  -857.00179181065937   -6.74660e-04   4.22369e-05 DIIS/DAMP=1%
   @DF-UKS iter   4:  -857.00115632211248    6.35489e-04   9.38851e-06 DIIS/DAMP=1%
   @DF-UKS iter   5:  -857.00115265687202    3.66524e-06   2.39269e-06 DIIS/DAMP=1%
   @DF-UKS iter   6:  -857.00115777842348   -5.12155e-06   1.78585e-07 DIIS/DAMP=1%
   @DF-UKS iter   7:  -857.00115667587386    1.10255e-06   2.50012e-08 DIIS/DAMP=1%
   @DF-UKS iter   8:  -857.00115675633276   -8.04589e-08   2.23264e-09 DIIS/DAMP=1%
   @DF-UKS iter   9:  -857.00115675452696    1.80580e-09   2.74550e-10 DIIS/DAMP=1%
  Energy and wave function converged.


  ==> Post-Iterations <==

   Electrons on quadrature grid:
      Nalpha   =   16.9999979631 ; deviation = -2.037e-06
      Nbeta    =   14.9999978679 ; deviation = -2.132e-06
      Ntotal   =   31.9999958310 ; deviation = -4.169e-06 

   @Spin Contamination Metric:   4.091874389E-03
   @S^2 Expected:                2.000000000E+00
   @S^2 Observed:                2.004091874E+00
   @S   Expected:                1.000000000E+00
   @S   Observed:                1.000000000E+00

    Orbital Energies [Eh]
    ---------------------

    Alpha Occupied:                                                       

       1A1  -101.930377     2A1   -89.217664     3A1    -9.916856  
       4A1    -8.357805     5A1    -7.680725     1B1    -7.657907  
       1B2    -7.657907     6A1    -6.325117     2B1    -6.300325  
       2B2    -6.300325     7A1    -1.542720     8A1    -0.963017  
       3B1    -0.930614     3B2    -0.930614     9A1    -0.759456  
       4B1    -0.494775     4B2    -0.494775  

    Alpha Virtual:                                                        

      10A1    -0.120793    11A1    -0.037736     5B1    -0.031708  
       5B2    -0.031708     1A2     0.060409    12A1     0.060410  
      13A1     0.188040    14A1     0.254018     6B1     0.273940  
       6B2     0.273940     7B2     0.298488     7B1     0.298488  
       2A2     0.454674    15A1     0.454674    16A1     0.627638  
      17A1     0.862480     8B1     0.983779     8B2     0.983779  
      18A1     2.017904  

    Beta Occupied:                                                        

       1A1  -101.925220     2A1   -89.209893     3A1    -9.911845  
       4A1    -8.349979     5A1    -7.677844     1B1    -7.647977  
       1B2    -7.647977     6A1    -6.320754     2B1    -6.284982  
       2B2    -6.284982     7A1    -1.526197     8A1    -0.904855  
       3B1    -0.893743     3B2    -0.893743     9A1    -0.712902  

    Beta Virtual:                                                         

       4B1    -0.368326     4B2    -0.368326    10A1    -0.107386  
      11A1    -0.022977     5B1    -0.007192     5B2    -0.007192  
       1A2     0.107504    12A1     0.107505    13A1     0.209965  
      14A1     0.273144     6B1     0.316330     6B2     0.316330  
       7B2     0.330438     7B1     0.330438     2A2     0.519649  
      15A1     0.519650    16A1     0.650979    17A1     0.884893  
       8B1     1.019926     8B2     1.019926    18A1     2.035876  

    Final Occupation by Irrep:
             A1    A2    B1    B2 
    DOCC [     9,    0,    3,    3 ]
    SOCC [     0,    0,    1,    1 ]
    NA   [     9,    0,    4,    4 ]
    NB   [     9,    0,    3,    3 ]

  @DF-UKS Final Energy:  -857.00115675452696

   => Energetics <=

    Nuclear Repulsion Energy =            117.7542195025512655
    One-Electron Energy =               -1404.8139010122654327
    Two-Electron Energy =                 473.7574732152763204
    DFT Exchange-Correlation Energy =     -43.6989484600891345
    Empirical Dispersion Energy =           0.0000000000000000
    VV10 Nonlocal Energy =                  0.0000000000000000
    Total Energy =                       -857.0011567545269600

  UHF NO Occupations:
  HONO-2 :    9 A1 1.9993011
  HONO-1 :    4 B1 1.0000000
  HONO-0 :    4 B2 1.0000000
  LUNO+0 :   10 A1 0.0006989
  LUNO+1 :    5 B2 0.0005999
  LUNO+2 :    5 B1 0.0005999
  LUNO+3 :   11 A1 0.0001433


Computation Completed


Properties will be evaluated at   0.000000,   0.000000,   0.000000 [a0]

Properties computed using the SCF density matrix


 Multipole Moments:

 ------------------------------------------------------------------------------------
     Multipole            Electronic (a.u.)      Nuclear  (a.u.)        Total (a.u.)
 ------------------------------------------------------------------------------------

 L = 1.  Multiply by 2.5417464519 to convert [e a0] to [Debye]
 Dipole X            :          0.0000000            0.0000000            0.0000000
 Dipole Y            :          0.0000000            0.0000000            0.0000000
 Dipole Z            :         -0.8802413            0.5512905           -0.3289507
 Magnitude           :                                                    0.3289507

 ------------------------------------------------------------------------------------

*** tstop() called on Joses-MacBook-Pro-2.local at Thu Jul 17 15:53:44 2025
Module time:
	user time   =       7.46 seconds =       0.12 minutes
	system time =       2.45 seconds =       0.04 minutes
	total time  =          1 seconds =       0.02 minutes
Total time:
	user time   =      38.13 seconds =       0.64 minutes
	system time =       8.94 seconds =       0.15 minutes
	total time  =          4 seconds =       0.07 minutes

*** tstart() called on Joses-MacBook-Pro-2.local
*** at Thu Jul 17 15:53:44 2025


         ------------------------------------------------------------
                                   SCF GRAD                          
                          Rob Parrish, Justin Turney,                
                       Andy Simmonett, and Alex Sokolov              
         ------------------------------------------------------------

  ==> Geometry <==

    Molecular point group: c2v
    Full point group: C_inf_v

    Geometry (in Angstrom), charge = 1, multiplicity = 3:

       Center              X                  Y                   Z               Mass       
    ------------   -----------------  -----------------  -----------------  -----------------
         S            0.000000000000     0.000000000000     0.638532843165    31.972071174400
         CL           0.000000000000     0.000000000000    -0.583811476302    34.968852682000

  Nuclear repulsion =  117.754219502551265

  ==> Basis Set <==

  Basis Set: CC-PVDZ
    Blend: CC-PVDZ
    Number of shells: 16
    Number of basis functions: 36
    Number of Cartesian functions: 38
    Spherical Harmonics?: true
    Max angular momentum: 2

  ==> DFJKGrad: Density-Fitted SCF Gradients <==

    Gradient:                    1
    J tasked:                  Yes
    K tasked:                  Yes
    wK tasked:                  No
    OpenMP threads:              1
    Integrals threads:           1
    Memory [MiB]:              375
    Schwarz Cutoff:          1E-12
    Fitting Condition:       1E-10

   => Auxiliary Basis Set <=

  Basis Set: (CC-PVDZ AUX)
    Blend: CC-PVDZ-JKFIT
    Number of shells: 72
    Number of basis functions: 224
    Number of Cartesian functions: 260
    Spherical Harmonics?: true
    Max angular momentum: 3

  ==> DFT Potential <==

   => LibXC <=

    Version 6.2.2
    S. Lehtola, C. Steigemann, M. J.T. Oliveira, and M. A.L. Marques.,  SoftwareX 7, 1–5 (2018) (10.1016/j.softx.2017.11.002)

   => Composite Functional: B3LYP <= 

    B3LYP Hyb-GGA Exchange-Correlation Functional

    P. J. Stephens, F. J. Devlin, C. F. Chabalowski, and M. J. Frisch.,  J. Phys. Chem. 98, 11623 (1994) (10.1021/j100096a001)

    Deriv               =              1
    GGA                 =           TRUE
    Meta                =          FALSE

    Exchange Hybrid     =           TRUE
    MP2 Hybrid          =          FALSE

   => Exchange Functionals <=

    0.0800   Slater exchange
    0.7200         Becke 88

   => Exact (HF) Exchange <=

    0.2000               HF 

   => Correlation Functionals <=

    0.1900   Vosko, Wilk & Nusair (VWN5_RPA)
    0.8100   Lee, Yang & Parr

   => LibXC Density Thresholds  <==

    XC_HYB_GGA_XC_B3LYP:  1.00E-15 

   => Molecular Quadrature <=

    Radial Scheme          =       TREUTLER
    Pruning Scheme         =           NONE
    Nuclear Scheme         =       TREUTLER

    Blocking Scheme        =         OCTREE
    BS radius alpha        =              1
    Pruning alpha          =              1
    Radial Points          =             75
    Spherical Points       =            302
    Total Points           =          40082
    Total Blocks           =            362
    Max Points             =            254
    Max Functions          =             36
    Weights Tolerance      =       1.00E-15


  -Total Gradient:
     Atom            X                  Y                   Z
    ------   -----------------  -----------------  -----------------
       1       -0.000000000000     0.000000000000    -2.835384905498
       2       -0.000000000000     0.000000000000     2.835338710736


*** tstop() called on Joses-MacBook-Pro-2.local at Thu Jul 17 15:53:44 2025
Module time:
	user time   =       2.81 seconds =       0.05 minutes
	system time =       0.79 seconds =       0.01 minutes
	total time  =          0 seconds =       0.00 minutes
Total time:
	user time   =      40.94 seconds =       0.68 minutes
	system time =       9.73 seconds =       0.16 minutes
	total time  =          4 seconds =       0.07 minutes

    			-----------------------------------------

    			 OPTKING 3.0: for geometry optimizations 

    			     By R.A. King, Bethel University     

    			        with contributions from          

    			    A.V. Copan, J. Cayton, A. Heide      

    			-----------------------------------------

    
	                            ===> Fragment 1 <== 

	 Z (Atomic Numbers)          Masses                          Geom                  
	      16.000000            31.972071          0.00000000  0.00000000  1.20665220   
	      17.000000            34.968853          0.00000000  0.00000000 -1.10324380   

	 - Coordinate -           - BOHR/RAD -       - ANG/DEG -
	 R(1,2)           =         2.309896           1.222344


	        --- Internal Coordinate Step in ANG or DEG, aJ/ANG or AJ/DEG ---
	-------------------------------------------------------------------------------
	           Coordinate      Previous         Force          Change          New 
	           ----------      --------        ------          ------        ------
	               R(1,2)       1.22234       23.35976        0.05452       1.27687
	-------------------------------------------------------------------------------

	                                 ==> Convergence Check <==                                  
    
	Measures of convergence in internal coordinates in au.
    
	Criteria marked as inactive (o), active & met (*), and active & unmet ( ).

	----------------------------------------------------------------------------------------------
	   Step    Total Energy     Delta E     Max Force     RMS Force      Max Disp      RMS Disp   
	----------------------------------------------------------------------------------------------
	  Convergence Criteria     1.00e-06 *    3.00e-04 *             o    1.20e-03 *             o
	----------------------------------------------------------------------------------------------
	     3    -857.00115675   -8.16e-02      2.84e+00      2.84e+00 o    1.03e-01      1.03e-01 o  ~
	----------------------------------------------------------------------------------------------

Next Geometry in Ang 
	Fragment 1 (Ang)

	    S   0.0000000000   0.0000000000   0.6657932958
	   Cl   0.0000000000   0.0000000000  -0.6110719290


    Structure for next step:
    Molecular point group: c2v
    Full point group: C_inf_v

    Geometry (in Angstrom), charge = 1, multiplicity = 3:

    S            0.000000000000     0.000000000000     0.667013679640
    CL           0.000000000000     0.000000000000    -0.609851545136


Scratch directory: /tmp/
gradient() will perform analytic gradient computation.
   => Libint2 <=

    Primary   basis highest AM E, G, H:  6, 6, 3
    Auxiliary basis highest AM E, G, H:  7, 7, 4
    Onebody   basis highest AM E, G, H:  -, -, -
    Solid Harmonics ordering:            Gaussian

*** tstart() called on Joses-MacBook-Pro-2.local
*** at Thu Jul 17 15:53:45 2025

   => Loading Basis Set <=

    Name: CC-PVDZ
    Role: ORBITAL
    Keyword: BASIS
    atoms 1 entry S          line   598 file /Users/joseantoniorodriguesromero/anaconda3/share/psi4/basis/cc-pvdz.gbs 
    atoms 2 entry CL         line   658 file /Users/joseantoniorodriguesromero/anaconda3/share/psi4/basis/cc-pvdz.gbs 


         ---------------------------------------------------------
                                   SCF
               by Justin Turney, Rob Parrish, Andy Simmonett
                          and Daniel G. A. Smith
                              UKS Reference
                        1 Threads,    500 MiB Core
         ---------------------------------------------------------

  ==> Geometry <==

    Molecular point group: c2v
    Full point group: C_inf_v

    Geometry (in Angstrom), charge = 1, multiplicity = 3:

       Center              X                  Y                   Z               Mass       
    ------------   -----------------  -----------------  -----------------  -----------------
         S            0.000000000000     0.000000000000     0.667013679640    31.972071174400
         CL           0.000000000000     0.000000000000    -0.609851545136    34.968852682000

  Running in c2v symmetry.

  Rotational constants: A = ************  B =      0.61908  C =      0.61908 [cm^-1]
  Rotational constants: A = ************  B =  18559.51522  C =  18559.51522 [MHz]
  Nuclear repulsion =  112.726228664877510

  Charge       = 1
  Multiplicity = 3
  Electrons    = 32
  Nalpha       = 17
  Nbeta        = 15

  ==> Algorithm <==

  SCF Algorithm Type is DF.
  DIIS enabled.
  MOM disabled.
  Fractional occupation disabled.
  Guess Type is READ.
  Energy threshold   = 1.00e-08
  Density threshold  = 1.00e-08
  Integral threshold = 1.00e-12

  ==> Primary Basis <==

  Basis Set: CC-PVDZ
    Blend: CC-PVDZ
    Number of shells: 16
    Number of basis functions: 36
    Number of Cartesian functions: 38
    Spherical Harmonics?: true
    Max angular momentum: 2

  ==> DFT Potential <==

   => LibXC <=

    Version 6.2.2
    S. Lehtola, C. Steigemann, M. J.T. Oliveira, and M. A.L. Marques.,  SoftwareX 7, 1–5 (2018) (10.1016/j.softx.2017.11.002)

   => Composite Functional: B3LYP <= 

    B3LYP Hyb-GGA Exchange-Correlation Functional

    P. J. Stephens, F. J. Devlin, C. F. Chabalowski, and M. J. Frisch.,  J. Phys. Chem. 98, 11623 (1994) (10.1021/j100096a001)

    Deriv               =              1
    GGA                 =           TRUE
    Meta                =          FALSE

    Exchange Hybrid     =           TRUE
    MP2 Hybrid          =          FALSE

   => Exchange Functionals <=

    0.0800   Slater exchange
    0.7200         Becke 88

   => Exact (HF) Exchange <=

    0.2000               HF 

   => Correlation Functionals <=

    0.1900   Vosko, Wilk & Nusair (VWN5_RPA)
    0.8100   Lee, Yang & Parr

   => LibXC Density Thresholds  <==

    XC_HYB_GGA_XC_B3LYP:  1.00E-15 

   => Molecular Quadrature <=

    Radial Scheme          =       TREUTLER
    Pruning Scheme         =           NONE
    Nuclear Scheme         =       TREUTLER

    Blocking Scheme        =         OCTREE
    BS radius alpha        =              1
    Pruning alpha          =              1
    Radial Points          =             75
    Spherical Points       =            302
    Total Points           =          40090
    Total Blocks           =            364
    Max Points             =            253
    Max Functions          =             36
    Weights Tolerance      =       1.00E-15

   => Loading Basis Set <=

    Name: (CC-PVDZ AUX)
    Role: JKFIT
    Keyword: DF_BASIS_SCF
    atoms 1 entry S          line   593 file /Users/joseantoniorodriguesromero/anaconda3/share/psi4/basis/cc-pvdz-jkfit.gbs 
    atoms 2 entry CL         line   667 file /Users/joseantoniorodriguesromero/anaconda3/share/psi4/basis/cc-pvdz-jkfit.gbs 

   => Loading Basis Set <=

    Name: CC-PVDZ
    Role: ORBITAL
    Keyword: BASIS
    atoms 1 entry S          line   598 file /Users/joseantoniorodriguesromero/anaconda3/share/psi4/basis/cc-pvdz.gbs 
    atoms 2 entry CL         line   658 file /Users/joseantoniorodriguesromero/anaconda3/share/psi4/basis/cc-pvdz.gbs 

  Reading orbitals from file /tmp/triplet_SCl.default.75666.180.npy, no projection.

  ==> Integral Setup <==

  DFHelper Memory: AOs need 0.003 GiB; user supplied 0.325 GiB. 
  Using in-core AOs.

  ==> MemDFJK: Density-Fitted J/K Matrices <==

    J tasked:                   Yes
    K tasked:                   Yes
    wK tasked:                   No
    OpenMP threads:               1
    Memory [MiB]:               332
    Algorithm:                 Core
    Schwarz Cutoff:           1E-12
    Mask sparsity (%):       0.0000
    Fitting Condition:        1E-10

   => Auxiliary Basis Set <=

  Basis Set: (CC-PVDZ AUX)
    Blend: CC-PVDZ-JKFIT
    Number of shells: 72
    Number of basis functions: 224
    Number of Cartesian functions: 260
    Spherical Harmonics?: true
    Max angular momentum: 3

  Cached 100.0% of DFT collocation blocks in 0.041 [GiB].

  Minimum eigenvalue in the overlap matrix is 6.6001838590E-03.
  Reciprocal condition number of the overlap matrix is 2.1118956687E-03.
    Using symmetric orthogonalization.

  ==> Pre-Iterations <==

  SCF Guess: Orbitals guess was supplied from a previous computation.

   -------------------------------------------------------
    Irrep   Nso     Nmo     Nalpha   Nbeta   Ndocc  Nsocc
   -------------------------------------------------------
     A1        18      18       9       9       9       0
     A2         2       2       0       0       0       0
     B1         8       8       4       3       3       1
     B2         8       8       4       3       3       1
   -------------------------------------------------------
    Total      36      36      17      15      15       2
   -------------------------------------------------------

  ==> Iterations <==

                           Total Energy        Delta E     RMS |[F,P]|

   @DF-UKS iter   0:  -857.32257187176981   -8.57323e+02   2.86163e-02 
   @DF-UKS iter   1:  -857.25839093045806    6.41809e-02   2.11072e-03 DIIS/ADIIS
   @DF-UKS iter   2:  -857.25904343772891   -6.52507e-04   1.26891e-03 DIIS/ADIIS/DAMP=1%
   @DF-UKS iter   3:  -857.26136857443601   -2.32514e-03   1.90692e-04 DIIS/ADIIS/DAMP=1%
   @DF-UKS iter   4:  -857.25948007929696    1.88850e-03   3.94725e-05 DIIS/DAMP=1%
   @DF-UKS iter   5:  -857.25943395219281    4.61271e-05   8.43295e-06 DIIS/DAMP=1%
   @DF-UKS iter   6:  -857.25946098950590   -2.70373e-05   7.52552e-07 DIIS/DAMP=1%
   @DF-UKS iter   7:  -857.25945785500153    3.13450e-06   8.90825e-08 DIIS/DAMP=1%
   @DF-UKS iter   8:  -857.25945801922455   -1.64223e-07   8.04383e-09 DIIS/DAMP=1%
   @DF-UKS iter   9:  -857.25945802586693   -6.64238e-09   1.84260e-09 DIIS/DAMP=1%
  Energy and wave function converged.


  ==> Post-Iterations <==

   Electrons on quadrature grid:
      Nalpha   =   16.9999996114 ; deviation = -3.886e-07
      Nbeta    =   14.9999992789 ; deviation = -7.211e-07
      Ntotal   =   31.9999988904 ; deviation = -1.110e-06 

   @Spin Contamination Metric:   4.268910194E-03
   @S^2 Expected:                2.000000000E+00
   @S^2 Observed:                2.004268910E+00
   @S   Expected:                1.000000000E+00
   @S   Observed:                1.000000000E+00

    Orbital Energies [Eh]
    ---------------------

    Alpha Occupied:                                                       

       1A1  -101.926245     2A1   -89.218388     3A1    -9.899155  
       4A1    -8.341666     5A1    -7.661378     1B1    -7.644162  
       1B2    -7.644162     6A1    -6.307465     2B2    -6.289430  
       2B1    -6.289430     7A1    -1.520488     8A1    -0.966325  
       3B2    -0.904304     3B1    -0.904304     9A1    -0.763671  
       4B2    -0.503128     4B1    -0.503128  

    Alpha Virtual:                                                        

      10A1    -0.123807    11A1    -0.047175     5B1    -0.017537  
       5B2    -0.017537    12A1     0.082253     1A2     0.082253  
      13A1     0.189350    14A1     0.242661     6B1     0.266323  
       6B2     0.266323     7B1     0.293892     7B2     0.293892  
      15A1     0.442951     2A2     0.442951    16A1     0.625389  
      17A1     0.836864     8B2     0.936229     8B1     0.936229  
      18A1     1.850926  

    Beta Occupied:                                                        

       1A1  -101.921082     2A1   -89.210417     3A1    -9.894141  
       4A1    -8.333617     5A1    -7.658532     1B1    -7.634222  
       1B2    -7.634222     6A1    -6.302998     2B2    -6.273679  
       2B1    -6.273679     7A1    -1.503642     8A1    -0.908884  
       3B2    -0.866187     3B1    -0.866187     9A1    -0.717578  

    Beta Virtual:                                                         

       4B2    -0.376903     4B1    -0.376903    10A1    -0.108487  
      11A1    -0.033132     5B1     0.006674     5B2     0.006674  
       1A2     0.131218    12A1     0.131218    13A1     0.210717  
      14A1     0.260554     6B1     0.309325     6B2     0.309325  
       7B1     0.323512     7B2     0.323512     2A2     0.506875  
      15A1     0.506875    16A1     0.649176    17A1     0.858780  
       8B2     0.972083     8B1     0.972083    18A1     1.869297  

    Final Occupation by Irrep:
             A1    A2    B1    B2 
    DOCC [     9,    0,    3,    3 ]
    SOCC [     0,    0,    1,    1 ]
    NA   [     9,    0,    4,    4 ]
    NB   [     9,    0,    3,    3 ]

  @DF-UKS Final Energy:  -857.25945802586693

   => Energetics <=

    Nuclear Repulsion Energy =            112.7262286648775103
    One-Electron Energy =               -1395.6906199130569348
    Two-Electron Energy =                 469.3328728143816875
    DFT Exchange-Correlation Energy =     -43.6279395920692252
    Empirical Dispersion Energy =           0.0000000000000000
    VV10 Nonlocal Energy =                  0.0000000000000000
    Total Energy =                       -857.2594580258669339

  UHF NO Occupations:
  HONO-2 :    9 A1 1.9992485
  HONO-1 :    4 B2 1.0000000
  HONO-0 :    4 B1 1.0000000
  LUNO+0 :   10 A1 0.0007515
  LUNO+1 :    5 B1 0.0006187
  LUNO+2 :    5 B2 0.0006187
  LUNO+3 :   11 A1 0.0001408


Computation Completed


Properties will be evaluated at   0.000000,   0.000000,   0.000000 [a0]

Properties computed using the SCF density matrix


 Multipole Moments:

 ------------------------------------------------------------------------------------
     Multipole            Electronic (a.u.)      Nuclear  (a.u.)        Total (a.u.)
 ------------------------------------------------------------------------------------

 L = 1.  Multiply by 2.5417464519 to convert [e a0] to [Debye]
 Dipole X            :          0.0000000            0.0000000            0.0000000
 Dipole Y            :          0.0000000            0.0000000            0.0000000
 Dipole Z            :         -0.8675383            0.5758801           -0.2916583
 Magnitude           :                                                    0.2916583

 ------------------------------------------------------------------------------------

*** tstop() called on Joses-MacBook-Pro-2.local at Thu Jul 17 15:53:45 2025
Module time:
	user time   =       7.53 seconds =       0.13 minutes
	system time =       1.82 seconds =       0.03 minutes
	total time  =          0 seconds =       0.00 minutes
Total time:
	user time   =      48.67 seconds =       0.81 minutes
	system time =      11.66 seconds =       0.19 minutes
	total time  =          5 seconds =       0.08 minutes

*** tstart() called on Joses-MacBook-Pro-2.local
*** at Thu Jul 17 15:53:45 2025


         ------------------------------------------------------------
                                   SCF GRAD                          
                          Rob Parrish, Justin Turney,                
                       Andy Simmonett, and Alex Sokolov              
         ------------------------------------------------------------

  ==> Geometry <==

    Molecular point group: c2v
    Full point group: C_inf_v

    Geometry (in Angstrom), charge = 1, multiplicity = 3:

       Center              X                  Y                   Z               Mass       
    ------------   -----------------  -----------------  -----------------  -----------------
         S            0.000000000000     0.000000000000     0.667013679640    31.972071174400
         CL           0.000000000000     0.000000000000    -0.609851545136    34.968852682000

  Nuclear repulsion =  112.726228664877510

  ==> Basis Set <==

  Basis Set: CC-PVDZ
    Blend: CC-PVDZ
    Number of shells: 16
    Number of basis functions: 36
    Number of Cartesian functions: 38
    Spherical Harmonics?: true
    Max angular momentum: 2

  ==> DFJKGrad: Density-Fitted SCF Gradients <==

    Gradient:                    1
    J tasked:                  Yes
    K tasked:                  Yes
    wK tasked:                  No
    OpenMP threads:              1
    Integrals threads:           1
    Memory [MiB]:              375
    Schwarz Cutoff:          1E-12
    Fitting Condition:       1E-10

   => Auxiliary Basis Set <=

  Basis Set: (CC-PVDZ AUX)
    Blend: CC-PVDZ-JKFIT
    Number of shells: 72
    Number of basis functions: 224
    Number of Cartesian functions: 260
    Spherical Harmonics?: true
    Max angular momentum: 3

  ==> DFT Potential <==

   => LibXC <=

    Version 6.2.2
    S. Lehtola, C. Steigemann, M. J.T. Oliveira, and M. A.L. Marques.,  SoftwareX 7, 1–5 (2018) (10.1016/j.softx.2017.11.002)

   => Composite Functional: B3LYP <= 

    B3LYP Hyb-GGA Exchange-Correlation Functional

    P. J. Stephens, F. J. Devlin, C. F. Chabalowski, and M. J. Frisch.,  J. Phys. Chem. 98, 11623 (1994) (10.1021/j100096a001)

    Deriv               =              1
    GGA                 =           TRUE
    Meta                =          FALSE

    Exchange Hybrid     =           TRUE
    MP2 Hybrid          =          FALSE

   => Exchange Functionals <=

    0.0800   Slater exchange
    0.7200         Becke 88

   => Exact (HF) Exchange <=

    0.2000               HF 

   => Correlation Functionals <=

    0.1900   Vosko, Wilk & Nusair (VWN5_RPA)
    0.8100   Lee, Yang & Parr

   => LibXC Density Thresholds  <==

    XC_HYB_GGA_XC_B3LYP:  1.00E-15 

   => Molecular Quadrature <=

    Radial Scheme          =       TREUTLER
    Pruning Scheme         =           NONE
    Nuclear Scheme         =       TREUTLER

    Blocking Scheme        =         OCTREE
    BS radius alpha        =              1
    Pruning alpha          =              1
    Radial Points          =             75
    Spherical Points       =            302
    Total Points           =          40090
    Total Blocks           =            364
    Max Points             =            253
    Max Functions          =             36
    Weights Tolerance      =       1.00E-15


  -Total Gradient:
     Atom            X                  Y                   Z
    ------   -----------------  -----------------  -----------------
       1        0.000000000000     0.000000000000    -2.202603687133
       2        0.000000000000    -0.000000000000     2.202570266941


*** tstop() called on Joses-MacBook-Pro-2.local at Thu Jul 17 15:53:46 2025
Module time:
	user time   =       2.49 seconds =       0.04 minutes
	system time =       0.99 seconds =       0.02 minutes
	total time  =          1 seconds =       0.02 minutes
Total time:
	user time   =      51.16 seconds =       0.85 minutes
	system time =      12.65 seconds =       0.21 minutes
	total time  =          6 seconds =       0.10 minutes

    			-----------------------------------------

    			 OPTKING 3.0: for geometry optimizations 

    			     By R.A. King, Bethel University     

    			        with contributions from          

    			    A.V. Copan, J. Cayton, A. Heide      

    			-----------------------------------------

    
	                            ===> Fragment 1 <== 

	 Z (Atomic Numbers)          Masses                          Geom                  
	      16.000000            31.972071          0.00000000  0.00000000  1.26047318   
	      17.000000            34.968853          0.00000000  0.00000000 -1.15245240   

	 - Coordinate -           - BOHR/RAD -       - ANG/DEG -
	 R(1,2)           =         2.412926           1.276865


	        --- Internal Coordinate Step in ANG or DEG, aJ/ANG or AJ/DEG ---
	-------------------------------------------------------------------------------
	           Coordinate      Previous         Force          Change          New 
	           ----------      --------        ------          ------        ------
	               R(1,2)       1.27687       18.14650        0.16358       1.44045
	-------------------------------------------------------------------------------

	                                 ==> Convergence Check <==                                  
    
	Measures of convergence in internal coordinates in au.
    
	Criteria marked as inactive (o), active & met (*), and active & unmet ( ).

	----------------------------------------------------------------------------------------------
	   Step    Total Energy     Delta E     Max Force     RMS Force      Max Disp      RMS Disp   
	----------------------------------------------------------------------------------------------
	  Convergence Criteria     1.00e-06 *    3.00e-04 *             o    1.20e-03 *             o
	----------------------------------------------------------------------------------------------
	     4    -857.25945803   -2.58e-01      2.20e+00      2.20e+00 o    3.09e-01      3.09e-01 o  ~
	----------------------------------------------------------------------------------------------

Next Geometry in Ang 
	Fragment 1 (Ang)

	    S   0.0000000000   0.0000000000   0.7488045528
	   Cl   0.0000000000   0.0000000000  -0.6916424183


    Structure for next step:
    Molecular point group: c2v
    Full point group: C_inf_v

    Geometry (in Angstrom), charge = 1, multiplicity = 3:

    S            0.000000000000     0.000000000000     0.752466130226
    CL           0.000000000000     0.000000000000    -0.687980840855


Scratch directory: /tmp/
gradient() will perform analytic gradient computation.
   => Libint2 <=

    Primary   basis highest AM E, G, H:  6, 6, 3
    Auxiliary basis highest AM E, G, H:  7, 7, 4
    Onebody   basis highest AM E, G, H:  -, -, -
    Solid Harmonics ordering:            Gaussian

*** tstart() called on Joses-MacBook-Pro-2.local
*** at Thu Jul 17 15:53:46 2025

   => Loading Basis Set <=

    Name: CC-PVDZ
    Role: ORBITAL
    Keyword: BASIS
    atoms 1 entry S          line   598 file /Users/joseantoniorodriguesromero/anaconda3/share/psi4/basis/cc-pvdz.gbs 
    atoms 2 entry CL         line   658 file /Users/joseantoniorodriguesromero/anaconda3/share/psi4/basis/cc-pvdz.gbs 


         ---------------------------------------------------------
                                   SCF
               by Justin Turney, Rob Parrish, Andy Simmonett
                          and Daniel G. A. Smith
                              UKS Reference
                        1 Threads,    500 MiB Core
         ---------------------------------------------------------

  ==> Geometry <==

    Molecular point group: c2v
    Full point group: C_inf_v

    Geometry (in Angstrom), charge = 1, multiplicity = 3:

       Center              X                  Y                   Z               Mass       
    ------------   -----------------  -----------------  -----------------  -----------------
         S            0.000000000000     0.000000000000     0.752466130226    31.972071174400
         CL           0.000000000000     0.000000000000    -0.687980840855    34.968852682000

  Running in c2v symmetry.

  Rotational constants: A = ************  B =      0.48645  C =      0.48645 [cm^-1]
  Rotational constants: A = ************  B =  14583.51448  C =  14583.51448 [MHz]
  Nuclear repulsion =   99.924679069746375

  Charge       = 1
  Multiplicity = 3
  Electrons    = 32
  Nalpha       = 17
  Nbeta        = 15

  ==> Algorithm <==

  SCF Algorithm Type is DF.
  DIIS enabled.
  MOM disabled.
  Fractional occupation disabled.
  Guess Type is READ.
  Energy threshold   = 1.00e-08
  Density threshold  = 1.00e-08
  Integral threshold = 1.00e-12

  ==> Primary Basis <==

  Basis Set: CC-PVDZ
    Blend: CC-PVDZ
    Number of shells: 16
    Number of basis functions: 36
    Number of Cartesian functions: 38
    Spherical Harmonics?: true
    Max angular momentum: 2

  ==> DFT Potential <==

   => LibXC <=

    Version 6.2.2
[...]
	   Step    Total Energy     Delta E     Max Force     RMS Force      Max Disp      RMS Disp   
	----------------------------------------------------------------------------------------------
	  Convergence Criteria     1.00e-06 *    3.00e-04 *             o    1.20e-03 *             o
	----------------------------------------------------------------------------------------------
	    14    -858.02719645   -9.21e-06      5.56e-04      5.56e-04 o    1.76e-03      1.76e-03 o  ~
	----------------------------------------------------------------------------------------------

Next Geometry in Ang 
	Fragment 1 (Ang)

	    S   0.0000000000   0.0000000000   1.0053232027
	   Cl   0.0000000000   0.0000000000  -0.9192082883


    Structure for next step:
    Molecular point group: c2v
    Full point group: C_inf_v

    Geometry (in Angstrom), charge = 1, multiplicity = 3:

    S            0.000000000000     0.000000000000     1.005344030407
    CL           0.000000000000     0.000000000000    -0.919187460544


Scratch directory: /tmp/
gradient() will perform analytic gradient computation.
   => Libint2 <=

    Primary   basis highest AM E, G, H:  6, 6, 3
    Auxiliary basis highest AM E, G, H:  7, 7, 4
    Onebody   basis highest AM E, G, H:  -, -, -
    Solid Harmonics ordering:            Gaussian

*** tstart() called on Joses-MacBook-Pro-2.local
*** at Thu Jul 17 15:54:00 2025

   => Loading Basis Set <=

    Name: CC-PVDZ
    Role: ORBITAL
    Keyword: BASIS
    atoms 1 entry S          line   598 file /Users/joseantoniorodriguesromero/anaconda3/share/psi4/basis/cc-pvdz.gbs 
    atoms 2 entry CL         line   658 file /Users/joseantoniorodriguesromero/anaconda3/share/psi4/basis/cc-pvdz.gbs 


         ---------------------------------------------------------
                                   SCF
               by Justin Turney, Rob Parrish, Andy Simmonett
                          and Daniel G. A. Smith
                              UKS Reference
                        1 Threads,    500 MiB Core
         ---------------------------------------------------------

  ==> Geometry <==

    Molecular point group: c2v
    Full point group: C_inf_v

    Geometry (in Angstrom), charge = 1, multiplicity = 3:

       Center              X                  Y                   Z               Mass       
    ------------   -----------------  -----------------  -----------------  -----------------
         S            0.000000000000     0.000000000000     1.005344030407    31.972071174400
         CL           0.000000000000     0.000000000000    -0.919187460544    34.968852682000

  Running in c2v symmetry.

  Rotational constants: A = ************  B =      0.27251  C =      0.27251 [cm^-1]
  Rotational constants: A = ************  B =   8169.71117  C =   8169.71117 [MHz]
  Nuclear repulsion =   74.790255175872034

  Charge       = 1
  Multiplicity = 3
  Electrons    = 32
  Nalpha       = 17
  Nbeta        = 15

  ==> Algorithm <==

  SCF Algorithm Type is DF.
  DIIS enabled.
  MOM disabled.
  Fractional occupation disabled.
  Guess Type is READ.
  Energy threshold   = 1.00e-08
  Density threshold  = 1.00e-08
  Integral threshold = 1.00e-12

  ==> Primary Basis <==

  Basis Set: CC-PVDZ
    Blend: CC-PVDZ
    Number of shells: 16
    Number of basis functions: 36
    Number of Cartesian functions: 38
    Spherical Harmonics?: true
    Max angular momentum: 2

  ==> DFT Potential <==

   => LibXC <=

    Version 6.2.2
    S. Lehtola, C. Steigemann, M. J.T. Oliveira, and M. A.L. Marques.,  SoftwareX 7, 1–5 (2018) (10.1016/j.softx.2017.11.002)

   => Composite Functional: B3LYP <= 

    B3LYP Hyb-GGA Exchange-Correlation Functional

    P. J. Stephens, F. J. Devlin, C. F. Chabalowski, and M. J. Frisch.,  J. Phys. Chem. 98, 11623 (1994) (10.1021/j100096a001)

    Deriv               =              1
    GGA                 =           TRUE
    Meta                =          FALSE

    Exchange Hybrid     =           TRUE
    MP2 Hybrid          =          FALSE

   => Exchange Functionals <=

    0.0800   Slater exchange
    0.7200         Becke 88

   => Exact (HF) Exchange <=

    0.2000               HF 

   => Correlation Functionals <=

    0.1900   Vosko, Wilk & Nusair (VWN5_RPA)
    0.8100   Lee, Yang & Parr

   => LibXC Density Thresholds  <==

    XC_HYB_GGA_XC_B3LYP:  1.00E-15 

   => Molecular Quadrature <=

    Radial Scheme          =       TREUTLER
    Pruning Scheme         =           NONE
    Nuclear Scheme         =       TREUTLER

    Blocking Scheme        =         OCTREE
    BS radius alpha        =              1
    Pruning alpha          =              1
    Radial Points          =             75
    Spherical Points       =            302
    Total Points           =          40206
    Total Blocks           =            360
    Max Points             =            256
    Max Functions          =             36
    Weights Tolerance      =       1.00E-15

   => Loading Basis Set <=

    Name: (CC-PVDZ AUX)
    Role: JKFIT
    Keyword: DF_BASIS_SCF
    atoms 1 entry S          line   593 file /Users/joseantoniorodriguesromero/anaconda3/share/psi4/basis/cc-pvdz-jkfit.gbs 
    atoms 2 entry CL         line   667 file /Users/joseantoniorodriguesromero/anaconda3/share/psi4/basis/cc-pvdz-jkfit.gbs 

   => Loading Basis Set <=

    Name: CC-PVDZ
    Role: ORBITAL
    Keyword: BASIS
    atoms 1 entry S          line   598 file /Users/joseantoniorodriguesromero/anaconda3/share/psi4/basis/cc-pvdz.gbs 
    atoms 2 entry CL         line   658 file /Users/joseantoniorodriguesromero/anaconda3/share/psi4/basis/cc-pvdz.gbs 

  Reading orbitals from file /tmp/triplet_SCl.default.75666.180.npy, no projection.

  ==> Integral Setup <==

  DFHelper Memory: AOs need 0.003 GiB; user supplied 0.325 GiB. 
  Using in-core AOs.

  ==> MemDFJK: Density-Fitted J/K Matrices <==

    J tasked:                   Yes
    K tasked:                   Yes
    wK tasked:                   No
    OpenMP threads:               1
    Memory [MiB]:               333
    Algorithm:                 Core
    Schwarz Cutoff:           1E-12
    Mask sparsity (%):       0.0000
    Fitting Condition:        1E-10

   => Auxiliary Basis Set <=

  Basis Set: (CC-PVDZ AUX)
    Blend: CC-PVDZ-JKFIT
    Number of shells: 72
    Number of basis functions: 224
    Number of Cartesian functions: 260
    Spherical Harmonics?: true
    Max angular momentum: 3

  Cached 100.0% of DFT collocation blocks in 0.041 [GiB].

  Minimum eigenvalue in the overlap matrix is 2.5031335619E-02.
  Reciprocal condition number of the overlap matrix is 9.1041679477E-03.
    Using symmetric orthogonalization.

  ==> Pre-Iterations <==

  SCF Guess: Orbitals guess was supplied from a previous computation.

   -------------------------------------------------------
    Irrep   Nso     Nmo     Nalpha   Nbeta   Ndocc  Nsocc
   -------------------------------------------------------
     A1        18      18       9       9       9       0
     A2         2       2       0       0       0       0
     B1         8       8       4       3       3       1
     B2         8       8       4       3       3       1
   -------------------------------------------------------
    Total      36      36      17      15      15       2
   -------------------------------------------------------

  ==> Iterations <==

                           Total Energy        Delta E     RMS |[F,P]|

   @DF-UKS iter   0:  -858.02656312505337   -8.58027e+02   9.22042e-05 
   @DF-UKS iter   1:  -858.02719684924989   -6.33724e-04   2.19146e-05 DIIS
   @DF-UKS iter   2:  -858.02719665675340    1.92496e-07   3.34263e-05 DIIS/DAMP=1%
   @DF-UKS iter   3:  -858.02717778203987    1.88747e-05   9.87787e-06 DIIS/DAMP=1%
   @DF-UKS iter   4:  -858.02719578535630   -1.80033e-05   2.45559e-07 DIIS/DAMP=1%
   @DF-UKS iter   5:  -858.02719701395097   -1.22859e-06   2.31269e-07 DIIS/DAMP=1%
   @DF-UKS iter   6:  -858.02719696480494    4.91460e-08   4.65789e-08 DIIS/DAMP=1%
   @DF-UKS iter   7:  -858.02719701195610   -4.71512e-08   5.60026e-09 DIIS/DAMP=1%
   @DF-UKS iter   8:  -858.02719699060378    2.13523e-08   7.64121e-10 DIIS/DAMP=1%
   @DF-UKS iter   9:  -858.02719699176919   -1.16540e-09   2.45665e-10 DIIS/DAMP=1%
  Energy and wave function converged.


  ==> Post-Iterations <==

   Electrons on quadrature grid:
      Nalpha   =   16.9999988275 ; deviation = -1.172e-06
      Nbeta    =   14.9999990993 ; deviation = -9.007e-07
      Ntotal   =   31.9999979268 ; deviation = -2.073e-06 

   @Spin Contamination Metric:   4.430131388E-03
   @S^2 Expected:                2.000000000E+00
   @S^2 Observed:                2.004430131E+00
   @S   Expected:                1.000000000E+00
   @S   Observed:                1.000000000E+00

    Orbital Energies [Eh]
    ---------------------

    Alpha Occupied:                                                       

       1A1  -101.905777     2A1   -89.298574     3A1    -9.822430  
       4A1    -8.354301     5A1    -7.583435     1B1    -7.577292  
       1B2    -7.577292     2B1    -6.317099     2B2    -6.317099  
       6A1    -6.315425     7A1    -1.233223     8A1    -1.012790  
       9A1    -0.748017     3B1    -0.711597     3B2    -0.711597  
       4B1    -0.587143     4B2    -0.587143  

    Alpha Virtual:                                                        

      10A1    -0.346528    11A1     0.044293     5B2     0.130635  
       5B1     0.130635    12A1     0.175909     6B2     0.186677  
       6B1     0.186677     1A2     0.205827    13A1     0.205829  
      14A1     0.222925     7B2     0.279787     7B1     0.279787  
       2A2     0.398604    15A1     0.398605    16A1     0.456221  
      17A1     0.514597     8B2     0.588282     8B1     0.588282  
      18A1     1.017343  

    Beta Occupied:                                                        

       1A1  -101.901840     2A1   -89.288615     3A1    -9.818632  
       4A1    -8.344217     5A1    -7.581655     1B1    -7.569607  
       1B2    -7.569607     6A1    -6.309549     2B1    -6.297564  
       2B2    -6.297564     7A1    -1.207017     8A1    -0.949200  
       9A1    -0.722696     3B1    -0.664448     3B2    -0.664448  

    Beta Virtual:                                                         

       4B1    -0.461054     4B2    -0.461054    10A1    -0.323726  
      11A1     0.059902     5B2     0.168067     5B1     0.168067  
      12A1     0.192220     6B2     0.221843     6B1     0.221843  
      13A1     0.236150     1A2     0.287724    14A1     0.287725  
       7B2     0.295056     7B1     0.295056     2A2     0.434212  
      15A1     0.434213    16A1     0.472708    17A1     0.534505  
       8B2     0.617236     8B1     0.617236    18A1     1.036726  

    Final Occupation by Irrep:
             A1    A2    B1    B2 
    DOCC [     9,    0,    3,    3 ]
    SOCC [     0,    0,    1,    1 ]
    NA   [     9,    0,    4,    4 ]
    NB   [     9,    0,    3,    3 ]

  @DF-UKS Final Energy:  -858.02719699176919

   => Energetics <=

    Nuclear Repulsion Energy =             74.7902551758720335
    One-Electron Energy =               -1323.1011403227817027
    Two-Electron Energy =                 433.4540462259355422
    DFT Exchange-Correlation Energy =     -43.1703580707951460
    Empirical Dispersion Energy =           0.0000000000000000
    VV10 Nonlocal Energy =                  0.0000000000000000
    Total Energy =                       -858.0271969917691877

  UHF NO Occupations:
  HONO-2 :    9 A1 1.9990144
  HONO-1 :    4 B1 1.0000000
  HONO-0 :    4 B2 1.0000000
  LUNO+0 :   10 A1 0.0009856
  LUNO+1 :    5 B2 0.0005002
  LUNO+2 :    5 B1 0.0005002
  LUNO+3 :   11 A1 0.0001782


Computation Completed


Properties will be evaluated at   0.000000,   0.000000,   0.000000 [a0]

Properties computed using the SCF density matrix


 Multipole Moments:

 ------------------------------------------------------------------------------------
     Multipole            Electronic (a.u.)      Nuclear  (a.u.)        Total (a.u.)
 ------------------------------------------------------------------------------------

 L = 1.  Multiply by 2.5417464519 to convert [e a0] to [Debye]
 Dipole X            :          0.0000000            0.0000000            0.0000000
 Dipole Y            :          0.0000000            0.0000000            0.0000000
 Dipole Z            :         -0.3353222            0.8679846            0.5326623
 Magnitude           :                                                    0.5326623

 ------------------------------------------------------------------------------------

*** tstop() called on Joses-MacBook-Pro-2.local at Thu Jul 17 15:54:00 2025
Module time:
	user time   =       7.65 seconds =       0.13 minutes
	system time =       1.24 seconds =       0.02 minutes
	total time  =          0 seconds =       0.00 minutes
Total time:
	user time   =     177.30 seconds =       2.95 minutes
	system time =      43.21 seconds =       0.72 minutes
	total time  =         20 seconds =       0.33 minutes

*** tstart() called on Joses-MacBook-Pro-2.local
*** at Thu Jul 17 15:54:00 2025


         ------------------------------------------------------------
                                   SCF GRAD                          
                          Rob Parrish, Justin Turney,                
                       Andy Simmonett, and Alex Sokolov              
         ------------------------------------------------------------

  ==> Geometry <==

    Molecular point group: c2v
    Full point group: C_inf_v

    Geometry (in Angstrom), charge = 1, multiplicity = 3:

       Center              X                  Y                   Z               Mass       
    ------------   -----------------  -----------------  -----------------  -----------------
         S            0.000000000000     0.000000000000     1.005344030407    31.972071174400
         CL           0.000000000000     0.000000000000    -0.919187460544    34.968852682000

  Nuclear repulsion =   74.790255175872034

  ==> Basis Set <==

  Basis Set: CC-PVDZ
    Blend: CC-PVDZ
    Number of shells: 16
    Number of basis functions: 36
    Number of Cartesian functions: 38
    Spherical Harmonics?: true
    Max angular momentum: 2

  ==> DFJKGrad: Density-Fitted SCF Gradients <==

    Gradient:                    1
    J tasked:                  Yes
    K tasked:                  Yes
    wK tasked:                  No
    OpenMP threads:              1
    Integrals threads:           1
    Memory [MiB]:              375
    Schwarz Cutoff:          1E-12
    Fitting Condition:       1E-10

   => Auxiliary Basis Set <=

  Basis Set: (CC-PVDZ AUX)
    Blend: CC-PVDZ-JKFIT
    Number of shells: 72
    Number of basis functions: 224
    Number of Cartesian functions: 260
    Spherical Harmonics?: true
    Max angular momentum: 3

  ==> DFT Potential <==

   => LibXC <=

    Version 6.2.2
    S. Lehtola, C. Steigemann, M. J.T. Oliveira, and M. A.L. Marques.,  SoftwareX 7, 1–5 (2018) (10.1016/j.softx.2017.11.002)

   => Composite Functional: B3LYP <= 

    B3LYP Hyb-GGA Exchange-Correlation Functional

    P. J. Stephens, F. J. Devlin, C. F. Chabalowski, and M. J. Frisch.,  J. Phys. Chem. 98, 11623 (1994) (10.1021/j100096a001)

    Deriv               =              1
    GGA                 =           TRUE
    Meta                =          FALSE

    Exchange Hybrid     =           TRUE
    MP2 Hybrid          =          FALSE

   => Exchange Functionals <=

    0.0800   Slater exchange
    0.7200         Becke 88

   => Exact (HF) Exchange <=

    0.2000               HF 

   => Correlation Functionals <=

    0.1900   Vosko, Wilk & Nusair (VWN5_RPA)
    0.8100   Lee, Yang & Parr

   => LibXC Density Thresholds  <==

    XC_HYB_GGA_XC_B3LYP:  1.00E-15 

   => Molecular Quadrature <=

    Radial Scheme          =       TREUTLER
    Pruning Scheme         =           NONE
    Nuclear Scheme         =       TREUTLER

    Blocking Scheme        =         OCTREE
    BS radius alpha        =              1
    Pruning alpha          =              1
    Radial Points          =             75
    Spherical Points       =            302
    Total Points           =          40206
    Total Blocks           =            360
    Max Points             =            256
    Max Functions          =             36
    Weights Tolerance      =       1.00E-15


  -Total Gradient:
     Atom            X                  Y                   Z
    ------   -----------------  -----------------  -----------------
       1       -0.000000000000     0.000000000000    -0.000061113132
       2        0.000000000000    -0.000000000000     0.000072929862


*** tstop() called on Joses-MacBook-Pro-2.local at Thu Jul 17 15:54:01 2025
Module time:
	user time   =       2.22 seconds =       0.04 minutes
	system time =       1.23 seconds =       0.02 minutes
	total time  =          1 seconds =       0.02 minutes
Total time:
	user time   =     179.53 seconds =       2.99 minutes
	system time =      44.44 seconds =       0.74 minutes
	total time  =         21 seconds =       0.35 minutes

    			-----------------------------------------

    			 OPTKING 3.0: for geometry optimizations 

    			     By R.A. King, Bethel University     

    			        with contributions from          

    			    A.V. Copan, J. Cayton, A. Heide      

    			-----------------------------------------

    
	                            ===> Fragment 1 <== 

	 Z (Atomic Numbers)          Masses                          Geom                  
	      16.000000            31.972071          0.00000000  0.00000000  1.89982488   
	      17.000000            34.968853          0.00000000  0.00000000 -1.73701256   

	 - Coordinate -           - BOHR/RAD -       - ANG/DEG -
	 R(1,2)           =         3.636837           1.924531


	        --- Internal Coordinate Step in ANG or DEG, aJ/ANG or AJ/DEG ---
	-------------------------------------------------------------------------------
	           Coordinate      Previous         Force          Change          New 
	           ----------      --------        ------          ------        ------
	               R(1,2)       1.92453        0.00055        0.00012       1.92465
	-------------------------------------------------------------------------------

	                                 ==> Convergence Check <==                                  
    
	Measures of convergence in internal coordinates in au.
    
	Criteria marked as inactive (o), active & met (*), and active & unmet ( ).

	----------------------------------------------------------------------------------------------
	   Step    Total Energy     Delta E     Max Force     RMS Force      Max Disp      RMS Disp   
	----------------------------------------------------------------------------------------------
	  Convergence Criteria     1.00e-06 *    3.00e-04 *             o    1.20e-03 *             o
	----------------------------------------------------------------------------------------------
	    15    -858.02719699   -5.43e-07 *    6.70e-05 *    6.70e-05 o    2.27e-04 *    2.27e-04 o  ~
	----------------------------------------------------------------------------------------------

Next Geometry in Ang 
	Fragment 1 (Ang)

	    S   0.0000000000   0.0000000000   1.0054040558
	   Cl   0.0000000000   0.0000000000  -0.9192474859


    Final optimized geometry and variables:
    Molecular point group: c2v
    Full point group: C_inf_v

    Geometry (in Angstrom), charge = 1, multiplicity = 3:

    S            0.000000000000     0.000000000000     1.005344030407
    CL           0.000000000000     0.000000000000    -0.919187460544


    Psi4 stopped on: Thursday, 17 July 2025 03:54PM
    Psi4 wall time for execution: 0:00:21.78

*** Psi4 exiting successfully. Buy a developer a beer!
