
    -----------------------------------------------------------------------
          Psi4: An Open-Source Ab Initio Electronic Structure Package
                               Psi4 1.9.1 release

                         Git: Rev {} zzzzzzz 


    D. G. A. Smith, L. A. Burns, A. C. Simmonett, R. M. Parrish,
    M. C. Schieber, R. Galvelis, P. Kraus, H. Kruse, R. Di Remigio,
    A. Alenaizan, A. M. James, S. Lehtola, J. P. Misiewicz, M. Scheurer,
    R. A. Shaw, J. B. Schriber, Y. Xie, Z. L. Glick, D. A. Sirianni,
    J. S. O'Brien, J. M. Waldrop, A. Kumar, E. G. Hohenstein,
    B. P. Pritchard, B. R. Brooks, H. F. Schaefer III, A. Yu. Sokolov,
    K. Patkowski, A. E. DePrince III, U. Bozkaya, R. A. King,
    F. A. Evangelista, J. M. Turney, T. D. Crawford, C. D. Sherrill,
    J. Chem. Phys. 152(18) 184108 (2020). https://doi.org/10.1063/5.0006002

                            Additional Code Authors
    E. T. Seidl, C. L. Janssen, E. F. Valeev, M. L. Leininger,
    J. F. Gonthier, R. M. Richard, H. R. McAlexander, M. Saitow, X. Wang,
    P. Verma, M. H. Lechner, A. Jiang, S. Behnle, A. G. Heide,
    M. F. Herbst, and D. L. Poole

             Previous Authors, Complete List of Code Contributors,
                       and Citations for Specific Modules
    https://github.com/psi4/psi4/blob/master/codemeta.json
    https://github.com/psi4/psi4/graphs/contributors
    http://psicode.org/psi4manual/master/introduction.html#citing-psifour

    -----------------------------------------------------------------------


    Psi4 started on: Thursday, 17 July 2025 03:42PM

    Process ID: 75577
    Host:       Joses-MacBook-Pro-2.local
    PSIDATADIR: /Users/joseantoniorodriguesromero/anaconda3/share/psi4
    Memory:     500.0 MiB
    Threads:    1
    
  ==> Input File <==

--------------------------------------------------------------------------
molecule { 
1 3
Si   0.00000        0.60000        0.00000
Cl   0.00000       -0.60000        0.00000
}

set { 
basis              cc-pvdz
reference          uks
maxiter            500
geom_maxiter       500
DAMPING_PERCENTAGE 1
guess              SAP
}

optimize('b3lyp')
--------------------------------------------------------------------------

Scratch directory: /tmp/
gradient() will perform analytic gradient computation.
   => Libint2 <=

    Primary   basis highest AM E, G, H:  6, 6, 3
    Auxiliary basis highest AM E, G, H:  7, 7, 4
    Onebody   basis highest AM E, G, H:  -, -, -
    Solid Harmonics ordering:            Gaussian

*** tstart() called on Joses-MacBook-Pro-2.local
*** at Thu Jul 17 15:42:18 2025

   => Loading Basis Set <=

    Name: CC-PVDZ
    Role: ORBITAL
    Keyword: BASIS
    atoms 1 entry SI         line   478 file /Users/joseantoniorodriguesromero/anaconda3/share/psi4/basis/cc-pvdz.gbs 
    atoms 2 entry CL         line   658 file /Users/joseantoniorodriguesromero/anaconda3/share/psi4/basis/cc-pvdz.gbs 


         ---------------------------------------------------------
                                   SCF
               by Justin Turney, Rob Parrish, Andy Simmonett
                          and Daniel G. A. Smith
                              UKS Reference
                        1 Threads,    500 MiB Core
         ---------------------------------------------------------

  ==> Geometry <==

    Molecular point group: c2v
    Full point group: C_inf_v

    Geometry (in Angstrom), charge = 1, multiplicity = 3:

       Center              X                  Y                   Z               Mass       
    ------------   -----------------  -----------------  -----------------  -----------------
         SI           0.000000000000     0.000000000000     0.666647132510    27.976926534650
         CL           0.000000000000     0.000000000000    -0.533352867490    34.968852682000

  Running in c2v symmetry.

  Rotational constants: A = ************  B =      0.75322  C =      0.75322 [cm^-1]
  Rotational constants: A = ************  B =  22580.83178  C =  22580.83178 [MHz]
  Nuclear repulsion =  104.953480116216681

  Charge       = 1
  Multiplicity = 3
  Electrons    = 30
  Nalpha       = 16
  Nbeta        = 14

  ==> Algorithm <==

  SCF Algorithm Type is DF.
  DIIS enabled.
  MOM disabled.
  Fractional occupation disabled.
  Guess Type is SAP.
  Energy threshold   = 1.00e-08
  Density threshold  = 1.00e-08
  Integral threshold = 1.00e-12

  ==> Primary Basis <==

  Basis Set: CC-PVDZ
    Blend: CC-PVDZ
    Number of shells: 16
    Number of basis functions: 36
    Number of Cartesian functions: 38
    Spherical Harmonics?: true
    Max angular momentum: 2

  ==> DFT Potential <==

   => LibXC <=

    Version 6.2.2
    S. Lehtola, C. Steigemann, M. J.T. Oliveira, and M. A.L. Marques.,  SoftwareX 7, 1–5 (2018) (10.1016/j.softx.2017.11.002)

   => Composite Functional: B3LYP <= 

    B3LYP Hyb-GGA Exchange-Correlation Functional

    P. J. Stephens, F. J. Devlin, C. F. Chabalowski, and M. J. Frisch.,  J. Phys. Chem. 98, 11623 (1994) (10.1021/j100096a001)

    Deriv               =              1
    GGA                 =           TRUE
    Meta                =          FALSE

    Exchange Hybrid     =           TRUE
    MP2 Hybrid          =          FALSE

   => Exchange Functionals <=

    0.0800   Slater exchange
    0.7200         Becke 88

   => Exact (HF) Exchange <=

    0.2000               HF 

   => Correlation Functionals <=

    0.1900   Vosko, Wilk & Nusair (VWN5_RPA)
    0.8100   Lee, Yang & Parr

   => LibXC Density Thresholds  <==

    XC_HYB_GGA_XC_B3LYP:  1.00E-15 

   => Molecular Quadrature <=

    Radial Scheme          =       TREUTLER
    Pruning Scheme         =           NONE
    Nuclear Scheme         =       TREUTLER

    Blocking Scheme        =         OCTREE
    BS radius alpha        =              1
    Pruning alpha          =              1
    Radial Points          =             75
    Spherical Points       =            302
    Total Points           =          41465
    Total Blocks           =            389
    Max Points             =            249
    Max Functions          =             36
    Weights Tolerance      =       1.00E-15

   => Loading Basis Set <=

    Name: (CC-PVDZ AUX)
    Role: JKFIT
    Keyword: DF_BASIS_SCF
    atoms 1 entry SI         line   445 file /Users/joseantoniorodriguesromero/anaconda3/share/psi4/basis/cc-pvdz-jkfit.gbs 
    atoms 2 entry CL         line   667 file /Users/joseantoniorodriguesromero/anaconda3/share/psi4/basis/cc-pvdz-jkfit.gbs 

  ==> Integral Setup <==

  DFHelper Memory: AOs need 0.003 GiB; user supplied 0.324 GiB. 
  Using in-core AOs.

  ==> MemDFJK: Density-Fitted J/K Matrices <==

    J tasked:                   Yes
    K tasked:                   Yes
    wK tasked:                   No
    OpenMP threads:               1
    Memory [MiB]:               331
    Algorithm:                 Core
    Schwarz Cutoff:           1E-12
    Mask sparsity (%):       0.0000
    Fitting Condition:        1E-10

   => Auxiliary Basis Set <=

  Basis Set: (CC-PVDZ AUX)
    Blend: CC-PVDZ-JKFIT
    Number of shells: 72
    Number of basis functions: 224
    Number of Cartesian functions: 260
    Spherical Harmonics?: true
    Max angular momentum: 3

  Cached 100.0% of DFT collocation blocks in 0.042 [GiB].

  Minimum eigenvalue in the overlap matrix is 6.9950548482E-03.
  Reciprocal condition number of the overlap matrix is 2.2289168040E-03.
    Using symmetric orthogonalization.

  ==> Pre-Iterations <==

  SCF Guess: Superposition of Atomic Potentials (doi:10.1021/acs.jctc.8b01089).

  ==> SAP guess <==

   => Molecular Quadrature <=

    Radial Scheme          =       TREUTLER
    Pruning Scheme         =           NONE
    Nuclear Scheme         =       TREUTLER

    Blocking Scheme        =         OCTREE
    BS radius alpha        =              1
    Pruning alpha          =              1
    Radial Points          =             75
    Spherical Points       =            302
    Total Points           =          41465
    Total Blocks           =            389
    Max Points             =            249
    Max Functions          =             36
    Weights Tolerance      =       1.00E-15

   -------------------------------------------------------
    Irrep   Nso     Nmo     Nalpha   Nbeta   Ndocc  Nsocc
   -------------------------------------------------------
     A1        18      18       9       8       8       1
     A2         2       2       0       0       0       0
     B1         8       8       3       3       3       0
     B2         8       8       4       3       3       1
   -------------------------------------------------------
    Total      36      36      16      14      14       2
   -------------------------------------------------------

  ==> Iterations <==

                           Total Energy        Delta E     RMS |[F,P]|

   @DF-UKS iter   1:  -747.93416387154366   -7.47934e+02   2.48597e-02 ADIIS/DIIS
   @DF-UKS iter   2:  -748.00832768935720   -7.41638e-02   1.99132e-02 ADIIS/DIIS/DAMP=1%
   @DF-UKS iter   3:  -748.07243386373909   -6.41062e-02   2.24374e-03 ADIIS/DIIS/DAMP=1%
   @DF-UKS iter   4:  -748.10769275343341   -3.52589e-02   9.32424e-04 ADIIS/DIIS/DAMP=1%
   @DF-UKS iter   5:  -748.10544796349768    2.24479e-03   1.04535e-04 ADIIS/DIIS/DAMP=1%
   @DF-UKS iter   6:  -748.10571462696601   -2.66663e-04   1.23023e-05 DIIS/DAMP=1%
   @DF-UKS iter   7:  -748.10576790334983   -5.32764e-05   2.02435e-06 DIIS/DAMP=1%
   @DF-UKS iter   8:  -748.10576123394958    6.66940e-06   1.49069e-07 DIIS/DAMP=1%
   @DF-UKS iter   9:  -748.10575979932844    1.43462e-06   1.39687e-08 DIIS/DAMP=1%
   @DF-UKS iter  10:  -748.10575991172504   -1.12397e-07   2.10695e-09 DIIS/DAMP=1%
   @DF-UKS iter  11:  -748.10575990800214    3.72290e-09   3.29820e-10 DIIS/DAMP=1%
  Energy and wave function converged.


  ==> Post-Iterations <==

   Electrons on quadrature grid:
      Nalpha   =   15.9999982442 ; deviation = -1.756e-06
      Nbeta    =   13.9999982521 ; deviation = -1.748e-06
      Ntotal   =   29.9999964963 ; deviation = -3.504e-06 

   @Spin Contamination Metric:   1.486224011E-03
   @S^2 Expected:                2.000000000E+00
   @S^2 Observed:                2.001486224E+00
   @S   Expected:                1.000000000E+00
   @S   Observed:                1.000000000E+00

    Orbital Energies [Eh]
    ---------------------

    Alpha Occupied:                                                       

       1A1  -101.872948     2A1   -66.470105     3A1    -9.870226  
       4A1    -7.638750     1B1    -7.607657     1B2    -7.605563  
       5A1    -5.725304     6A1    -4.114617     2B1    -4.053853  
       2B2    -4.049754     7A1    -1.309976     3B1    -0.821782  
       3B2    -0.818780     8A1    -0.802446     9A1    -0.596223  
       4B2    -0.382115  

    Alpha Virtual:                                                        

       4B1    -0.316935    10A1    -0.173908     5B1    -0.056945  
       5B2    -0.055846     1A2    -0.036449    11A1    -0.033834  
      12A1     0.012495    13A1     0.084733     6B2     0.122876  
       6B1     0.130958    14A1     0.140243     7B1     0.333172  
       7B2     0.334183     2A2     0.453589    15A1     0.455039  
      16A1     0.519870     8B1     0.825560     8B2     0.826439  
      17A1     0.925216    18A1     1.361754  

    Beta Occupied:                                                        

       1A1  -101.869775     2A1   -66.462099     3A1    -9.866933  
       4A1    -7.632990     1B1    -7.605955     1B2    -7.599989  
       5A1    -5.716321     6A1    -4.097576     2B1    -4.048012  
       2B2    -4.035271     7A1    -1.293426     3B1    -0.815713  
       3B2    -0.796442     8A1    -0.769556  

    Beta Virtual:                                                         

       9A1    -0.440532     4B1    -0.276587     4B2    -0.248564  
      10A1    -0.152551     5B1    -0.049468     5B2    -0.034095  
       1A2     0.003898    11A1     0.004064    12A1     0.049295  
      13A1     0.097100     6B1     0.172708    14A1     0.193246  
       6B2     0.196498     7B1     0.340773     7B2     0.357650  
       2A2     0.483367    15A1     0.483568    16A1     0.530171  
       8B1     0.847252     8B2     0.868147    17A1     0.943818  
      18A1     1.384850  

    Final Occupation by Irrep:
             A1    A2    B1    B2 
    DOCC [     8,    0,    3,    3 ]
    SOCC [     1,    0,    0,    1 ]
    NA   [     9,    0,    3,    4 ]
    NB   [     8,    0,    3,    3 ]

  @DF-UKS Final Energy:  -748.10575990800214

   => Energetics <=

    Nuclear Repulsion Energy =            104.9534801162166815
    One-Electron Energy =               -1231.4251831530038999
    Two-Electron Energy =                 418.2334098230103905
    DFT Exchange-Correlation Energy =     -39.8674666942252998
    Empirical Dispersion Energy =           0.0000000000000000
    VV10 Nonlocal Energy =                  0.0000000000000000
    Total Energy =                       -748.1057599080021419

  UHF NO Occupations:
  HONO-2 :    3 B2 1.9996808
  HONO-1 :    9 A1 1.0000000
  HONO-0 :    4 B2 1.0000000
  LUNO+0 :    5 B2 0.0003192
  LUNO+1 :    4 B1 0.0002011
  LUNO+2 :   10 A1 0.0001956
  LUNO+3 :   11 A1 0.0000269


Computation Completed


Properties will be evaluated at   0.000000,   0.000000,   0.000000 [a0]

Properties computed using the SCF density matrix


 Multipole Moments:

 ------------------------------------------------------------------------------------
     Multipole            Electronic (a.u.)      Nuclear  (a.u.)        Total (a.u.)
 ------------------------------------------------------------------------------------

 L = 1.  Multiply by 2.5417464519 to convert [e a0] to [Debye]
 Dipole X            :          0.0000000            0.0000000            0.0000000
 Dipole Y            :          0.0000000            0.0000000            0.0000000
 Dipole Z            :         -0.3419232            0.5027826            0.1608595
 Magnitude           :                                                    0.1608595

 ------------------------------------------------------------------------------------

*** tstop() called on Joses-MacBook-Pro-2.local at Thu Jul 17 15:42:20 2025
Module time:
	user time   =      17.13 seconds =       0.29 minutes
	system time =       1.63 seconds =       0.03 minutes
	total time  =          2 seconds =       0.03 minutes
Total time:
	user time   =      17.13 seconds =       0.29 minutes
	system time =       1.63 seconds =       0.03 minutes
	total time  =          2 seconds =       0.03 minutes

*** tstart() called on Joses-MacBook-Pro-2.local
*** at Thu Jul 17 15:42:20 2025


         ------------------------------------------------------------
                                   SCF GRAD                          
                          Rob Parrish, Justin Turney,                
                       Andy Simmonett, and Alex Sokolov              
         ------------------------------------------------------------

  ==> Geometry <==

    Molecular point group: c2v
    Full point group: C_inf_v

    Geometry (in Angstrom), charge = 1, multiplicity = 3:

       Center              X                  Y                   Z               Mass       
    ------------   -----------------  -----------------  -----------------  -----------------
         SI           0.000000000000     0.000000000000     0.666647132510    27.976926534650
         CL           0.000000000000     0.000000000000    -0.533352867490    34.968852682000

  Nuclear repulsion =  104.953480116216681

  ==> Basis Set <==

  Basis Set: CC-PVDZ
    Blend: CC-PVDZ
    Number of shells: 16
    Number of basis functions: 36
    Number of Cartesian functions: 38
    Spherical Harmonics?: true
    Max angular momentum: 2

  ==> DFJKGrad: Density-Fitted SCF Gradients <==

    Gradient:                    1
    J tasked:                  Yes
    K tasked:                  Yes
    wK tasked:                  No
    OpenMP threads:              1
    Integrals threads:           1
    Memory [MiB]:              375
    Schwarz Cutoff:          1E-12
    Fitting Condition:       1E-10

   => Auxiliary Basis Set <=

  Basis Set: (CC-PVDZ AUX)
    Blend: CC-PVDZ-JKFIT
    Number of shells: 72
    Number of basis functions: 224
    Number of Cartesian functions: 260
    Spherical Harmonics?: true
    Max angular momentum: 3

  ==> DFT Potential <==

   => LibXC <=

    Version 6.2.2
    S. Lehtola, C. Steigemann, M. J.T. Oliveira, and M. A.L. Marques.,  SoftwareX 7, 1–5 (2018) (10.1016/j.softx.2017.11.002)

   => Composite Functional: B3LYP <= 

    B3LYP Hyb-GGA Exchange-Correlation Functional

    P. J. Stephens, F. J. Devlin, C. F. Chabalowski, and M. J. Frisch.,  J. Phys. Chem. 98, 11623 (1994) (10.1021/j100096a001)

    Deriv               =              1
    GGA                 =           TRUE
    Meta                =          FALSE

    Exchange Hybrid     =           TRUE
    MP2 Hybrid          =          FALSE

   => Exchange Functionals <=

    0.0800   Slater exchange
    0.7200         Becke 88

   => Exact (HF) Exchange <=

    0.2000               HF 

   => Correlation Functionals <=

    0.1900   Vosko, Wilk & Nusair (VWN5_RPA)
    0.8100   Lee, Yang & Parr

   => LibXC Density Thresholds  <==

    XC_HYB_GGA_XC_B3LYP:  1.00E-15 

   => Molecular Quadrature <=

    Radial Scheme          =       TREUTLER
    Pruning Scheme         =           NONE
    Nuclear Scheme         =       TREUTLER

    Blocking Scheme        =         OCTREE
    BS radius alpha        =              1
    Pruning alpha          =              1
    Radial Points          =             75
    Spherical Points       =            302
    Total Points           =          41465
    Total Blocks           =            389
    Max Points             =            249
    Max Functions          =             36
    Weights Tolerance      =       1.00E-15


  -Total Gradient:
     Atom            X                  Y                   Z
    ------   -----------------  -----------------  -----------------
       1        0.000000000000     0.000000000000    -2.858965708287
       2        0.000000000000     0.000000000000     2.858958605941


*** tstop() called on Joses-MacBook-Pro-2.local at Thu Jul 17 15:42:20 2025
Module time:
	user time   =       2.92 seconds =       0.05 minutes
	system time =       1.15 seconds =       0.02 minutes
	total time  =          0 seconds =       0.00 minutes
Total time:
	user time   =      20.05 seconds =       0.33 minutes
	system time =       2.78 seconds =       0.05 minutes
	total time  =          2 seconds =       0.03 minutes

    			-----------------------------------------

    			 OPTKING 3.0: for geometry optimizations 

    			     By R.A. King, Bethel University     

    			        with contributions from          

    			    A.V. Copan, J. Cayton, A. Heide      

    			-----------------------------------------

    
	                            ===> Fragment 1 <== 

	 Z (Atomic Numbers)          Masses                          Geom                  
	      14.000000            27.976927          0.00000000  0.00000000  1.25978050   
	      17.000000            34.968853          0.00000000  0.00000000 -1.00789085   

	 - Coordinate -           - BOHR/RAD -       - ANG/DEG -
	 R(1,2)           =         2.267671           1.200000


	        --- Internal Coordinate Step in ANG or DEG, aJ/ANG or AJ/DEG ---
	-------------------------------------------------------------------------------
	           Coordinate      Previous         Force          Change          New 
	           ----------      --------        ------          ------        ------
	               R(1,2)       1.20000       23.55420        0.00694       1.20694
	-------------------------------------------------------------------------------

	                                 ==> Convergence Check <==                                  
    
	Measures of convergence in internal coordinates in au.
    
	Criteria marked as inactive (o), active & met (*), and active & unmet ( ).

	----------------------------------------------------------------------------------------------
	   Step    Total Energy     Delta E     Max Force     RMS Force      Max Disp      RMS Disp   
	----------------------------------------------------------------------------------------------
	  Convergence Criteria     1.00e-06 *    3.00e-04 *             o    1.20e-03 *             o
	----------------------------------------------------------------------------------------------
	     1    -748.10575991   -7.48e+02      2.86e+00      2.86e+00 o    1.31e-02      1.31e-02 o  ~
	----------------------------------------------------------------------------------------------

Next Geometry in Ang 
	Fragment 1 (Ang)

	   Si   0.0000000000   0.0000000000   0.6701193180
	   Cl   0.0000000000   0.0000000000  -0.5368250530


    Structure for next step:
    Molecular point group: c2v
    Full point group: C_inf_v

    Geometry (in Angstrom), charge = 1, multiplicity = 3:

    SI           0.000000000000     0.000000000000     0.670505003363
    CL           0.000000000000     0.000000000000    -0.536439367651


Scratch directory: /tmp/
gradient() will perform analytic gradient computation.
   => Libint2 <=

    Primary   basis highest AM E, G, H:  6, 6, 3
    Auxiliary basis highest AM E, G, H:  7, 7, 4
    Onebody   basis highest AM E, G, H:  -, -, -
    Solid Harmonics ordering:            Gaussian

*** tstart() called on Joses-MacBook-Pro-2.local
*** at Thu Jul 17 15:42:20 2025

   => Loading Basis Set <=

    Name: CC-PVDZ
    Role: ORBITAL
    Keyword: BASIS
    atoms 1 entry SI         line   478 file /Users/joseantoniorodriguesromero/anaconda3/share/psi4/basis/cc-pvdz.gbs 
    atoms 2 entry CL         line   658 file /Users/joseantoniorodriguesromero/anaconda3/share/psi4/basis/cc-pvdz.gbs 


         ---------------------------------------------------------
                                   SCF
               by Justin Turney, Rob Parrish, Andy Simmonett
                          and Daniel G. A. Smith
                              UKS Reference
                        1 Threads,    500 MiB Core
         ---------------------------------------------------------

  ==> Geometry <==

    Molecular point group: c2v
    Full point group: C_inf_v

    Geometry (in Angstrom), charge = 1, multiplicity = 3:

       Center              X                  Y                   Z               Mass       
    ------------   -----------------  -----------------  -----------------  -----------------
         SI           0.000000000000     0.000000000000     0.670505003363    27.976926534650
         CL           0.000000000000     0.000000000000    -0.536439367651    34.968852682000

  Running in c2v symmetry.

  Rotational constants: A = ************  B =      0.74457  C =      0.74457 [cm^-1]
  Rotational constants: A = ************  B =  22321.73358  C =  22321.73358 [MHz]
  Nuclear repulsion =  104.349611435459394

  Charge       = 1
  Multiplicity = 3
  Electrons    = 30
  Nalpha       = 16
  Nbeta        = 14

  ==> Algorithm <==

  SCF Algorithm Type is DF.
  DIIS enabled.
  MOM disabled.
  Fractional occupation disabled.
  Guess Type is READ.
  Energy threshold   = 1.00e-08
  Density threshold  = 1.00e-08
  Integral threshold = 1.00e-12

  ==> Primary Basis <==

  Basis Set: CC-PVDZ
    Blend: CC-PVDZ
    Number of shells: 16
    Number of basis functions: 36
    Number of Cartesian functions: 38
    Spherical Harmonics?: true
    Max angular momentum: 2

  ==> DFT Potential <==

   => LibXC <=

    Version 6.2.2
    S. Lehtola, C. Steigemann, M. J.T. Oliveira, and M. A.L. Marques.,  SoftwareX 7, 1–5 (2018) (10.1016/j.softx.2017.11.002)

   => Composite Functional: B3LYP <= 

    B3LYP Hyb-GGA Exchange-Correlation Functional

    P. J. Stephens, F. J. Devlin, C. F. Chabalowski, and M. J. Frisch.,  J. Phys. Chem. 98, 11623 (1994) (10.1021/j100096a001)

    Deriv               =              1
    GGA                 =           TRUE
    Meta                =          FALSE

    Exchange Hybrid     =           TRUE
    MP2 Hybrid          =          FALSE

   => Exchange Functionals <=

    0.0800   Slater exchange
    0.7200         Becke 88

   => Exact (HF) Exchange <=

    0.2000               HF 

   => Correlation Functionals <=

    0.1900   Vosko, Wilk & Nusair (VWN5_RPA)
    0.8100   Lee, Yang & Parr

   => LibXC Density Thresholds  <==

    XC_HYB_GGA_XC_B3LYP:  1.00E-15 

   => Molecular Quadrature <=

    Radial Scheme          =       TREUTLER
    Pruning Scheme         =           NONE
    Nuclear Scheme         =       TREUTLER

    Blocking Scheme        =         OCTREE
    BS radius alpha        =              1
    Pruning alpha          =              1
    Radial Points          =             75
    Spherical Points       =            302
    Total Points           =          41466
    Total Blocks           =            389
    Max Points             =            250
    Max Functions          =             36
    Weights Tolerance      =       1.00E-15

   => Loading Basis Set <=

    Name: (CC-PVDZ AUX)
    Role: JKFIT
    Keyword: DF_BASIS_SCF
    atoms 1 entry SI         line   445 file /Users/joseantoniorodriguesromero/anaconda3/share/psi4/basis/cc-pvdz-jkfit.gbs 
    atoms 2 entry CL         line   667 file /Users/joseantoniorodriguesromero/anaconda3/share/psi4/basis/cc-pvdz-jkfit.gbs 

   => Loading Basis Set <=

    Name: CC-PVDZ
    Role: ORBITAL
    Keyword: BASIS
    atoms 1 entry SI         line   478 file /Users/joseantoniorodriguesromero/anaconda3/share/psi4/basis/cc-pvdz.gbs 
    atoms 2 entry CL         line   658 file /Users/joseantoniorodriguesromero/anaconda3/share/psi4/basis/cc-pvdz.gbs 

  Reading orbitals from file /tmp/triplet_SiCl.default.75577.180.npy, no projection.

  ==> Integral Setup <==

  DFHelper Memory: AOs need 0.003 GiB; user supplied 0.324 GiB. 
  Using in-core AOs.

  ==> MemDFJK: Density-Fitted J/K Matrices <==

    J tasked:                   Yes
    K tasked:                   Yes
    wK tasked:                   No
    OpenMP threads:               1
    Memory [MiB]:               331
    Algorithm:                 Core
    Schwarz Cutoff:           1E-12
    Mask sparsity (%):       0.0000
    Fitting Condition:        1E-10

   => Auxiliary Basis Set <=

  Basis Set: (CC-PVDZ AUX)
    Blend: CC-PVDZ-JKFIT
    Number of shells: 72
    Number of basis functions: 224
    Number of Cartesian functions: 260
    Spherical Harmonics?: true
    Max angular momentum: 3

  Cached 100.0% of DFT collocation blocks in 0.042 [GiB].

  Minimum eigenvalue in the overlap matrix is 7.1141729552E-03.
  Reciprocal condition number of the overlap matrix is 2.2672408227E-03.
    Using symmetric orthogonalization.

  ==> Pre-Iterations <==

  SCF Guess: Orbitals guess was supplied from a previous computation.

   -------------------------------------------------------
    Irrep   Nso     Nmo     Nalpha   Nbeta   Ndocc  Nsocc
   -------------------------------------------------------
     A1        18      18       9       8       8       1
     A2         2       2       0       0       0       0
     B1         8       8       3       3       3       0
     B2         8       8       4       3       3       1
   -------------------------------------------------------
    Total      36      36      16      14      14       2
   -------------------------------------------------------

  ==> Iterations <==

                           Total Energy        Delta E     RMS |[F,P]|

   @DF-UKS iter   0:  -748.14479348631824   -7.48145e+02   3.39127e-03 
   @DF-UKS iter   1:  -748.14274298913404    2.05050e-03   3.28937e-04 ADIIS/DIIS
   @DF-UKS iter   2:  -748.14275623519416   -1.32461e-05   2.40838e-04 ADIIS/DIIS/DAMP=1%
   @DF-UKS iter   3:  -748.14313334932558   -3.77114e-04   1.75964e-05 DIIS/DAMP=1%
   @DF-UKS iter   4:  -748.14276732889584    3.66020e-04   6.32233e-06 DIIS/DAMP=1%
   @DF-UKS iter   5:  -748.14277172835807   -4.39946e-06   7.75869e-07 DIIS/DAMP=1%
   @DF-UKS iter   6:  -748.14277060580935    1.12255e-06   8.88031e-08 DIIS/DAMP=1%
   @DF-UKS iter   7:  -748.14276971479126    8.91018e-07   1.40883e-08 DIIS/DAMP=1%
   @DF-UKS iter   8:  -748.14276984980052   -1.35009e-07   1.46443e-09 DIIS/DAMP=1%
   @DF-UKS iter   9:  -748.14276983516618    1.46343e-08   2.14366e-10 DIIS/DAMP=1%
   @DF-UKS iter  10:  -748.14276983482000    3.46176e-10   2.56376e-11 DIIS/DAMP=1%
  Energy and wave function converged.


  ==> Post-Iterations <==

   Electrons on quadrature grid:
      Nalpha   =   15.9999982729 ; deviation = -1.727e-06
      Nbeta    =   13.9999982769 ; deviation = -1.723e-06
      Ntotal   =   29.9999965498 ; deviation = -3.450e-06 

   @Spin Contamination Metric:   1.497973572E-03
   @S^2 Expected:                2.000000000E+00
   @S^2 Observed:                2.001497974E+00
   @S   Expected:                1.000000000E+00
   @S   Observed:                1.000000000E+00

    Orbital Energies [Eh]
    ---------------------

    Alpha Occupied:                                                       

       1A1  -101.870548     2A1   -66.468380     3A1    -9.866412  
       4A1    -7.634547     1B1    -7.604429     1B2    -7.602336  
       5A1    -5.721005     6A1    -4.109713     2B1    -4.050685  
       2B2    -4.046592     7A1    -1.309360     3B1    -0.818860  
       3B2    -0.815936     8A1    -0.803088     9A1    -0.597236  
       4B2    -0.382711  

    Alpha Virtual:                                                        

       4B1    -0.317561    10A1    -0.174125     5B1    -0.056004  
       5B2    -0.054933     1A2    -0.034727    11A1    -0.032098  
      12A1     0.012293    13A1     0.084117     6B2     0.122554  
       6B1     0.130591    14A1     0.138726     7B1     0.332655  
       7B2     0.333693     2A2     0.453201    15A1     0.454634  
      16A1     0.518938     8B1     0.824314     8B2     0.825167  
      17A1     0.920374    18A1     1.356439  

    Beta Occupied:                                                        

       1A1  -101.867407     2A1   -66.460366     3A1    -9.863157  
       4A1    -7.628851     1B1    -7.602752     1B2    -7.596788  
       5A1    -5.711969     6A1    -4.092810     2B1    -4.044815  
       2B2    -4.032042     7A1    -1.292914     3B1    -0.812820  
       3B2    -0.793577     8A1    -0.770460  

    Beta Virtual:                                                         

       9A1    -0.441333     4B1    -0.277131     4B2    -0.249102  
      10A1    -0.152616     5B1    -0.048474     5B2    -0.033078  
       1A2     0.005976    11A1     0.006124    12A1     0.048960  
      13A1     0.096334     6B1     0.172469    14A1     0.191871  
       6B2     0.196310     7B1     0.340156     7B2     0.356959  
       2A2     0.482778    15A1     0.482977    16A1     0.529229  
       8B1     0.845945     8B2     0.866821    17A1     0.938886  
      18A1     1.379546  

    Final Occupation by Irrep:
             A1    A2    B1    B2 
    DOCC [     8,    0,    3,    3 ]
    SOCC [     1,    0,    0,    1 ]
    NA   [     9,    0,    3,    4 ]
    NB   [     8,    0,    3,    3 ]

  @DF-UKS Final Energy:  -748.14276983482000

   => Energetics <=

    Nuclear Repulsion Energy =            104.3496114354593942
    One-Electron Energy =               -1230.3740788593981961
    Two-Electron Energy =                 417.7417800134706454
    DFT Exchange-Correlation Energy =     -39.8600824243518801
    Empirical Dispersion Energy =           0.0000000000000000
    VV10 Nonlocal Energy =                  0.0000000000000000
    Total Energy =                       -748.1427698348201147

  UHF NO Occupations:
  HONO-2 :    3 B2 1.9996778
  HONO-1 :    9 A1 1.0000000
  HONO-0 :    4 B2 1.0000000
  LUNO+0 :    5 B2 0.0003222
  LUNO+1 :    4 B1 0.0002069
  LUNO+2 :   10 A1 0.0001929
  LUNO+3 :   11 A1 0.0000268


Computation Completed


Properties will be evaluated at   0.000000,   0.000000,   0.000000 [a0]

Properties computed using the SCF density matrix


 Multipole Moments:

 ------------------------------------------------------------------------------------
     Multipole            Electronic (a.u.)      Nuclear  (a.u.)        Total (a.u.)
 ------------------------------------------------------------------------------------

 L = 1.  Multiply by 2.5417464519 to convert [e a0] to [Debye]
 Dipole X            :          0.0000000            0.0000000            0.0000000
 Dipole Y            :          0.0000000            0.0000000            0.0000000
 Dipole Z            :         -0.3335775            0.5056922            0.1721148
 Magnitude           :                                                    0.1721148

 ------------------------------------------------------------------------------------

*** tstop() called on Joses-MacBook-Pro-2.local at Thu Jul 17 15:42:21 2025
Module time:
	user time   =       8.40 seconds =       0.14 minutes
	system time =       2.26 seconds =       0.04 minutes
	total time  =          1 seconds =       0.02 minutes
Total time:
	user time   =      28.73 seconds =       0.48 minutes
	system time =       5.06 seconds =       0.08 minutes
	total time  =          3 seconds =       0.05 minutes

*** tstart() called on Joses-MacBook-Pro-2.local
*** at Thu Jul 17 15:42:21 2025


         ------------------------------------------------------------
                                   SCF GRAD                          
                          Rob Parrish, Justin Turney,                
                       Andy Simmonett, and Alex Sokolov              
         ------------------------------------------------------------

  ==> Geometry <==

    Molecular point group: c2v
    Full point group: C_inf_v

    Geometry (in Angstrom), charge = 1, multiplicity = 3:

       Center              X                  Y                   Z               Mass       
    ------------   -----------------  -----------------  -----------------  -----------------
         SI           0.000000000000     0.000000000000     0.670505003363    27.976926534650
         CL           0.000000000000     0.000000000000    -0.536439367651    34.968852682000

  Nuclear repulsion =  104.349611435459394

  ==> Basis Set <==

  Basis Set: CC-PVDZ
    Blend: CC-PVDZ
    Number of shells: 16
    Number of basis functions: 36
    Number of Cartesian functions: 38
    Spherical Harmonics?: true
    Max angular momentum: 2

  ==> DFJKGrad: Density-Fitted SCF Gradients <==

    Gradient:                    1
    J tasked:                  Yes
    K tasked:                  Yes
    wK tasked:                  No
    OpenMP threads:              1
    Integrals threads:           1
    Memory [MiB]:              375
    Schwarz Cutoff:          1E-12
    Fitting Condition:       1E-10

   => Auxiliary Basis Set <=

  Basis Set: (CC-PVDZ AUX)
    Blend: CC-PVDZ-JKFIT
    Number of shells: 72
    Number of basis functions: 224
    Number of Cartesian functions: 260
    Spherical Harmonics?: true
    Max angular momentum: 3

  ==> DFT Potential <==

   => LibXC <=

    Version 6.2.2
    S. Lehtola, C. Steigemann, M. J.T. Oliveira, and M. A.L. Marques.,  SoftwareX 7, 1–5 (2018) (10.1016/j.softx.2017.11.002)

   => Composite Functional: B3LYP <= 

    B3LYP Hyb-GGA Exchange-Correlation Functional

    P. J. Stephens, F. J. Devlin, C. F. Chabalowski, and M. J. Frisch.,  J. Phys. Chem. 98, 11623 (1994) (10.1021/j100096a001)

    Deriv               =              1
    GGA                 =           TRUE
    Meta                =          FALSE

    Exchange Hybrid     =           TRUE
    MP2 Hybrid          =          FALSE

   => Exchange Functionals <=

    0.0800   Slater exchange
    0.7200         Becke 88

   => Exact (HF) Exchange <=

    0.2000               HF 

   => Correlation Functionals <=

    0.1900   Vosko, Wilk & Nusair (VWN5_RPA)
    0.8100   Lee, Yang & Parr

   => LibXC Density Thresholds  <==

    XC_HYB_GGA_XC_B3LYP:  1.00E-15 

   => Molecular Quadrature <=

    Radial Scheme          =       TREUTLER
    Pruning Scheme         =           NONE
    Nuclear Scheme         =       TREUTLER

    Blocking Scheme        =         OCTREE
    BS radius alpha        =              1
    Pruning alpha          =              1
    Radial Points          =             75
    Spherical Points       =            302
    Total Points           =          41466
    Total Blocks           =            389
    Max Points             =            250
    Max Functions          =             36
    Weights Tolerance      =       1.00E-15


  -Total Gradient:
     Atom            X                  Y                   Z
    ------   -----------------  -----------------  -----------------
       1        0.000000000000    -0.000000000000    -2.781804716317
       2        0.000000000000     0.000000000000     2.781793971822


*** tstop() called on Joses-MacBook-Pro-2.local at Thu Jul 17 15:42:22 2025
Module time:
	user time   =       2.18 seconds =       0.04 minutes
	system time =       1.28 seconds =       0.02 minutes
	total time  =          1 seconds =       0.02 minutes
Total time:
	user time   =      30.91 seconds =       0.52 minutes
	system time =       6.34 seconds =       0.11 minutes
	total time  =          4 seconds =       0.07 minutes

    			-----------------------------------------

    			 OPTKING 3.0: for geometry optimizations 

    			     By R.A. King, Bethel University     

    			        with contributions from          

    			    A.V. Copan, J. Cayton, A. Heide      

    			-----------------------------------------

    
	                            ===> Fragment 1 <== 

	 Z (Atomic Numbers)          Masses                          Geom                  
	      14.000000            27.976927          0.00000000  0.00000000  1.26707082   
	      17.000000            34.968853          0.00000000  0.00000000 -1.01372349   

	 - Coordinate -           - BOHR/RAD -       - ANG/DEG -
	 R(1,2)           =         2.280794           1.206944


	        --- Internal Coordinate Step in ANG or DEG, aJ/ANG or AJ/DEG ---
	-------------------------------------------------------------------------------
	           Coordinate      Previous         Force          Change          New 
	           ----------      --------        ------          ------        ------
	               R(1,2)       1.20694       22.91848        0.01351       1.22045
	-------------------------------------------------------------------------------

	                                 ==> Convergence Check <==                                  
    
	Measures of convergence in internal coordinates in au.
    
	Criteria marked as inactive (o), active & met (*), and active & unmet ( ).

	----------------------------------------------------------------------------------------------
	   Step    Total Energy     Delta E     Max Force     RMS Force      Max Disp      RMS Disp   
	----------------------------------------------------------------------------------------------
	  Convergence Criteria     1.00e-06 *    3.00e-04 *             o    1.20e-03 *             o
	----------------------------------------------------------------------------------------------
	     2    -748.14276983   -3.70e-02      2.78e+00      2.78e+00 o    2.55e-02      2.55e-02 o  ~
	----------------------------------------------------------------------------------------------

Next Geometry in Ang 
	Fragment 1 (Ang)

	   Si   0.0000000000   0.0000000000   0.6772587078
	   Cl   0.0000000000   0.0000000000  -0.5431930721


    Structure for next step:
    Molecular point group: c2v
    Full point group: C_inf_v

    Geometry (in Angstrom), charge = 1, multiplicity = 3:

    SI           0.000000000000     0.000000000000     0.678008899572
    CL           0.000000000000     0.000000000000    -0.542442880402


Scratch directory: /tmp/
gradient() will perform analytic gradient computation.
   => Libint2 <=

    Primary   basis highest AM E, G, H:  6, 6, 3
    Auxiliary basis highest AM E, G, H:  7, 7, 4
    Onebody   basis highest AM E, G, H:  -, -, -
    Solid Harmonics ordering:            Gaussian

*** tstart() called on Joses-MacBook-Pro-2.local
*** at Thu Jul 17 15:42:22 2025

   => Loading Basis Set <=

    Name: CC-PVDZ
    Role: ORBITAL
    Keyword: BASIS
    atoms 1 entry SI         line   478 file /Users/joseantoniorodriguesromero/anaconda3/share/psi4/basis/cc-pvdz.gbs 
    atoms 2 entry CL         line   658 file /Users/joseantoniorodriguesromero/anaconda3/share/psi4/basis/cc-pvdz.gbs 


         ---------------------------------------------------------
                                   SCF
               by Justin Turney, Rob Parrish, Andy Simmonett
                          and Daniel G. A. Smith
                              UKS Reference
                        1 Threads,    500 MiB Core
         ---------------------------------------------------------

  ==> Geometry <==

    Molecular point group: c2v
    Full point group: C_inf_v

    Geometry (in Angstrom), charge = 1, multiplicity = 3:

       Center              X                  Y                   Z               Mass       
    ------------   -----------------  -----------------  -----------------  -----------------
         SI           0.000000000000     0.000000000000     0.678008899572    27.976926534650
         CL           0.000000000000     0.000000000000    -0.542442880402    34.968852682000

  Running in c2v symmetry.

  Rotational constants: A = ************  B =      0.72818  C =      0.72818 [cm^-1]
  Rotational constants: A = ************  B =  21830.37406  C =  21830.37406 [MHz]
  Nuclear repulsion =  103.194717076106897

  Charge       = 1
  Multiplicity = 3
  Electrons    = 30
  Nalpha       = 16
  Nbeta        = 14

  ==> Algorithm <==

  SCF Algorithm Type is DF.
  DIIS enabled.
  MOM disabled.
  Fractional occupation disabled.
  Guess Type is READ.
  Energy threshold   = 1.00e-08
  Density threshold  = 1.00e-08
  Integral threshold = 1.00e-12

  ==> Primary Basis <==

  Basis Set: CC-PVDZ
    Blend: CC-PVDZ
    Number of shells: 16
    Number of basis functions: 36
    Number of Cartesian functions: 38
    Spherical Harmonics?: true
    Max angular momentum: 2

  ==> DFT Potential <==

   => LibXC <=

    Version 6.2.2
    S. Lehtola, C. Steigemann, M. J.T. Oliveira, and M. A.L. Marques.,  SoftwareX 7, 1–5 (2018) (10.1016/j.softx.2017.11.002)

   => Composite Functional: B3LYP <= 

    B3LYP Hyb-GGA Exchange-Correlation Functional

    P. J. Stephens, F. J. Devlin, C. F. Chabalowski, and M. J. Frisch.,  J. Phys. Chem. 98, 11623 (1994) (10.1021/j100096a001)

    Deriv               =              1
    GGA                 =           TRUE
    Meta                =          FALSE

    Exchange Hybrid     =           TRUE
    MP2 Hybrid          =          FALSE

   => Exchange Functionals <=

    0.0800   Slater exchange
    0.7200         Becke 88

   => Exact (HF) Exchange <=

    0.2000               HF 

   => Correlation Functionals <=

    0.1900   Vosko, Wilk & Nusair (VWN5_RPA)
    0.8100   Lee, Yang & Parr

   => LibXC Density Thresholds  <==

    XC_HYB_GGA_XC_B3LYP:  1.00E-15 

   => Molecular Quadrature <=

    Radial Scheme          =       TREUTLER
    Pruning Scheme         =           NONE
    Nuclear Scheme         =       TREUTLER

    Blocking Scheme        =         OCTREE
    BS radius alpha        =              1
    Pruning alpha          =              1
    Radial Points          =             75
    Spherical Points       =            302
    Total Points           =          41466
    Total Blocks           =            389
    Max Points             =            248
    Max Functions          =             36
    Weights Tolerance      =       1.00E-15

   => Loading Basis Set <=

    Name: (CC-PVDZ AUX)
    Role: JKFIT
    Keyword: DF_BASIS_SCF
    atoms 1 entry SI         line   445 file /Users/joseantoniorodriguesromero/anaconda3/share/psi4/basis/cc-pvdz-jkfit.gbs 
    atoms 2 entry CL         line   667 file /Users/joseantoniorodriguesromero/anaconda3/share/psi4/basis/cc-pvdz-jkfit.gbs 

   => Loading Basis Set <=

    Name: CC-PVDZ
    Role: ORBITAL
    Keyword: BASIS
    atoms 1 entry SI         line   478 file /Users/joseantoniorodriguesromero/anaconda3/share/psi4/basis/cc-pvdz.gbs 
    atoms 2 entry CL         line   658 file /Users/joseantoniorodriguesromero/anaconda3/share/psi4/basis/cc-pvdz.gbs 

  Reading orbitals from file /tmp/triplet_SiCl.default.75577.180.npy, no projection.

  ==> Integral Setup <==

  DFHelper Memory: AOs need 0.003 GiB; user supplied 0.324 GiB. 
  Using in-core AOs.

  ==> MemDFJK: Density-Fitted J/K Matrices <==

    J tasked:                   Yes
    K tasked:                   Yes
    wK tasked:                   No
    OpenMP threads:               1
    Memory [MiB]:               331
    Algorithm:                 Core
    Schwarz Cutoff:           1E-12
    Mask sparsity (%):       0.0000
    Fitting Condition:        1E-10

   => Auxiliary Basis Set <=

  Basis Set: (CC-PVDZ AUX)
    Blend: CC-PVDZ-JKFIT
    Number of shells: 72
    Number of basis functions: 224
    Number of Cartesian functions: 260
    Spherical Harmonics?: true
    Max angular momentum: 3

  Cached 100.0% of DFT collocation blocks in 0.042 [GiB].

  Minimum eigenvalue in the overlap matrix is 7.3494333337E-03.
  Reciprocal condition number of the overlap matrix is 2.3430035424E-03.
    Using symmetric orthogonalization.

  ==> Pre-Iterations <==

  SCF Guess: Orbitals guess was supplied from a previous computation.

   -------------------------------------------------------
    Irrep   Nso     Nmo     Nalpha   Nbeta   Ndocc  Nsocc
   -------------------------------------------------------
     A1        18      18       9       8       8       1
     A2         2       2       0       0       0       0
     B1         8       8       3       3       3       0
     B2         8       8       4       3       3       1
   -------------------------------------------------------
    Total      36      36      16      14      14       2
   -------------------------------------------------------

  ==> Iterations <==

                           Total Energy        Delta E     RMS |[F,P]|

   @DF-UKS iter   0:  -748.21616022306557   -7.48216e+02   6.47305e-03 
   @DF-UKS iter   1:  -748.21181069967145    4.34952e-03   6.28345e-04 ADIIS/DIIS
   @DF-UKS iter   2:  -748.21185930752608   -4.86079e-05   4.56486e-04 ADIIS/DIIS/DAMP=1%
   @DF-UKS iter   3:  -748.21259480550157   -7.35498e-04   3.33298e-05 DIIS/DAMP=1%
   @DF-UKS iter   4:  -748.21190259523746    6.92210e-04   1.21444e-05 DIIS/DAMP=1%
   @DF-UKS iter   5:  -748.21191194485584   -9.34962e-06   1.45424e-06 DIIS/DAMP=1%
   @DF-UKS iter   6:  -748.21190979446612    2.15039e-06   1.67500e-07 DIIS/DAMP=1%
   @DF-UKS iter   7:  -748.21190813136457    1.66310e-06   2.64418e-08 DIIS/DAMP=1%
   @DF-UKS iter   8:  -748.21190838235793   -2.50993e-07   2.90336e-09 DIIS/DAMP=1%
   @DF-UKS iter   9:  -748.21190835509105    2.72669e-08   4.20982e-10 DIIS/DAMP=1%
   @DF-UKS iter  10:  -748.21190835451068    5.80371e-10   4.93155e-11 DIIS/DAMP=1%
  Energy and wave function converged.


  ==> Post-Iterations <==

   Electrons on quadrature grid:
      Nalpha   =   15.9999983487 ; deviation = -1.651e-06
      Nbeta    =   13.9999983446 ; deviation = -1.655e-06
      Ntotal   =   29.9999966933 ; deviation = -3.307e-06 

   @Spin Contamination Metric:   1.520964171E-03
   @S^2 Expected:                2.000000000E+00
   @S^2 Observed:                2.001520964E+00
   @S   Expected:                1.000000000E+00
   @S   Observed:                1.000000000E+00

    Orbital Energies [Eh]
    ---------------------

    Alpha Occupied:                                                       

       1A1  -101.866363     2A1   -66.465538     3A1    -9.859483  
       4A1    -7.626895     1B1    -7.598583     1B2    -7.596493  
       5A1    -5.713230     6A1    -4.100732     2B1    -4.045001  
       2B2    -4.040915     7A1    -1.308071     3B1    -0.813293  
       3B2    -0.810522     8A1    -0.804286     9A1    -0.599122  
       4B2    -0.383895  

    Alpha Virtual:                                                        

       4B1    -0.318799    10A1    -0.174505     5B1    -0.054175  
       5B2    -0.053160     1A2    -0.031452    11A1    -0.028798  
      12A1     0.011868    13A1     0.083022     6B2     0.121903  
       6B1     0.129850    14A1     0.135803     7B1     0.331646  
       7B2     0.332739     2A2     0.452443    15A1     0.453844  
      16A1     0.517285     8B1     0.821728     8B2     0.822532  
      17A1     0.911106    18A1     1.346772  

    Beta Occupied:                                                        

       1A1  -101.863281     2A1   -66.457509     3A1    -9.856299  
       4A1    -7.621318     1B1    -7.596952     1B2    -7.590995  
       5A1    -5.704093     6A1    -4.084091     2B1    -4.039073  
       2B2    -4.026239     7A1    -1.291820     3B1    -0.807306  
       3B2    -0.788121     8A1    -0.772124  

    Beta Virtual:                                                         

       9A1    -0.442838     4B1    -0.278220     4B2    -0.250179  
      10A1    -0.152707     5B1    -0.046538     5B2    -0.031097  
       1A2     0.009937    11A1     0.010048    12A1     0.048244  
      13A1     0.094992     6B1     0.171959    14A1     0.189203  
       6B2     0.195896     7B1     0.338958     7B2     0.355616  
       2A2     0.481624    15A1     0.481818    16A1     0.527571  
       8B1     0.843236     8B2     0.864074    17A1     0.929475  
      18A1     1.369878  

    Final Occupation by Irrep:
             A1    A2    B1    B2 
    DOCC [     8,    0,    3,    3 ]
    SOCC [     1,    0,    0,    1 ]
    NA   [     9,    0,    3,    4 ]
    NB   [     8,    0,    3,    3 ]

  @DF-UKS Final Energy:  -748.21190835451068

   => Energetics <=

    Nuclear Repulsion Energy =            103.1947170761068975
    One-Electron Energy =               -1228.3532605320883704
    Two-Electron Energy =                 416.7923518997783390
    DFT Exchange-Correlation Energy =     -39.8457167983074640
    Empirical Dispersion Energy =           0.0000000000000000
    VV10 Nonlocal Energy =                  0.0000000000000000
    Total Energy =                       -748.2119083545105696

  UHF NO Occupations:
  HONO-2 :    3 B2 1.9996725
  HONO-1 :    9 A1 1.0000000
  HONO-0 :    4 B2 1.0000000
  LUNO+0 :    5 B2 0.0003275
  LUNO+1 :    4 B1 0.0002182
  LUNO+2 :   10 A1 0.0001880
  LUNO+3 :   11 A1 0.0000265


Computation Completed


Properties will be evaluated at   0.000000,   0.000000,   0.000000 [a0]

Properties computed using the SCF density matrix


 Multipole Moments:

 ------------------------------------------------------------------------------------
     Multipole            Electronic (a.u.)      Nuclear  (a.u.)        Total (a.u.)
 ------------------------------------------------------------------------------------

 L = 1.  Multiply by 2.5417464519 to convert [e a0] to [Debye]
 Dipole X            :          0.0000000            0.0000000            0.0000000
 Dipole Y            :          0.0000000            0.0000000            0.0000000
 Dipole Z            :         -0.3174453            0.5113516            0.1939063
 Magnitude           :                                                    0.1939063

 ------------------------------------------------------------------------------------

*** tstop() called on Joses-MacBook-Pro-2.local at Thu Jul 17 15:42:23 2025
Module time:
	user time   =       8.82 seconds =       0.15 minutes
	system time =       2.52 seconds =       0.04 minutes
	total time  =          1 seconds =       0.02 minutes
Total time:
	user time   =      39.99 seconds =       0.67 minutes
	system time =       8.89 seconds =       0.15 minutes
	total time  =          5 seconds =       0.08 minutes

*** tstart() called on Joses-MacBook-Pro-2.local
*** at Thu Jul 17 15:42:23 2025


         ------------------------------------------------------------
                                   SCF GRAD                          
                          Rob Parrish, Justin Turney,                
                       Andy Simmonett, and Alex Sokolov              
         ------------------------------------------------------------

  ==> Geometry <==

    Molecular point group: c2v
    Full point group: C_inf_v

    Geometry (in Angstrom), charge = 1, multiplicity = 3:

       Center              X                  Y                   Z               Mass       
    ------------   -----------------  -----------------  -----------------  -----------------
         SI           0.000000000000     0.000000000000     0.678008899572    27.976926534650
         CL           0.000000000000     0.000000000000    -0.542442880402    34.968852682000

  Nuclear repulsion =  103.194717076106897

  ==> Basis Set <==

  Basis Set: CC-PVDZ
    Blend: CC-PVDZ
    Number of shells: 16
    Number of basis functions: 36
    Number of Cartesian functions: 38
    Spherical Harmonics?: true
    Max angular momentum: 2

  ==> DFJKGrad: Density-Fitted SCF Gradients <==

    Gradient:                    1
    J tasked:                  Yes
    K tasked:                  Yes
    wK tasked:                  No
    OpenMP threads:              1
    Integrals threads:           1
    Memory [MiB]:              375
    Schwarz Cutoff:          1E-12
    Fitting Condition:       1E-10

   => Auxiliary Basis Set <=

  Basis Set: (CC-PVDZ AUX)
    Blend: CC-PVDZ-JKFIT
    Number of shells: 72
    Number of basis functions: 224
    Number of Cartesian functions: 260
    Spherical Harmonics?: true
    Max angular momentum: 3

  ==> DFT Potential <==

   => LibXC <=

    Version 6.2.2
    S. Lehtola, C. Steigemann, M. J.T. Oliveira, and M. A.L. Marques.,  SoftwareX 7, 1–5 (2018) (10.1016/j.softx.2017.11.002)

   => Composite Functional: B3LYP <= 

    B3LYP Hyb-GGA Exchange-Correlation Functional

    P. J. Stephens, F. J. Devlin, C. F. Chabalowski, and M. J. Frisch.,  J. Phys. Chem. 98, 11623 (1994) (10.1021/j100096a001)

    Deriv               =              1
    GGA                 =           TRUE
    Meta                =          FALSE

    Exchange Hybrid     =           TRUE
    MP2 Hybrid          =          FALSE

   => Exchange Functionals <=

    0.0800   Slater exchange
    0.7200         Becke 88

   => Exact (HF) Exchange <=

    0.2000               HF 

   => Correlation Functionals <=

    0.1900   Vosko, Wilk & Nusair (VWN5_RPA)
    0.8100   Lee, Yang & Parr

   => LibXC Density Thresholds  <==

    XC_HYB_GGA_XC_B3LYP:  1.00E-15 

   => Molecular Quadrature <=

    Radial Scheme          =       TREUTLER
    Pruning Scheme         =           NONE
    Nuclear Scheme         =       TREUTLER

    Blocking Scheme        =         OCTREE
    BS radius alpha        =              1
    Pruning alpha          =              1
    Radial Points          =             75
    Spherical Points       =            302
    Total Points           =          41466
    Total Blocks           =            389
    Max Points             =            248
    Max Functions          =             36
    Weights Tolerance      =       1.00E-15


  -Total Gradient:
     Atom            X                  Y                   Z
    ------   -----------------  -----------------  -----------------
       1        0.000000000000     0.000000000000    -2.636512636256
       2        0.000000000000    -0.000000000000     2.636494197508


*** tstop() called on Joses-MacBook-Pro-2.local at Thu Jul 17 15:42:23 2025
Module time:
	user time   =       2.11 seconds =       0.04 minutes
	system time =       1.30 seconds =       0.02 minutes
	total time  =          0 seconds =       0.00 minutes
Total time:
	user time   =      42.10 seconds =       0.70 minutes
	system time =      10.20 seconds =       0.17 minutes
	total time  =          5 seconds =       0.08 minutes

    			-----------------------------------------

    			 OPTKING 3.0: for geometry optimizations 

    			     By R.A. King, Bethel University     

    			        with contributions from          

    			    A.V. Copan, J. Cayton, A. Heide      

    			-----------------------------------------

    
	                            ===> Fragment 1 <== 

	 Z (Atomic Numbers)          Masses                          Geom                  
	      14.000000            27.976927          0.00000000  0.00000000  1.28125113   
	      17.000000            34.968853          0.00000000  0.00000000 -1.02506848   

	 - Coordinate -           - BOHR/RAD -       - ANG/DEG -
	 R(1,2)           =         2.306320           1.220452


	        --- Internal Coordinate Step in ANG or DEG, aJ/ANG or AJ/DEG ---
	-------------------------------------------------------------------------------
	           Coordinate      Previous         Force          Change          New 
	           ----------      --------        ------          ------        ------
	               R(1,2)       1.22045       21.72142        0.05077       1.27122
	-------------------------------------------------------------------------------

	                                 ==> Convergence Check <==                                  
    
	Measures of convergence in internal coordinates in au.
    
	Criteria marked as inactive (o), active & met (*), and active & unmet ( ).

	----------------------------------------------------------------------------------------------
	   Step    Total Energy     Delta E     Max Force     RMS Force      Max Disp      RMS Disp   
	----------------------------------------------------------------------------------------------
	  Convergence Criteria     1.00e-06 *    3.00e-04 *             o    1.20e-03 *             o
	----------------------------------------------------------------------------------------------
	     3    -748.21190835   -6.91e-02      2.64e+00      2.64e+00 o    9.59e-02      9.59e-02 o  ~
	----------------------------------------------------------------------------------------------

Next Geometry in Ang 
	Fragment 1 (Ang)

	   Si   0.0000000000   0.0000000000   0.7033935773
	   Cl   0.0000000000   0.0000000000  -0.5678275581


    Structure for next step:
    Molecular point group: c2v
    Full point group: C_inf_v

    Geometry (in Angstrom), charge = 1, multiplicity = 3:

    SI           0.000000000000     0.000000000000     0.706213270560
    CL           0.000000000000     0.000000000000    -0.565007864796


Scratch directory: /tmp/
gradient() will perform analytic gradient computation.
   => Libint2 <=

    Primary   basis highest AM E, G, H:  6, 6, 3
    Auxiliary basis highest AM E, G, H:  7, 7, 4
    Onebody   basis highest AM E, G, H:  -, -, -
    Solid Harmonics ordering:            Gaussian

*** tstart() called on Joses-MacBook-Pro-2.local
*** at Thu Jul 17 15:42:23 2025

   => Loading Basis Set <=

    Name: CC-PVDZ
    Role: ORBITAL
    Keyword: BASIS
    atoms 1 entry SI         line   478 file /Users/joseantoniorodriguesromero/anaconda3/share/psi4/basis/cc-pvdz.gbs 
    atoms 2 entry CL         line   658 file /Users/joseantoniorodriguesromero/anaconda3/share/psi4/basis/cc-pvdz.gbs 


         ---------------------------------------------------------
                                   SCF
               by Justin Turney, Rob Parrish, Andy Simmonett
                          and Daniel G. A. Smith
                              UKS Reference
                        1 Threads,    500 MiB Core
         ---------------------------------------------------------

  ==> Geometry <==

    Molecular point group: c2v
    Full point group: C_inf_v

    Geometry (in Angstrom), charge = 1, multiplicity = 3:

       Center              X                  Y                   Z               Mass       
    ------------   -----------------  -----------------  -----------------  -----------------
         SI           0.000000000000     0.000000000000     0.706213270560    27.976926534650
         CL           0.000000000000     0.000000000000    -0.565007864796    34.968852682000

  Running in c2v symmetry.

  Rotational constants: A = ************  B =      0.67118  C =      0.67118 [cm^-1]
  Rotational constants: A = ************  B =  20121.49374  C =  20121.49374 [MHz]
  Nuclear repulsion =   99.073381205383569

  Charge       = 1
  Multiplicity = 3
  Electrons    = 30
  Nalpha       = 16
  Nbeta        = 14

  ==> Algorithm <==

  SCF Algorithm Type is DF.
  DIIS enabled.
  MOM disabled.
  Fractional occupation disabled.
  Guess Type is READ.
  Energy threshold   = 1.00e-08
  Density threshold  = 1.00e-08
  Integral threshold = 1.00e-12

  ==> Primary Basis <==

  Basis Set: CC-PVDZ
    Blend: CC-PVDZ
    Number of shells: 16
    Number of basis functions: 36
    Number of Cartesian functions: 38
    Spherical Harmonics?: true
    Max angular momentum: 2

  ==> DFT Potential <==

   => LibXC <=

    Version 6.2.2
    S. Lehtola, C. Steigemann, M. J.T. Oliveira, and M. A.L. Marques.,  SoftwareX 7, 1–5 (2018) (10.1016/j.softx.2017.11.002)

   => Composite Functional: B3LYP <= 

    B3LYP Hyb-GGA Exchange-Correlation Functional

    P. J. Stephens, F. J. Devlin, C. F. Chabalowski, and M. J. Frisch.,  J. Phys. Chem. 98, 11623 (1994) (10.1021/j100096a001)

    Deriv               =              1
    GGA                 =           TRUE
    Meta                =          FALSE

    Exchange Hybrid     =           TRUE
    MP2 Hybrid          =          FALSE

   => Exchange Functionals <=

    0.0800   Slater exchange
    0.7200         Becke 88

   => Exact (HF) Exchange <=

    0.2000               HF 

   => Correlation Functionals <=

    0.1900   Vosko, Wilk & Nusair (VWN5_RPA)
    0.8100   Lee, Yang & Parr

   => LibXC Density Thresholds  <==

    XC_HYB_GGA_XC_B3LYP:  1.00E-15 

   => Molecular Quadrature <=

    Radial Scheme          =       TREUTLER
    Pruning Scheme         =           NONE
    Nuclear Scheme         =       TREUTLER

    Blocking Scheme        =         OCTREE
    BS radius alpha        =              1
    Pruning alpha          =              1
    Radial Points          =             75
    Spherical Points       =            302
    Total Points           =          41474
    Total Blocks           =            388
    Max Points             =            251
    Max Functions          =             36
    Weights Tolerance      =       1.00E-15

   => Loading Basis Set <=

    Name: (CC-PVDZ AUX)
    Role: JKFIT
    Keyword: DF_BASIS_SCF
    atoms 1 entry SI         line   445 file /Users/joseantoniorodriguesromero/anaconda3/share/psi4/basis/cc-pvdz-jkfit.gbs 
    atoms 2 entry CL         line   667 file /Users/joseantoniorodriguesromero/anaconda3/share/psi4/basis/cc-pvdz-jkfit.gbs 

   => Loading Basis Set <=

    Name: CC-PVDZ
    Role: ORBITAL
    Keyword: BASIS
    atoms 1 entry SI         line   478 file /Users/joseantoniorodriguesromero/anaconda3/share/psi4/basis/cc-pvdz.gbs 
    atoms 2 entry CL         line   658 file /Users/joseantoniorodriguesromero/anaconda3/share/psi4/basis/cc-pvdz.gbs 

  Reading orbitals from file /tmp/triplet_SiCl.default.75577.180.npy, no projection.

  ==> Integral Setup <==

  DFHelper Memory: AOs need 0.003 GiB; user supplied 0.324 GiB. 
  Using in-core AOs.

  ==> MemDFJK: Density-Fitted J/K Matrices <==

    J tasked:                   Yes
    K tasked:                   Yes
    wK tasked:                   No
    OpenMP threads:               1
    Memory [MiB]:               331
    Algorithm:                 Core
    Schwarz Cutoff:           1E-12
    Mask sparsity (%):       0.0000
    Fitting Condition:        1E-10

   => Auxiliary Basis Set <=

  Basis Set: (CC-PVDZ AUX)
    Blend: CC-PVDZ-JKFIT
    Number of shells: 72
    Number of basis functions: 224
    Number of Cartesian functions: 260
    Spherical Harmonics?: true
    Max angular momentum: 3

  Cached 100.0% of DFT collocation blocks in 0.042 [GiB].

  Minimum eigenvalue in the overlap matrix is 8.2738576272E-03.
  Reciprocal condition number of the overlap matrix is 2.6417204571E-03.
    Using symmetric orthogonalization.

  ==> Pre-Iterations <==

  SCF Guess: Orbitals guess was supplied from a previous computation.

   -------------------------------------------------------
    Irrep   Nso     Nmo     Nalpha   Nbeta   Ndocc  Nsocc
   -------------------------------------------------------
     A1        18      18       9       8       8       1
     A2         2       2       0       0       0       0
     B1         8       8       3       3       3       0
     B2         8       8       4       3       3       1
   -------------------------------------------------------
    Total      36      36      16      14      14       2
   -------------------------------------------------------

  ==> Iterations <==

                           Total Energy        Delta E     RMS |[F,P]|

   @DF-UKS iter   0:  -748.46286333172702   -7.48463e+02   2.29870e-02 
   @DF-UKS iter   1:  -748.43938704202526    2.34763e-02   2.22767e-03 ADIIS/DIIS
   @DF-UKS iter   2:  -748.44001101474259   -6.23973e-04   1.57712e-03 ADIIS/DIIS/DAMP=1%
   @DF-UKS iter   3:  -748.44293430060054   -2.92329e-03   1.16132e-04 ADIIS/DIIS/DAMP=1%
   @DF-UKS iter   4:  -748.44057546440979    2.35884e-03   4.52435e-05 DIIS/DAMP=1%
   @DF-UKS iter   5:  -748.44061832620821   -4.28618e-05   4.89471e-06 DIIS/DAMP=1%
   @DF-UKS iter   6:  -748.44060978606649    8.54014e-06   5.79864e-07 DIIS/DAMP=1%
   @DF-UKS iter   7:  -748.44060429584874    5.49022e-06   8.93576e-08 DIIS/DAMP=1%
   @DF-UKS iter   8:  -748.44060510654367   -8.10695e-07   1.19476e-08 DIIS/DAMP=1%
   @DF-UKS iter   9:  -748.44060501625745    9.02862e-08   1.64079e-09 DIIS/DAMP=1%
   @DF-UKS iter  10:  -748.44060501655986   -3.02407e-10   1.80320e-10 DIIS/DAMP=1%
  Energy and wave function converged.


  ==> Post-Iterations <==

   Electrons on quadrature grid:
      Nalpha   =   15.9999991101 ; deviation = -8.899e-07
      Nbeta    =   13.9999990747 ; deviation = -9.253e-07
      Ntotal   =   29.9999981848 ; deviation = -1.815e-06 

   @Spin Contamination Metric:   1.607459181E-03
   @S^2 Expected:                2.000000000E+00
   @S^2 Observed:                2.001607459E+00
   @S   Expected:                1.000000000E+00
   @S   Observed:                1.000000000E+00

    Orbital Energies [Eh]
    ---------------------

    Alpha Occupied:                                                       

       1A1  -101.855427     2A1   -66.459867     3A1    -9.838424  
       4A1    -7.603535     1B1    -7.581009     1B2    -7.578934  
       5A1    -5.690038     6A1    -4.072892     2B1    -4.028480  
       2B2    -4.024413     7A1    -1.302044     8A1    -0.808113  
       3B1    -0.793631     3B2    -0.791435     9A1    -0.605355  
       4B2    -0.388593  

    Alpha Virtual:                                                        

       4B1    -0.323662    10A1    -0.175521     5B1    -0.047325  
       5B2    -0.046516     1A2    -0.019994    11A1    -0.017256  
      12A1     0.009874    13A1     0.079915     6B2     0.119170  
      14A1     0.125280     6B1     0.126772     7B1     0.327895  
       7B2     0.329192     2A2     0.449619    15A1     0.450905  
      16A1     0.512799     8B1     0.810234     8B2     0.810873  
      17A1     0.877848    18A1     1.316335  

    Beta Occupied:                                                        

       1A1  -101.852543     2A1   -66.451777     3A1    -9.835474  
       4A1    -7.598343     1B1    -7.579535     1B2    -7.573611  
       5A1    -5.680537     6A1    -4.057159     2B1    -4.022351  
       2B2    -4.009289     7A1    -1.286427     3B1    -0.787816  
       8A1    -0.777248     3B2    -0.768873  

    Beta Virtual:                                                         

       9A1    -0.448019     4B1    -0.282641     4B2    -0.254524  
      10A1    -0.152711     5B1    -0.039239     5B2    -0.023621  
      11A1     0.023845     1A2     0.023901    12A1     0.044768  
      13A1     0.091499     6B1     0.169546    14A1     0.179324  
       6B2     0.193809     7B1     0.334532     7B2     0.350625  
       2A2     0.477242    15A1     0.477431    16A1     0.523248  
       8B1     0.831246     8B2     0.851899    17A1     0.895999  
      18A1     1.339162  

    Final Occupation by Irrep:
             A1    A2    B1    B2 
    DOCC [     8,    0,    3,    3 ]
    SOCC [     1,    0,    0,    1 ]
    NA   [     9,    0,    3,    4 ]
    NB   [     8,    0,    3,    3 ]

  @DF-UKS Final Energy:  -748.44060501655986

   => Energetics <=

    Nuclear Repulsion Energy =             99.0733812053835692
    One-Electron Energy =               -1221.0328396190511739
    Two-Electron Energy =                 413.3110736405748753
    DFT Exchange-Correlation Energy =     -39.7922202434671561
    Empirical Dispersion Energy =           0.0000000000000000
    VV10 Nonlocal Energy =                  0.0000000000000000
    Total Energy =                       -748.4406050165597435

  UHF NO Occupations:
  HONO-2 :    3 B2 1.9996568
  HONO-1 :    4 B2 1.0000000
  HONO-0 :    9 A1 1.0000000
  LUNO+0 :    5 B2 0.0003432
  LUNO+1 :    4 B1 0.0002602
  LUNO+2 :   10 A1 0.0001745
  LUNO+3 :   11 A1 0.0000255


Computation Completed


Properties will be evaluated at   0.000000,   0.000000,   0.000000 [a0]

Properties computed using the SCF density matrix


 Multipole Moments:

 ------------------------------------------------------------------------------------
     Multipole            Electronic (a.u.)      Nuclear  (a.u.)        Total (a.u.)
 ------------------------------------------------------------------------------------

 L = 1.  Multiply by 2.5417464519 to convert [e a0] to [Debye]
 Dipole X            :          0.0000000            0.0000000            0.0000000
 Dipole Y            :          0.0000000            0.0000000            0.0000000
 Dipole Z            :         -0.2574173            0.5326233            0.2752059
 Magnitude           :                                                    0.2752059

 ------------------------------------------------------------------------------------

*** tstop() called on Joses-MacBook-Pro-2.local at Thu Jul 17 15:42:24 2025
Module time:
	user time   =       7.74 seconds =       0.13 minutes
	system time =       2.44 seconds =       0.04 minutes
	total time  =          1 seconds =       0.02 minutes
Total time:
	user time   =      49.95 seconds =       0.83 minutes
	system time =      12.85 seconds =       0.21 minutes
	total time  =          6 seconds =       0.10 minutes

*** tstart() called on Joses-MacBook-Pro-2.local
*** at Thu Jul 17 15:42:24 2025


         ------------------------------------------------------------
                                   SCF GRAD                          
                          Rob Parrish, Justin Turney,                
                       Andy Simmonett, and Alex Sokolov              
         ------------------------------------------------------------

  ==> Geometry <==

    Molecular point group: c2v
    Full point group: C_inf_v

    Geometry (in Angstrom), charge = 1, multiplicity = 3:

       Center              X                  Y                   Z               Mass       
    ------------   -----------------  -----------------  -----------------  -----------------
         SI           0.000000000000     0.000000000000     0.706213270560    27.976926534650
         CL           0.000000000000     0.000000000000    -0.565007864796    34.968852682000

  Nuclear repulsion =   99.073381205383569

  ==> Basis Set <==

  Basis Set: CC-PVDZ
    Blend: CC-PVDZ
    Number of shells: 16
    Number of basis functions: 36
    Number of Cartesian functions: 38
    Spherical Harmonics?: true
    Max angular momentum: 2

  ==> DFJKGrad: Density-Fitted SCF Gradients <==

    Gradient:                    1
    J tasked:                  Yes
    K tasked:                  Yes
    wK tasked:                  No
    OpenMP threads:              1
    Integrals threads:           1
    Memory [MiB]:              375
    Schwarz Cutoff:          1E-12
    Fitting Condition:       1E-10

   => Auxiliary Basis Set <=

  Basis Set: (CC-PVDZ AUX)
    Blend: CC-PVDZ-JKFIT
    Number of shells: 72
    Number of basis functions: 224
    Number of Cartesian functions: 260
    Spherical Harmonics?: true
    Max angular momentum: 3

  ==> DFT Potential <==

   => LibXC <=

    Version 6.2.2
    S. Lehtola, C. Steigemann, M. J.T. Oliveira, and M. A.L. Marques.,  SoftwareX 7, 1–5 (2018) (10.1016/j.softx.2017.11.002)

   => Composite Functional: B3LYP <= 

    B3LYP Hyb-GGA Exchange-Correlation Functional

    P. J. Stephens, F. J. Devlin, C. F. Chabalowski, and M. J. Frisch.,  J. Phys. Chem. 98, 11623 (1994) (10.1021/j100096a001)

    Deriv               =              1
    GGA                 =           TRUE
    Meta                =          FALSE

    Exchange Hybrid     =           TRUE
    MP2 Hybrid          =          FALSE

   => Exchange Functionals <=

    0.0800   Slater exchange
    0.7200         Becke 88

   => Exact (HF) Exchange <=

    0.2000               HF 

   => Correlation Functionals <=

    0.1900   Vosko, Wilk & Nusair (VWN5_RPA)
    0.8100   Lee, Yang & Parr

   => LibXC Density Thresholds  <==

    XC_HYB_GGA_XC_B3LYP:  1.00E-15 

   => Molecular Quadrature <=

    Radial Scheme          =       TREUTLER
    Pruning Scheme         =           NONE
    Nuclear Scheme         =       TREUTLER

    Blocking Scheme        =         OCTREE
    BS radius alpha        =              1
    Pruning alpha          =              1
    Radial Points          =             75
    Spherical Points       =            302
    Total Points           =          41474
    Total Blocks           =            388
    Max Points             =            251
    Max Functions          =             36
    Weights Tolerance      =       1.00E-15


  -Total Gradient:
     Atom            X                  Y                   Z
    ------   -----------------  -----------------  -----------------
       1       -0.000000000000     0.000000000000    -2.145049735573
       2        0.000000000000     0.000000000000     2.144998810485


*** tstop() called on Joses-MacBook-Pro-2.local at Thu Jul 17 15:42:25 2025
Module time:
	user time   =       3.16 seconds =       0.05 minutes
	system time =       0.76 seconds =       0.01 minutes
	total time  =          1 seconds =       0.02 minutes
Total time:
	user time   =      53.11 seconds =       0.89 minutes
	system time =      13.62 seconds =       0.23 minutes
	total time  =          7 seconds =       0.12 minutes

    			-----------------------------------------

    			 OPTKING 3.0: for geometry optimizations 

    			     By R.A. King, Bethel University     

    			        with contributions from          

    			    A.V. Copan, J. Cayton, A. Heide      

    			-----------------------------------------

    
	                            ===> Fragment 1 <== 

	 Z (Atomic Numbers)          Masses                          Geom                  
	      14.000000            27.976927          0.00000000  0.00000000  1.33454967   
	      17.000000            34.968853          0.00000000  0.00000000 -1.06771012   

	 - Coordinate -           - BOHR/RAD -       - ANG/DEG -
	 R(1,2)           =         2.402260           1.271221


	        --- Internal Coordinate Step in ANG or DEG, aJ/ANG or AJ/DEG ---
	-------------------------------------------------------------------------------
	           Coordinate      Previous         Force          Change          New 
	           ----------      --------        ------          ------        ------
	               R(1,2)       1.27122       17.67226        0.18720       1.45842
	-------------------------------------------------------------------------------

	                                 ==> Convergence Check <==                                  
    
	Measures of convergence in internal coordinates in au.
    
	Criteria marked as inactive (o), active & met (*), and active & unmet ( ).

	----------------------------------------------------------------------------------------------
	   Step    Total Energy     Delta E     Max Force     RMS Force      Max Disp      RMS Disp   
	----------------------------------------------------------------------------------------------
	  Convergence Criteria     1.00e-06 *    3.00e-04 *             o    1.20e-03 *             o
	----------------------------------------------------------------------------------------------
	     4    -748.44060502   -2.29e-01      2.15e+00      2.15e+00 o    3.54e-01      3.54e-01 o  ~
	----------------------------------------------------------------------------------------------

Next Geometry in Ang 
	Fragment 1 (Ang)

	   Si   0.0000000000   0.0000000000   0.7998151966
	   Cl   0.0000000000   0.0000000000  -0.6586097908


    Structure for next step:
    Molecular point group: c2v
    Full point group: C_inf_v

    Geometry (in Angstrom), charge = 1, multiplicity = 3:

    SI           0.000000000000     0.000000000000     0.810212363208
    CL           0.000000000000     0.000000000000    -0.648212624219


Scratch directory: /tmp/
gradient() will perform analytic gradient computation.
   => Libint2 <=

    Primary   basis highest AM E, G, H:  6, 6, 3
    Auxiliary basis highest AM E, G, H:  7, 7, 4
    Onebody   basis highest AM E, G, H:  -, -, -
    Solid Harmonics ordering:            Gaussian

*** tstart() called on Joses-MacBook-Pro-2.local
*** at Thu Jul 17 15:42:25 2025

   => Loading Basis Set <=

    Name: CC-PVDZ
    Role: ORBITAL
    Keyword: BASIS
    atoms 1 entry SI         line   478 file /Users/joseantoniorodriguesromero/anaconda3/share/psi4/basis/cc-pvdz.gbs 
    atoms 2 entry CL         line   658 file /Users/joseantoniorodriguesromero/anaconda3/share/psi4/basis/cc-pvdz.gbs 


         ---------------------------------------------------------
                                   SCF
               by Justin Turney, Rob Parrish, Andy Simmonett
                          and Daniel G. A. Smith
                              UKS Reference
                        1 Threads,    500 MiB Core
         ---------------------------------------------------------

  ==> Geometry <==

    Molecular point group: c2v
    Full point group: C_inf_v

    Geometry (in Angstrom), charge = 1, multiplicity = 3:

       Center              X                  Y                   Z               Mass       
    ------------   -----------------  -----------------  -----------------  -----------------
         SI           0.000000000000     0.000000000000     0.810212363208    27.976926534650
         CL           0.000000000000     0.000000000000    -0.648212624219    34.968852682000

  Running in c2v symmetry.

  Rotational constants: A = ************  B =      0.50993  C =      0.50993 [cm^-1]
  Rotational constants: A = ************  B =  15287.42131  C =  15287.42131 [MHz]
  Nuclear repulsion =   86.356293415964871

  Charge       = 1
  Multiplicity = 3
  Electrons    = 30
  Nalpha       = 16
  Nbeta        = 14

  ==> Algorithm <==

  SCF Algorithm Type is DF.
  DIIS enabled.
  MOM disabled.
  Fractional occupation disabled.
  Guess Type is READ.
  Energy threshold   = 1.00e-08
  Density threshold  = 1.00e-08
  Integral threshold = 1.00e-12

  ==> Primary Basis <==

  Basis Set: CC-PVDZ
[...]
	Criteria marked as inactive (o), active & met (*), and active & unmet ( ).

	----------------------------------------------------------------------------------------------
	   Step    Total Energy     Delta E     Max Force     RMS Force      Max Disp      RMS Disp   
	----------------------------------------------------------------------------------------------
	  Convergence Criteria     1.00e-06 *    3.00e-04 *             o    1.20e-03 *             o
	----------------------------------------------------------------------------------------------
	    15    -749.28629826   -5.36e-06      3.15e-04      3.15e-04 o    1.71e-03      1.71e-03 o  ~
	----------------------------------------------------------------------------------------------

Next Geometry in Ang 
	Fragment 1 (Ang)

	   Si   0.0000000000   0.0000000000   1.1343283764
	   Cl   0.0000000000   0.0000000000  -0.9076128180


    Structure for next step:
    Molecular point group: c2v
    Full point group: C_inf_v

    Geometry (in Angstrom), charge = 1, multiplicity = 3:

    SI           0.000000000000     0.000000000000     1.134378535014
    CL           0.000000000000     0.000000000000    -0.907562659410


Scratch directory: /tmp/
gradient() will perform analytic gradient computation.
   => Libint2 <=

    Primary   basis highest AM E, G, H:  6, 6, 3
    Auxiliary basis highest AM E, G, H:  7, 7, 4
    Onebody   basis highest AM E, G, H:  -, -, -
    Solid Harmonics ordering:            Gaussian

*** tstart() called on Joses-MacBook-Pro-2.local
*** at Thu Jul 17 15:42:40 2025

   => Loading Basis Set <=

    Name: CC-PVDZ
    Role: ORBITAL
    Keyword: BASIS
    atoms 1 entry SI         line   478 file /Users/joseantoniorodriguesromero/anaconda3/share/psi4/basis/cc-pvdz.gbs 
    atoms 2 entry CL         line   658 file /Users/joseantoniorodriguesromero/anaconda3/share/psi4/basis/cc-pvdz.gbs 


         ---------------------------------------------------------
                                   SCF
               by Justin Turney, Rob Parrish, Andy Simmonett
                          and Daniel G. A. Smith
                              UKS Reference
                        1 Threads,    500 MiB Core
         ---------------------------------------------------------

  ==> Geometry <==

    Molecular point group: c2v
    Full point group: C_inf_v

    Geometry (in Angstrom), charge = 1, multiplicity = 3:

       Center              X                  Y                   Z               Mass       
    ------------   -----------------  -----------------  -----------------  -----------------
         SI           0.000000000000     0.000000000000     1.134378535014    27.976926534650
         CL           0.000000000000     0.000000000000    -0.907562659410    34.968852682000

  Running in c2v symmetry.

  Rotational constants: A = ************  B =      0.26013  C =      0.26013 [cm^-1]
  Rotational constants: A = ************  B =   7798.58780  C =   7798.58780 [MHz]
  Nuclear repulsion =   61.678649945157119

  Charge       = 1
  Multiplicity = 3
  Electrons    = 30
  Nalpha       = 16
  Nbeta        = 14

  ==> Algorithm <==

  SCF Algorithm Type is DF.
  DIIS enabled.
  MOM disabled.
  Fractional occupation disabled.
  Guess Type is READ.
  Energy threshold   = 1.00e-08
  Density threshold  = 1.00e-08
  Integral threshold = 1.00e-12

  ==> Primary Basis <==

  Basis Set: CC-PVDZ
    Blend: CC-PVDZ
    Number of shells: 16
    Number of basis functions: 36
    Number of Cartesian functions: 38
    Spherical Harmonics?: true
    Max angular momentum: 2

  ==> DFT Potential <==

   => LibXC <=

    Version 6.2.2
    S. Lehtola, C. Steigemann, M. J.T. Oliveira, and M. A.L. Marques.,  SoftwareX 7, 1–5 (2018) (10.1016/j.softx.2017.11.002)

   => Composite Functional: B3LYP <= 

    B3LYP Hyb-GGA Exchange-Correlation Functional

    P. J. Stephens, F. J. Devlin, C. F. Chabalowski, and M. J. Frisch.,  J. Phys. Chem. 98, 11623 (1994) (10.1021/j100096a001)

    Deriv               =              1
    GGA                 =           TRUE
    Meta                =          FALSE

    Exchange Hybrid     =           TRUE
    MP2 Hybrid          =          FALSE

   => Exchange Functionals <=

    0.0800   Slater exchange
    0.7200         Becke 88

   => Exact (HF) Exchange <=

    0.2000               HF 

   => Correlation Functionals <=

    0.1900   Vosko, Wilk & Nusair (VWN5_RPA)
    0.8100   Lee, Yang & Parr

   => LibXC Density Thresholds  <==

    XC_HYB_GGA_XC_B3LYP:  1.00E-15 

   => Molecular Quadrature <=

    Radial Scheme          =       TREUTLER
    Pruning Scheme         =           NONE
    Nuclear Scheme         =       TREUTLER

    Blocking Scheme        =         OCTREE
    BS radius alpha        =              1
    Pruning alpha          =              1
    Radial Points          =             75
    Spherical Points       =            302
    Total Points           =          41591
    Total Blocks           =            383
    Max Points             =            255
    Max Functions          =             36
    Weights Tolerance      =       1.00E-15

   => Loading Basis Set <=

    Name: (CC-PVDZ AUX)
    Role: JKFIT
    Keyword: DF_BASIS_SCF
    atoms 1 entry SI         line   445 file /Users/joseantoniorodriguesromero/anaconda3/share/psi4/basis/cc-pvdz-jkfit.gbs 
    atoms 2 entry CL         line   667 file /Users/joseantoniorodriguesromero/anaconda3/share/psi4/basis/cc-pvdz-jkfit.gbs 

   => Loading Basis Set <=

    Name: CC-PVDZ
    Role: ORBITAL
    Keyword: BASIS
    atoms 1 entry SI         line   478 file /Users/joseantoniorodriguesromero/anaconda3/share/psi4/basis/cc-pvdz.gbs 
    atoms 2 entry CL         line   658 file /Users/joseantoniorodriguesromero/anaconda3/share/psi4/basis/cc-pvdz.gbs 

  Reading orbitals from file /tmp/triplet_SiCl.default.75577.180.npy, no projection.

  ==> Integral Setup <==

  DFHelper Memory: AOs need 0.003 GiB; user supplied 0.324 GiB. 
  Using in-core AOs.

  ==> MemDFJK: Density-Fitted J/K Matrices <==

    J tasked:                   Yes
    K tasked:                   Yes
    wK tasked:                   No
    OpenMP threads:               1
    Memory [MiB]:               332
    Algorithm:                 Core
    Schwarz Cutoff:           1E-12
    Mask sparsity (%):       0.0000
    Fitting Condition:        1E-10

   => Auxiliary Basis Set <=

  Basis Set: (CC-PVDZ AUX)
    Blend: CC-PVDZ-JKFIT
    Number of shells: 72
    Number of basis functions: 224
    Number of Cartesian functions: 260
    Spherical Harmonics?: true
    Max angular momentum: 3

  Cached 100.0% of DFT collocation blocks in 0.042 [GiB].

  Minimum eigenvalue in the overlap matrix is 2.6814313214E-02.
  Reciprocal condition number of the overlap matrix is 9.4690746830E-03.
    Using symmetric orthogonalization.

  ==> Pre-Iterations <==

  SCF Guess: Orbitals guess was supplied from a previous computation.

   -------------------------------------------------------
    Irrep   Nso     Nmo     Nalpha   Nbeta   Ndocc  Nsocc
   -------------------------------------------------------
     A1        18      18       9       8       8       1
     A2         2       2       0       0       0       0
     B1         8       8       3       3       3       0
     B2         8       8       4       3       3       1
   -------------------------------------------------------
    Total      36      36      16      14      14       2
   -------------------------------------------------------

  ==> Iterations <==

                           Total Energy        Delta E     RMS |[F,P]|

   @DF-UKS iter   0:  -749.28574115462015   -7.49286e+02   7.74167e-05 
   @DF-UKS iter   1:  -749.28629846125659   -5.57307e-04   1.46342e-05 DIIS
   @DF-UKS iter   2:  -749.28629841531028    4.59463e-08   2.03368e-05 DIIS/DAMP=1%
   @DF-UKS iter   3:  -749.28627784032051    2.05750e-05   3.82109e-06 DIIS/DAMP=1%
   @DF-UKS iter   4:  -749.28629912153542   -2.12812e-05   1.11534e-06 DIIS/DAMP=1%
   @DF-UKS iter   5:  -749.28629783256292    1.28897e-06   1.55825e-07 DIIS/DAMP=1%
   @DF-UKS iter   6:  -749.28629865973141   -8.27168e-07   2.63504e-08 DIIS/DAMP=1%
   @DF-UKS iter   7:  -749.28629854004100    1.19690e-07   5.78917e-09 DIIS/DAMP=1%
   @DF-UKS iter   8:  -749.28629854927010   -9.22910e-09   1.48610e-09 DIIS/DAMP=1%
  Energy and wave function converged.


  ==> Post-Iterations <==

   Electrons on quadrature grid:
      Nalpha   =   16.0000001653 ; deviation = 1.653e-07
      Nbeta    =   14.0000002132 ; deviation = 2.132e-07
      Ntotal   =   30.0000003785 ; deviation = 3.785e-07 

   @Spin Contamination Metric:   4.141672825E-03
   @S^2 Expected:                2.000000000E+00
   @S^2 Observed:                2.004141673E+00
   @S   Expected:                1.000000000E+00
   @S   Observed:                1.000000000E+00

    Orbital Energies [Eh]
    ---------------------

    Alpha Occupied:                                                       

       1A1  -101.844994     2A1   -66.530393     3A1    -9.761911  
       4A1    -7.527856     1B1    -7.514872     1B2    -7.513472  
       5A1    -5.666755     2B1    -4.027649     6A1    -4.026343  
       2B2    -4.023205     7A1    -1.125370     8A1    -0.788863  
       9A1    -0.638436     3B2    -0.621474     3B1    -0.619004  
       4B2    -0.454771  

    Alpha Virtual:                                                        

       4B1    -0.387505    10A1    -0.261125    11A1    -0.033716  
       5B2     0.024948    12A1     0.027618     5B1     0.029762  
       1A2     0.049012    13A1     0.054221     6B2     0.066287  
       6B1     0.071203    14A1     0.147532     7B1     0.327025  
       7B2     0.330189    15A1     0.406040     2A2     0.460361  
      16A1     0.460523    17A1     0.514596     8B1     0.575373  
       8B2     0.575690    18A1     0.968700  

    Beta Occupied:                                                        

       1A1  -101.841830     2A1   -66.522711     3A1    -9.758850  
       4A1    -7.519036     1B1    -7.513312     1B2    -7.509825  
       5A1    -5.656810     2B1    -4.021616     6A1    -4.016931  
       2B2    -4.005837     7A1    -1.103423     8A1    -0.734588  
       3B1    -0.613078     3B2    -0.602591  

    Beta Virtual:                                                         

       9A1    -0.511239     4B1    -0.351744     4B2    -0.319615  
      10A1    -0.219961    11A1    -0.021234     5B1     0.045884  
      12A1     0.058980     5B2     0.067455     6B1     0.100084  
      13A1     0.111965     1A2     0.112345     6B2     0.124199  
      14A1     0.178077     7B1     0.331374     7B2     0.338303  
      15A1     0.436463    16A1     0.468529     2A2     0.468541  
      17A1     0.533611     8B1     0.596065     8B2     0.608547  
      18A1     0.984201  

    Final Occupation by Irrep:
             A1    A2    B1    B2 
    DOCC [     8,    0,    3,    3 ]
    SOCC [     1,    0,    0,    1 ]
    NA   [     9,    0,    3,    4 ]
    NB   [     8,    0,    3,    3 ]

  @DF-UKS Final Energy:  -749.28629854927010

   => Energetics <=

    Nuclear Repulsion Energy =             61.6786499451571189
    One-Electron Energy =               -1149.8381526591570037
    Two-Electron Energy =                 378.2128278062932623
    DFT Exchange-Correlation Energy =     -39.3396236415634846
    Empirical Dispersion Energy =           0.0000000000000000
    VV10 Nonlocal Energy =                  0.0000000000000000
    Total Energy =                       -749.2862985492701000

  UHF NO Occupations:
  HONO-2 :    8 A1 1.9985956
  HONO-1 :    9 A1 1.0000000
  HONO-0 :    4 B2 1.0000000
  LUNO+0 :   10 A1 0.0014044
  LUNO+1 :    4 B1 0.0003951
  LUNO+2 :    5 B2 0.0001720
  LUNO+3 :   11 A1 0.0000998


Computation Completed


Properties will be evaluated at   0.000000,   0.000000,   0.000000 [a0]

Properties computed using the SCF density matrix


 Multipole Moments:

 ------------------------------------------------------------------------------------
     Multipole            Electronic (a.u.)      Nuclear  (a.u.)        Total (a.u.)
 ------------------------------------------------------------------------------------

 L = 1.  Multiply by 2.5417464519 to convert [e a0] to [Debye]
 Dipole X            :          0.0000000            0.0000000            0.0000000
 Dipole Y            :          0.0000000            0.0000000            0.0000000
 Dipole Z            :          0.6811989            0.8555438            1.5367427
 Magnitude           :                                                    1.5367427

 ------------------------------------------------------------------------------------

*** tstop() called on Joses-MacBook-Pro-2.local at Thu Jul 17 15:42:41 2025
Module time:
	user time   =       7.03 seconds =       0.12 minutes
	system time =       1.96 seconds =       0.03 minutes
	total time  =          1 seconds =       0.02 minutes
Total time:
	user time   =     190.78 seconds =       3.18 minutes
	system time =      51.16 seconds =       0.85 minutes
	total time  =         23 seconds =       0.38 minutes

*** tstart() called on Joses-MacBook-Pro-2.local
*** at Thu Jul 17 15:42:41 2025


         ------------------------------------------------------------
                                   SCF GRAD                          
                          Rob Parrish, Justin Turney,                
                       Andy Simmonett, and Alex Sokolov              
         ------------------------------------------------------------

  ==> Geometry <==

    Molecular point group: c2v
    Full point group: C_inf_v

    Geometry (in Angstrom), charge = 1, multiplicity = 3:

       Center              X                  Y                   Z               Mass       
    ------------   -----------------  -----------------  -----------------  -----------------
         SI           0.000000000000     0.000000000000     1.134378535014    27.976926534650
         CL           0.000000000000     0.000000000000    -0.907562659410    34.968852682000

  Nuclear repulsion =   61.678649945157126

  ==> Basis Set <==

  Basis Set: CC-PVDZ
    Blend: CC-PVDZ
    Number of shells: 16
    Number of basis functions: 36
    Number of Cartesian functions: 38
    Spherical Harmonics?: true
    Max angular momentum: 2

  ==> DFJKGrad: Density-Fitted SCF Gradients <==

    Gradient:                    1
    J tasked:                  Yes
    K tasked:                  Yes
    wK tasked:                  No
    OpenMP threads:              1
    Integrals threads:           1
    Memory [MiB]:              375
    Schwarz Cutoff:          1E-12
    Fitting Condition:       1E-10

   => Auxiliary Basis Set <=

  Basis Set: (CC-PVDZ AUX)
    Blend: CC-PVDZ-JKFIT
    Number of shells: 72
    Number of basis functions: 224
    Number of Cartesian functions: 260
    Spherical Harmonics?: true
    Max angular momentum: 3

  ==> DFT Potential <==

   => LibXC <=

    Version 6.2.2
    S. Lehtola, C. Steigemann, M. J.T. Oliveira, and M. A.L. Marques.,  SoftwareX 7, 1–5 (2018) (10.1016/j.softx.2017.11.002)

   => Composite Functional: B3LYP <= 

    B3LYP Hyb-GGA Exchange-Correlation Functional

    P. J. Stephens, F. J. Devlin, C. F. Chabalowski, and M. J. Frisch.,  J. Phys. Chem. 98, 11623 (1994) (10.1021/j100096a001)

    Deriv               =              1
    GGA                 =           TRUE
    Meta                =          FALSE

    Exchange Hybrid     =           TRUE
    MP2 Hybrid          =          FALSE

   => Exchange Functionals <=

    0.0800   Slater exchange
    0.7200         Becke 88

   => Exact (HF) Exchange <=

    0.2000               HF 

   => Correlation Functionals <=

    0.1900   Vosko, Wilk & Nusair (VWN5_RPA)
    0.8100   Lee, Yang & Parr

   => LibXC Density Thresholds  <==

    XC_HYB_GGA_XC_B3LYP:  1.00E-15 

   => Molecular Quadrature <=

    Radial Scheme          =       TREUTLER
    Pruning Scheme         =           NONE
    Nuclear Scheme         =       TREUTLER

    Blocking Scheme        =         OCTREE
    BS radius alpha        =              1
    Pruning alpha          =              1
    Radial Points          =             75
    Spherical Points       =            302
    Total Points           =          41591
    Total Blocks           =            383
    Max Points             =            255
    Max Functions          =             36
    Weights Tolerance      =       1.00E-15


  -Total Gradient:
     Atom            X                  Y                   Z
    ------   -----------------  -----------------  -----------------
       1        0.000000000000    -0.000000000000    -0.000032909335
       2        0.000000000000    -0.000000000000     0.000059290514


*** tstop() called on Joses-MacBook-Pro-2.local at Thu Jul 17 15:42:41 2025
Module time:
	user time   =       2.58 seconds =       0.04 minutes
	system time =       1.37 seconds =       0.02 minutes
	total time  =          0 seconds =       0.00 minutes
Total time:
	user time   =     193.36 seconds =       3.22 minutes
	system time =      52.53 seconds =       0.88 minutes
	total time  =         23 seconds =       0.38 minutes

    			-----------------------------------------

    			 OPTKING 3.0: for geometry optimizations 

    			     By R.A. King, Bethel University     

    			        with contributions from          

    			    A.V. Copan, J. Cayton, A. Heide      

    			-----------------------------------------

    
	                            ===> Fragment 1 <== 

	 Z (Atomic Numbers)          Masses                          Geom                  
	      14.000000            27.976927          0.00000000  0.00000000  2.14366475   
	      17.000000            34.968853          0.00000000  0.00000000 -1.71504487   

	 - Coordinate -           - BOHR/RAD -       - ANG/DEG -
	 R(1,2)           =         3.858710           2.041941


	        --- Internal Coordinate Step in ANG or DEG, aJ/ANG or AJ/DEG ---
	-------------------------------------------------------------------------------
	           Coordinate      Previous         Force          Change          New 
	           ----------      --------        ------          ------        ------
	               R(1,2)       2.04194        0.00038        0.00014       2.04208
	-------------------------------------------------------------------------------

	                                 ==> Convergence Check <==                                  
    
	Measures of convergence in internal coordinates in au.
    
	Criteria marked as inactive (o), active & met (*), and active & unmet ( ).

	----------------------------------------------------------------------------------------------
	   Step    Total Energy     Delta E     Max Force     RMS Force      Max Disp      RMS Disp   
	----------------------------------------------------------------------------------------------
	  Convergence Criteria     1.00e-06 *    3.00e-04 *             o    1.20e-03 *             o
	----------------------------------------------------------------------------------------------
	    16    -749.28629855   -2.92e-07 *    4.61e-05 *    4.61e-05 o    2.72e-04 *    2.72e-04 o  ~
	----------------------------------------------------------------------------------------------

Next Geometry in Ang 
	Fragment 1 (Ang)

	   Si   0.0000000000   0.0000000000   1.1344504367
	   Cl   0.0000000000   0.0000000000  -0.9076345611


    Final optimized geometry and variables:
    Molecular point group: c2v
    Full point group: C_inf_v

    Geometry (in Angstrom), charge = 1, multiplicity = 3:

    SI           0.000000000000     0.000000000000     1.134378535014
    CL           0.000000000000     0.000000000000    -0.907562659410


    Psi4 stopped on: Thursday, 17 July 2025 03:42PM
    Psi4 wall time for execution: 0:00:23.89

*** Psi4 exiting successfully. Buy a developer a beer!
