
    -----------------------------------------------------------------------
          Psi4: An Open-Source Ab Initio Electronic Structure Package
                               Psi4 1.9.1 release

                         Git: Rev {} zzzzzzz 


    D. G. A. Smith, L. A. Burns, A. C. Simmonett, R. M. Parrish,
    M. C. Schieber, R. Galvelis, P. Kraus, H. Kruse, R. Di Remigio,
    A. Alenaizan, A. M. James, S. Lehtola, J. P. Misiewicz, M. Scheurer,
    R. A. Shaw, J. B. Schriber, Y. Xie, Z. L. Glick, D. A. Sirianni,
    J. S. O'Brien, J. M. Waldrop, A. Kumar, E. G. Hohenstein,
    B. P. Pritchard, B. R. Brooks, H. F. Schaefer III, A. Yu. Sokolov,
    K. Patkowski, A. E. DePrince III, U. Bozkaya, R. A. King,
    F. A. Evangelista, J. M. Turney, T. D. Crawford, C. D. Sherrill,
    J. Chem. Phys. 152(18) 184108 (2020). https://doi.org/10.1063/5.0006002

                            Additional Code Authors
    E. T. Seidl, C. L. Janssen, E. F. Valeev, M. L. Leininger,
    J. F. Gonthier, R. M. Richard, H. R. McAlexander, M. Saitow, X. Wang,
    P. Verma, M. H. Lechner, A. Jiang, S. Behnle, A. G. Heide,
    M. F. Herbst, and D. L. Poole

             Previous Authors, Complete List of Code Contributors,
                       and Citations for Specific Modules
    https://github.com/psi4/psi4/blob/master/codemeta.json
    https://github.com/psi4/psi4/graphs/contributors
    http://psicode.org/psi4manual/master/introduction.html#citing-psifour

    -----------------------------------------------------------------------


    Psi4 started on: Saturday, 25 January 2025 09:30PM

    Process ID: 7008
    Host:       Joses-MacBook-Pro-2.local
    PSIDATADIR: /Users/joseantoniorodriguesromero/anaconda3/share/psi4
    Memory:     500.0 MiB
    Threads:    1
    
  ==> Input File <==

--------------------------------------------------------------------------
molecule { 
-1 6
S           0.000000           0.000000           0.000000
}

set { 
basis              cc-pvtz
reference          uks
maxiter            500
DAMPING_PERCENTAGE 1
E_CONVERGENCE      1.0E-8
D_CONVERGENCE      1.0E-8
DIIS_MAX_VECS      400
MBIS_MAXITER       8000
guess              SAP
}

energy('b3lyp')
--------------------------------------------------------------------------

Scratch directory: /tmp/
   => Libint2 <=

    Primary   basis highest AM E, G, H:  6, 6, 3
    Auxiliary basis highest AM E, G, H:  7, 7, 4
    Onebody   basis highest AM E, G, H:  -, -, -
    Solid Harmonics ordering:            Gaussian

*** tstart() called on Joses-MacBook-Pro-2.local
*** at Sat Jan 25 21:30:25 2025

   => Loading Basis Set <=

    Name: CC-PVTZ
    Role: ORBITAL
    Keyword: BASIS
    atoms 1 entry S          line   773 file /Users/joseantoniorodriguesromero/anaconda3/share/psi4/basis/cc-pvtz.gbs 


         ---------------------------------------------------------
                                   SCF
               by Justin Turney, Rob Parrish, Andy Simmonett
                          and Daniel G. A. Smith
                              UKS Reference
                        1 Threads,    500 MiB Core
         ---------------------------------------------------------

  ==> Geometry <==

    Molecular point group: d2h
    Geometry (in Angstrom), charge = -1, multiplicity = 6:

       Center              X                  Y                   Z               Mass       
    ------------   -----------------  -----------------  -----------------  -----------------
         S            0.000000000000     0.000000000000     0.000000000000    31.972071174400

  Running in d2h symmetry.

  Rotational constants: A = ************  B = ************  C = ************ [cm^-1]
  Rotational constants: A = ************  B = ************  C = ************ [MHz]
  Nuclear repulsion =    0.000000000000000

  Charge       = -1
  Multiplicity = 6
  Electrons    = 17
  Nalpha       = 11
  Nbeta        = 6

  ==> Algorithm <==

  SCF Algorithm Type is DF.
  DIIS enabled.
  MOM disabled.
  Fractional occupation disabled.
  Guess Type is SAP.
  Energy threshold   = 1.00e-08
  Density threshold  = 1.00e-08
  Integral threshold = 1.00e-12

  ==> Primary Basis <==

  Basis Set: CC-PVTZ
    Blend: CC-PVTZ
    Number of shells: 12
    Number of basis functions: 34
    Number of Cartesian functions: 39
    Spherical Harmonics?: true
    Max angular momentum: 3

  ==> DFT Potential <==

   => LibXC <=

    Version 6.2.2
    S. Lehtola, C. Steigemann, M. J.T. Oliveira, and M. A.L. Marques.,  SoftwareX 7, 1–5 (2018) (10.1016/j.softx.2017.11.002)

   => Composite Functional: B3LYP <= 

    B3LYP Hyb-GGA Exchange-Correlation Functional

    P. J. Stephens, F. J. Devlin, C. F. Chabalowski, and M. J. Frisch.,  J. Phys. Chem. 98, 11623 (1994) (10.1021/j100096a001)

    Deriv               =              1
    GGA                 =           TRUE
    Meta                =          FALSE

    Exchange Hybrid     =           TRUE
    MP2 Hybrid          =          FALSE

   => Exchange Functionals <=

    0.0800   Slater exchange
    0.7200         Becke 88

   => Exact (HF) Exchange <=

    0.2000               HF 

   => Correlation Functionals <=

    0.1900   Vosko, Wilk & Nusair (VWN5_RPA)
    0.8100   Lee, Yang & Parr

   => LibXC Density Thresholds  <==

    XC_HYB_GGA_XC_B3LYP:  1.00E-15 

   => Molecular Quadrature <=

    Radial Scheme          =       TREUTLER
    Pruning Scheme         =           NONE
    Nuclear Scheme         =       TREUTLER

    Blocking Scheme        =         OCTREE
    BS radius alpha        =              1
    Pruning alpha          =              1
    Radial Points          =             75
    Spherical Points       =            302
    Total Points           =          20536
    Total Blocks           =            212
    Max Points             =            254
    Max Functions          =             34
    Weights Tolerance      =       1.00E-15

   => Loading Basis Set <=

    Name: (CC-PVTZ AUX)
    Role: JKFIT
    Keyword: DF_BASIS_SCF
    atoms 1 entry S          line   613 file /Users/joseantoniorodriguesromero/anaconda3/share/psi4/basis/cc-pvtz-jkfit.gbs 

  ==> Integral Setup <==

  DFHelper Memory: AOs need 0.001 GiB; user supplied 0.346 GiB. 
  Using in-core AOs.

  ==> MemDFJK: Density-Fitted J/K Matrices <==

    J tasked:                   Yes
    K tasked:                   Yes
    wK tasked:                   No
    OpenMP threads:               1
    Memory [MiB]:               354
    Algorithm:                 Core
    Schwarz Cutoff:           1E-12
    Mask sparsity (%):       0.0000
    Fitting Condition:        1E-10

   => Auxiliary Basis Set <=

  Basis Set: (CC-PVTZ AUX)
    Blend: CC-PVTZ-JKFIT
    Number of shells: 37
    Number of basis functions: 121
    Number of Cartesian functions: 145
    Spherical Harmonics?: true
    Max angular momentum: 4

  Cached 100.0% of DFT collocation blocks in 0.020 [GiB].

  Minimum eigenvalue in the overlap matrix is 1.9645749006E-02.
  Reciprocal condition number of the overlap matrix is 8.7186139753E-03.
    Using symmetric orthogonalization.

  ==> Pre-Iterations <==

  SCF Guess: Superposition of Atomic Potentials (doi:10.1021/acs.jctc.8b01089).

  ==> SAP guess <==

   => Molecular Quadrature <=

    Radial Scheme          =       TREUTLER
    Pruning Scheme         =           NONE
    Nuclear Scheme         =       TREUTLER

    Blocking Scheme        =         OCTREE
    BS radius alpha        =              1
    Pruning alpha          =              1
    Radial Points          =             75
    Spherical Points       =            302
    Total Points           =          20536
    Total Blocks           =            212
    Max Points             =            254
    Max Functions          =             34
    Weights Tolerance      =       1.00E-15

   -------------------------------------------------------
    Irrep   Nso     Nmo     Nalpha   Nbeta   Ndocc  Nsocc
   -------------------------------------------------------
     Ag         9       9       3       3       3       0
     B1g        2       2       0       0       0       0
     B2g        2       2       0       0       0       0
     B3g        2       2       0       0       0       0
     Au         1       1       0       0       0       0
     B1u        6       6       3       1       1       2
     B2u        6       6       3       1       1       2
     B3u        6       6       2       1       1       1
   -------------------------------------------------------
    Total      34      34      11       6       6       5
   -------------------------------------------------------

  ==> Iterations <==

                           Total Energy        Delta E     RMS |[F,P]|

   @DF-UKS iter   1:  -397.37460147831808   -3.97375e+02   1.26262e-02 DIIS/ADIIS
   @DF-UKS iter   2:  -397.37873862762387   -4.13715e-03   2.71338e-03 DIIS/ADIIS/DAMP=1%
   @DF-UKS iter   3:  -397.38031161870970   -1.57299e-03   4.16213e-04 DIIS/ADIIS/DAMP=1%
   @DF-UKS iter   4:  -397.37881104764114    1.50057e-03   2.72823e-05 DIIS/DAMP=1%
   @DF-UKS iter   5:  -397.37903666870409   -2.25621e-04   3.51099e-06 DIIS/DAMP=1%
   @DF-UKS iter   6:  -397.37902101136956    1.56573e-05   1.41522e-07 DIIS/DAMP=1%
   @DF-UKS iter   7:  -397.37902307225499   -2.06089e-06   1.44511e-08 DIIS/DAMP=1%
   @DF-UKS iter   8:  -397.37902307519539   -2.94040e-09   1.78868e-09 DIIS/DAMP=1%
  Energy and wave function converged.


  ==> Post-Iterations <==

   Electrons on quadrature grid:
      Nalpha   =   10.9999999783 ; deviation = -2.168e-08
      Nbeta    =    5.9999999783 ; deviation = -2.167e-08
      Ntotal   =   16.9999999566 ; deviation = -4.336e-08 

   @Spin Contamination Metric:   1.253878844E-03
   @S^2 Expected:                8.750000000E+00
   @S^2 Observed:                8.751253879E+00
   @S   Expected:                2.500000000E+00
   @S   Observed:                2.500000000E+00

    Orbital Energies [Eh]
    ---------------------

    Alpha Occupied:                                                       

       1Ag   -88.742323     2Ag    -7.795309     1B3u   -5.762146  
       1B2u   -5.759885     1B1u   -5.759885     3Ag    -0.550999  
       2B3u   -0.144272     2B1u   -0.139632     2B2u   -0.139632  
       3B2u    0.380392     3B1u    0.380392  

    Alpha Virtual:                                                        

       3B3u    0.434858     4Ag     0.471437     5Ag     0.507313  
       1B2g    0.509075     1B1g    0.509075     1B3g    0.520547  
       6Ag     0.520547     2B1g    1.646145     2B2g    1.646145  
       7Ag     1.646822     2B3g    1.648275     8Ag     1.648275  
       4B3u    1.781821     4B1u    1.783660     4B2u    1.783660  
       1Au     1.789458     5B3u    1.789458     5B2u    1.799638  
       5B1u    1.799638     6B3u    2.052266     6B1u    2.058162  
       6B2u    2.058162     9Ag     3.420182  

    Beta Occupied:                                                        

       1Ag   -88.720562     2Ag    -7.773369     1B3u   -5.734301  
       1B2u   -5.724460     1B1u   -5.724460     3Ag    -0.396281  

    Beta Virtual:                                                         

       2B3u    0.026975     2B1u    0.049924     2B2u    0.049924  
       3B3u    0.497890     3B2u    0.521399     3B1u    0.521399  
       4Ag     0.553552     5Ag     0.596835     1B2g    0.600452  
       1B1g    0.600452     1B3g    0.616528     6Ag     0.616528  
       7Ag     1.731970     2B2g    1.736994     2B1g    1.736994  
       2B3g    1.754028     8Ag     1.754028     4B3u    1.874757  
       4B1u    1.877040     4B2u    1.877040     1Au     1.884088  
       5B3u    1.884088     5B2u    1.896121     5B1u    1.896121  
       6B3u    2.113465     6B1u    2.131743     6B2u    2.131743  
       9Ag     3.482095  

    Final Occupation by Irrep:
             Ag   B1g   B2g   B3g    Au   B1u   B2u   B3u 
    DOCC [     3,    0,    0,    0,    0,    1,    1,    1 ]
    SOCC [     0,    0,    0,    0,    0,    2,    2,    1 ]
    NA   [     3,    0,    0,    0,    0,    3,    3,    2 ]
    NB   [     3,    0,    0,    0,    0,    1,    1,    1 ]

  @DF-UKS Final Energy:  -397.37902307519539

   => Energetics <=

    Nuclear Repulsion Energy =              0.0000000000000000
    One-Electron Energy =                -551.8739103571804208
    Two-Electron Energy =                 175.2787654050480057
    DFT Exchange-Correlation Energy =     -20.7838781230630083
    Empirical Dispersion Energy =           0.0000000000000000
    VV10 Nonlocal Energy =                  0.0000000000000000
    Total Energy =                       -397.3790230751953914

  UHF NO Occupations:
  HONO-2 :    3B2u 1.0000000
  HONO-1 :    2B3u 1.0000000
  HONO-0 :    3B1u 1.0000000
  LUNO+0 :    4 Ag 0.0006261
  LUNO+1 :    4B1u 0.0000003
  LUNO+2 :    4B2u 0.0000003
  LUNO+3 :    3B3u 0.0000003


Computation Completed


Properties will be evaluated at   0.000000,   0.000000,   0.000000 [a0]

Properties computed using the SCF density matrix


 Multipole Moments:

 ------------------------------------------------------------------------------------
     Multipole            Electronic (a.u.)      Nuclear  (a.u.)        Total (a.u.)
 ------------------------------------------------------------------------------------

 L = 1.  Multiply by 2.5417464519 to convert [e a0] to [Debye]
 Dipole X            :          0.0000000            0.0000000            0.0000000
 Dipole Y            :          0.0000000            0.0000000            0.0000000
 Dipole Z            :          0.0000000            0.0000000            0.0000000
 Magnitude           :                                                    0.0000000

 ------------------------------------------------------------------------------------

*** tstop() called on Joses-MacBook-Pro-2.local at Sat Jan 25 21:30:25 2025
Module time:
	user time   =       3.19 seconds =       0.05 minutes
	system time =       1.03 seconds =       0.02 minutes
	total time  =          0 seconds =       0.00 minutes
Total time:
	user time   =       3.19 seconds =       0.05 minutes
	system time =       1.03 seconds =       0.02 minutes
	total time  =          0 seconds =       0.00 minutes

    Psi4 stopped on: Saturday, 25 January 2025 09:30PM
    Psi4 wall time for execution: 0:00:00.47

*** Psi4 exiting successfully. Buy a developer a beer!
