
    -----------------------------------------------------------------------
          Psi4: An Open-Source Ab Initio Electronic Structure Package
                               Psi4 1.9.1 release

                         Git: Rev {} zzzzzzz 


    D. G. A. Smith, L. A. Burns, A. C. Simmonett, R. M. Parrish,
    M. C. Schieber, R. Galvelis, P. Kraus, H. Kruse, R. Di Remigio,
    A. Alenaizan, A. M. James, S. Lehtola, J. P. Misiewicz, M. Scheurer,
    R. A. Shaw, J. B. Schriber, Y. Xie, Z. L. Glick, D. A. Sirianni,
    J. S. O'Brien, J. M. Waldrop, A. Kumar, E. G. Hohenstein,
    B. P. Pritchard, B. R. Brooks, H. F. Schaefer III, A. Yu. Sokolov,
    K. Patkowski, A. E. DePrince III, U. Bozkaya, R. A. King,
    F. A. Evangelista, J. M. Turney, T. D. Crawford, C. D. Sherrill,
    J. Chem. Phys. 152(18) 184108 (2020). https://doi.org/10.1063/5.0006002

                            Additional Code Authors
    E. T. Seidl, C. L. Janssen, E. F. Valeev, M. L. Leininger,
    J. F. Gonthier, R. M. Richard, H. R. McAlexander, M. Saitow, X. Wang,
    P. Verma, M. H. Lechner, A. Jiang, S. Behnle, A. G. Heide,
    M. F. Herbst, and D. L. Poole

             Previous Authors, Complete List of Code Contributors,
                       and Citations for Specific Modules
    https://github.com/psi4/psi4/blob/master/codemeta.json
    https://github.com/psi4/psi4/graphs/contributors
    http://psicode.org/psi4manual/master/introduction.html#citing-psifour

    -----------------------------------------------------------------------


    Psi4 started on: Saturday, 25 January 2025 09:29PM

    Process ID: 6937
    Host:       Joses-MacBook-Pro-2.local
    PSIDATADIR: /Users/joseantoniorodriguesromero/anaconda3/share/psi4
    Memory:     500.0 MiB
    Threads:    1
    
  ==> Input File <==

--------------------------------------------------------------------------
molecule { 
-1 1
N           0.000000           0.000000           0.000000
}

set { 
basis              cc-pvtz
reference          uks
maxiter            500
DAMPING_PERCENTAGE 1
E_CONVERGENCE      1.0E-8
D_CONVERGENCE      1.0E-8
DIIS_MAX_VECS      400
MBIS_MAXITER       8000
guess              SAP
}

energy('b3lyp')
--------------------------------------------------------------------------

Scratch directory: /tmp/
   => Libint2 <=

    Primary   basis highest AM E, G, H:  6, 6, 3
    Auxiliary basis highest AM E, G, H:  7, 7, 4
    Onebody   basis highest AM E, G, H:  -, -, -
    Solid Harmonics ordering:            Gaussian

*** tstart() called on Joses-MacBook-Pro-2.local
*** at Sat Jan 25 21:29:45 2025

   => Loading Basis Set <=

    Name: CC-PVTZ
    Role: ORBITAL
    Keyword: BASIS
    atoms 1 entry N          line   224 file /Users/joseantoniorodriguesromero/anaconda3/share/psi4/basis/cc-pvtz.gbs 


         ---------------------------------------------------------
                                   SCF
               by Justin Turney, Rob Parrish, Andy Simmonett
                          and Daniel G. A. Smith
                              UKS Reference
                        1 Threads,    500 MiB Core
         ---------------------------------------------------------

  ==> Geometry <==

    Molecular point group: d2h
    Geometry (in Angstrom), charge = -1, multiplicity = 1:

       Center              X                  Y                   Z               Mass       
    ------------   -----------------  -----------------  -----------------  -----------------
         N            0.000000000000     0.000000000000     0.000000000000    14.003074004430

  Running in d2h symmetry.

  Rotational constants: A = ************  B = ************  C = ************ [cm^-1]
  Rotational constants: A = ************  B = ************  C = ************ [MHz]
  Nuclear repulsion =    0.000000000000000

  Charge       = -1
  Multiplicity = 1
  Electrons    = 8
  Nalpha       = 4
  Nbeta        = 4

  ==> Algorithm <==

  SCF Algorithm Type is DF.
  DIIS enabled.
  MOM disabled.
  Fractional occupation disabled.
  Guess Type is SAP.
  Energy threshold   = 1.00e-08
  Density threshold  = 1.00e-08
  Integral threshold = 1.00e-12

  ==> Primary Basis <==

  Basis Set: CC-PVTZ
    Blend: CC-PVTZ
    Number of shells: 10
    Number of basis functions: 30
    Number of Cartesian functions: 35
    Spherical Harmonics?: true
    Max angular momentum: 3

  ==> DFT Potential <==

   => LibXC <=

    Version 6.2.2
    S. Lehtola, C. Steigemann, M. J.T. Oliveira, and M. A.L. Marques.,  SoftwareX 7, 1–5 (2018) (10.1016/j.softx.2017.11.002)

   => Composite Functional: B3LYP <= 

    B3LYP Hyb-GGA Exchange-Correlation Functional

    P. J. Stephens, F. J. Devlin, C. F. Chabalowski, and M. J. Frisch.,  J. Phys. Chem. 98, 11623 (1994) (10.1021/j100096a001)

    Deriv               =              1
    GGA                 =           TRUE
    Meta                =          FALSE

    Exchange Hybrid     =           TRUE
    MP2 Hybrid          =          FALSE

   => Exchange Functionals <=

    0.0800   Slater exchange
    0.7200         Becke 88

   => Exact (HF) Exchange <=

    0.2000               HF 

   => Correlation Functionals <=

    0.1900   Vosko, Wilk & Nusair (VWN5_RPA)
    0.8100   Lee, Yang & Parr

   => LibXC Density Thresholds  <==

    XC_HYB_GGA_XC_B3LYP:  1.00E-15 

   => Molecular Quadrature <=

    Radial Scheme          =       TREUTLER
    Pruning Scheme         =           NONE
    Nuclear Scheme         =       TREUTLER

    Blocking Scheme        =         OCTREE
    BS radius alpha        =              1
    Pruning alpha          =              1
    Radial Points          =             75
    Spherical Points       =            302
    Total Points           =          21140
    Total Blocks           =            215
    Max Points             =            256
    Max Functions          =             30
    Weights Tolerance      =       1.00E-15

   => Loading Basis Set <=

    Name: (CC-PVTZ AUX)
    Role: JKFIT
    Keyword: DF_BASIS_SCF
    atoms 1 entry N          line   177 file /Users/joseantoniorodriguesromero/anaconda3/share/psi4/basis/cc-pvtz-jkfit.gbs 

  ==> Integral Setup <==

  DFHelper Memory: AOs need 0.001 GiB; user supplied 0.348 GiB. 
  Using in-core AOs.

  ==> MemDFJK: Density-Fitted J/K Matrices <==

    J tasked:                   Yes
    K tasked:                   Yes
    wK tasked:                   No
    OpenMP threads:               1
    Memory [MiB]:               356
    Algorithm:                 Core
    Schwarz Cutoff:           1E-12
    Mask sparsity (%):       0.0000
    Fitting Condition:        1E-10

   => Auxiliary Basis Set <=

  Basis Set: (CC-PVTZ AUX)
    Blend: CC-PVTZ-JKFIT
    Number of shells: 25
    Number of basis functions: 79
    Number of Cartesian functions: 96
    Spherical Harmonics?: true
    Max angular momentum: 4

  Cached 100.0% of DFT collocation blocks in 0.018 [GiB].

  Minimum eigenvalue in the overlap matrix is 4.2232573083E-02.
  Reciprocal condition number of the overlap matrix is 1.8784164107E-02.
    Using symmetric orthogonalization.

  ==> Pre-Iterations <==

  SCF Guess: Superposition of Atomic Potentials (doi:10.1021/acs.jctc.8b01089).

  ==> SAP guess <==

   => Molecular Quadrature <=

    Radial Scheme          =       TREUTLER
    Pruning Scheme         =           NONE
    Nuclear Scheme         =       TREUTLER

    Blocking Scheme        =         OCTREE
    BS radius alpha        =              1
    Pruning alpha          =              1
    Radial Points          =             75
    Spherical Points       =            302
    Total Points           =          21140
    Total Blocks           =            215
    Max Points             =            256
    Max Functions          =             30
    Weights Tolerance      =       1.00E-15

   -------------------------------------------------------
    Irrep   Nso     Nmo     Nalpha   Nbeta   Ndocc  Nsocc
   -------------------------------------------------------
     Ag         8       8       2       2       2       0
     B1g        2       2       0       0       0       0
     B2g        2       2       0       0       0       0
     B3g        2       2       0       0       0       0
     Au         1       1       0       0       0       0
     B1u        5       5       1       1       1       0
     B2u        5       5       1       1       1       0
     B3u        5       5       0       0       0       0
   -------------------------------------------------------
    Total      30      30       4       4       4       0
   -------------------------------------------------------

  ==> Iterations <==

                           Total Energy        Delta E     RMS |[F,P]|

   @DF-UKS iter   1:   -54.42149421201162   -5.44215e+01   3.23345e-02 DIIS/ADIIS
   @DF-UKS iter   2:   -54.39094381130666    3.05504e-02   3.83558e-02 DIIS/ADIIS/DAMP=1%
   @DF-UKS iter   3:   -54.48907946871274   -9.81357e-02   7.17784e-04 DIIS/ADIIS/DAMP=1%
   @DF-UKS iter   4:   -54.50000278235606   -1.09233e-02   3.10147e-04 DIIS/ADIIS/DAMP=1%
   @DF-UKS iter   5:   -54.50008121629351   -7.84339e-05   7.55900e-06 DIIS/DAMP=1%
   @DF-UKS iter   6:   -54.50016116711964   -7.99508e-05   1.42404e-06 DIIS/DAMP=1%
   @DF-UKS iter   7:   -54.50016310262236   -1.93550e-06   4.80965e-08 DIIS/DAMP=1%
   @DF-UKS iter   8:   -54.50016347990955   -3.77287e-07   8.35013e-09 DIIS/DAMP=1%
   @DF-UKS iter   9:   -54.50016349102506   -1.11155e-08   4.91209e-10 DIIS/DAMP=1%
   @DF-UKS iter  10:   -54.50016349362533   -2.60027e-09   1.33180e-11 DIIS/DAMP=1%
  Energy and wave function converged.


  ==> Post-Iterations <==

   Electrons on quadrature grid:
      Nalpha   =    4.0000000000 ; deviation = 1.524e-11
      Nbeta    =    4.0000000000 ; deviation = 1.525e-11
      Ntotal   =    8.0000000000 ; deviation = 3.049e-11 

   @Spin Contamination Metric:  -4.440892099E-15
   @S^2 Expected:                0.000000000E+00
   @S^2 Observed:               -4.440892099E-15
   @S   Expected:                0.000000000E+00
   @S   Observed:                0.000000000E+00

    Orbital Energies [Eh]
    ---------------------

    Alpha Occupied:                                                       

       1Ag   -13.954516     2Ag    -0.296841     1B2u    0.137232  
       1B1u    0.137232  

    Alpha Virtual:                                                        

       1B3u    0.201138     2B3u    0.791597     2B2u    0.802094  
       2B1u    0.802094     3Ag     0.872681     4Ag     1.401003  
       1B2g    1.401825     1B1g    1.401825     1B3g    1.432418  
       5Ag     1.432418     3B3u    3.203739     3B2u    3.228147  
       3B1u    3.228147     4B3u    4.268128     4B1u    4.268355  
       4B2u    4.268355     5B3u    4.283841     1Au     4.283841  
       5B1u    4.322799     5B2u    4.322799     2B2g    4.823388  
       2B1g    4.823388     6Ag     4.829367     2B3g    4.857811  
       7Ag     4.857811     8Ag     5.600613  

    Beta Occupied:                                                        

       1Ag   -13.954516     2Ag    -0.296841     1B2u    0.137232  
       1B1u    0.137232  

    Beta Virtual:                                                         

       1B3u    0.201138     2B3u    0.791597     2B2u    0.802094  
       2B1u    0.802094     3Ag     0.872681     4Ag     1.401003  
       1B2g    1.401825     1B1g    1.401825     1B3g    1.432418  
       5Ag     1.432418     3B3u    3.203739     3B2u    3.228147  
       3B1u    3.228147     4B3u    4.268128     4B1u    4.268355  
       4B2u    4.268355     5B3u    4.283841     1Au     4.283841  
       5B1u    4.322799     5B2u    4.322799     2B2g    4.823388  
       2B1g    4.823388     6Ag     4.829367     2B3g    4.857811  
       7Ag     4.857811     8Ag     5.600613  

    Final Occupation by Irrep:
             Ag   B1g   B2g   B3g    Au   B1u   B2u   B3u 
    DOCC [     2,    0,    0,    0,    0,    1,    1,    0 ]
    SOCC [     0,    0,    0,    0,    0,    0,    0,    0 ]
    NA   [     2,    0,    0,    0,    0,    1,    1,    0 ]
    NB   [     2,    0,    0,    0,    0,    1,    1,    0 ]

  @DF-UKS Final Energy:   -54.50016349362533

   => Energetics <=

    Nuclear Repulsion Energy =              0.0000000000000000
    One-Electron Energy =                 -76.9541503283662109
    Two-Electron Energy =                  28.1301458729384031
    DFT Exchange-Correlation Energy =      -5.6761590381975191
    Empirical Dispersion Energy =           0.0000000000000000
    VV10 Nonlocal Energy =                  0.0000000000000000
    Total Energy =                        -54.5001634936253296

  UHF NO Occupations:
  HONO-2 :    1 Ag 2.0000000
  HONO-1 :    2 Ag 2.0000000
  HONO-0 :    1B1u 2.0000000
  LUNO+0 :    3 Ag 0.0000000
  LUNO+1 :    2B2u 0.0000000
  LUNO+2 :    2B1u 0.0000000
  LUNO+3 :    4 Ag 0.0000000


Computation Completed


Properties will be evaluated at   0.000000,   0.000000,   0.000000 [a0]

Properties computed using the SCF density matrix


 Multipole Moments:

 ------------------------------------------------------------------------------------
     Multipole            Electronic (a.u.)      Nuclear  (a.u.)        Total (a.u.)
 ------------------------------------------------------------------------------------

 L = 1.  Multiply by 2.5417464519 to convert [e a0] to [Debye]
 Dipole X            :          0.0000000            0.0000000            0.0000000
 Dipole Y            :          0.0000000            0.0000000            0.0000000
 Dipole Z            :          0.0000000            0.0000000            0.0000000
 Magnitude           :                                                    0.0000000

 ------------------------------------------------------------------------------------

*** tstop() called on Joses-MacBook-Pro-2.local at Sat Jan 25 21:29:46 2025
Module time:
	user time   =       2.29 seconds =       0.04 minutes
	system time =       2.31 seconds =       0.04 minutes
	total time  =          1 seconds =       0.02 minutes
Total time:
	user time   =       2.29 seconds =       0.04 minutes
	system time =       2.31 seconds =       0.04 minutes
	total time  =          1 seconds =       0.02 minutes

    Psi4 stopped on: Saturday, 25 January 2025 09:29PM
    Psi4 wall time for execution: 0:00:00.49

*** Psi4 exiting successfully. Buy a developer a beer!
