
    -----------------------------------------------------------------------
          Psi4: An Open-Source Ab Initio Electronic Structure Package
                               Psi4 1.9.1 release

                         Git: Rev {} zzzzzzz 


    D. G. A. Smith, L. A. Burns, A. C. Simmonett, R. M. Parrish,
    M. C. Schieber, R. Galvelis, P. Kraus, H. Kruse, R. Di Remigio,
    A. Alenaizan, A. M. James, S. Lehtola, J. P. Misiewicz, M. Scheurer,
    R. A. Shaw, J. B. Schriber, Y. Xie, Z. L. Glick, D. A. Sirianni,
    J. S. O'Brien, J. M. Waldrop, A. Kumar, E. G. Hohenstein,
    B. P. Pritchard, B. R. Brooks, H. F. Schaefer III, A. Yu. Sokolov,
    K. Patkowski, A. E. DePrince III, U. Bozkaya, R. A. King,
    F. A. Evangelista, J. M. Turney, T. D. Crawford, C. D. Sherrill,
    J. Chem. Phys. 152(18) 184108 (2020). https://doi.org/10.1063/5.0006002

                            Additional Code Authors
    E. T. Seidl, C. L. Janssen, E. F. Valeev, M. L. Leininger,
    J. F. Gonthier, R. M. Richard, H. R. McAlexander, M. Saitow, X. Wang,
    P. Verma, M. H. Lechner, A. Jiang, S. Behnle, A. G. Heide,
    M. F. Herbst, and D. L. Poole

             Previous Authors, Complete List of Code Contributors,
                       and Citations for Specific Modules
    https://github.com/psi4/psi4/blob/master/codemeta.json
    https://github.com/psi4/psi4/graphs/contributors
    http://psicode.org/psi4manual/master/introduction.html#citing-psifour

    -----------------------------------------------------------------------


    Psi4 started on: Saturday, 25 January 2025 09:30PM

    Process ID: 6968
    Host:       Joses-MacBook-Pro-2.local
    PSIDATADIR: /Users/joseantoniorodriguesromero/anaconda3/share/psi4
    Memory:     500.0 MiB
    Threads:    1
    
  ==> Input File <==

--------------------------------------------------------------------------
molecule { 
-1 3
Na           0.000000           0.000000           0.000000
}

set { 
basis              cc-pvtz
reference          uks
maxiter            500
DAMPING_PERCENTAGE 1
E_CONVERGENCE      1.0E-8
D_CONVERGENCE      1.0E-8
DIIS_MAX_VECS      400
MBIS_MAXITER       8000
guess              SAP
}

energy('b3lyp')
--------------------------------------------------------------------------

Scratch directory: /tmp/
   => Libint2 <=

    Primary   basis highest AM E, G, H:  6, 6, 3
    Auxiliary basis highest AM E, G, H:  7, 7, 4
    Onebody   basis highest AM E, G, H:  -, -, -
    Solid Harmonics ordering:            Gaussian

*** tstart() called on Joses-MacBook-Pro-2.local
*** at Sat Jan 25 21:30:02 2025

   => Loading Basis Set <=

    Name: CC-PVTZ
    Role: ORBITAL
    Keyword: BASIS
    atoms 1 entry NA         line   376 file /Users/joseantoniorodriguesromero/anaconda3/share/psi4/basis/cc-pvtz.gbs 


         ---------------------------------------------------------
                                   SCF
               by Justin Turney, Rob Parrish, Andy Simmonett
                          and Daniel G. A. Smith
                              UKS Reference
                        1 Threads,    500 MiB Core
         ---------------------------------------------------------

  ==> Geometry <==

    Molecular point group: d2h
    Geometry (in Angstrom), charge = -1, multiplicity = 3:

       Center              X                  Y                   Z               Mass       
    ------------   -----------------  -----------------  -----------------  -----------------
         NA           0.000000000000     0.000000000000     0.000000000000    22.989769282000

  Running in d2h symmetry.

  Rotational constants: A = ************  B = ************  C = ************ [cm^-1]
  Rotational constants: A = ************  B = ************  C = ************ [MHz]
  Nuclear repulsion =    0.000000000000000

  Charge       = -1
  Multiplicity = 3
  Electrons    = 12
  Nalpha       = 7
  Nbeta        = 5

  ==> Algorithm <==

  SCF Algorithm Type is DF.
  DIIS enabled.
  MOM disabled.
  Fractional occupation disabled.
  Guess Type is SAP.
  Energy threshold   = 1.00e-08
  Density threshold  = 1.00e-08
  Integral threshold = 1.00e-12

  ==> Primary Basis <==

  Basis Set: CC-PVTZ
    Blend: CC-PVTZ
    Number of shells: 12
    Number of basis functions: 34
    Number of Cartesian functions: 39
    Spherical Harmonics?: true
    Max angular momentum: 3

  ==> DFT Potential <==

   => LibXC <=

    Version 6.2.2
    S. Lehtola, C. Steigemann, M. J.T. Oliveira, and M. A.L. Marques.,  SoftwareX 7, 1–5 (2018) (10.1016/j.softx.2017.11.002)

   => Composite Functional: B3LYP <= 

    B3LYP Hyb-GGA Exchange-Correlation Functional

    P. J. Stephens, F. J. Devlin, C. F. Chabalowski, and M. J. Frisch.,  J. Phys. Chem. 98, 11623 (1994) (10.1021/j100096a001)

    Deriv               =              1
    GGA                 =           TRUE
    Meta                =          FALSE

    Exchange Hybrid     =           TRUE
    MP2 Hybrid          =          FALSE

   => Exchange Functionals <=

    0.0800   Slater exchange
    0.7200         Becke 88

   => Exact (HF) Exchange <=

    0.2000               HF 

   => Correlation Functionals <=

    0.1900   Vosko, Wilk & Nusair (VWN5_RPA)
    0.8100   Lee, Yang & Parr

   => LibXC Density Thresholds  <==

    XC_HYB_GGA_XC_B3LYP:  1.00E-15 

   => Molecular Quadrature <=

    Radial Scheme          =       TREUTLER
    Pruning Scheme         =           NONE
    Nuclear Scheme         =       TREUTLER

    Blocking Scheme        =         OCTREE
    BS radius alpha        =              1
    Pruning alpha          =              1
    Radial Points          =             75
    Spherical Points       =            302
    Total Points           =          22040
    Total Blocks           =            259
    Max Points             =            245
    Max Functions          =             34
    Weights Tolerance      =       1.00E-15

   => Loading Basis Set <=

    Name: (CC-PVTZ AUX)
    Role: JKFIT
    Keyword: DF_BASIS_SCF
    atoms 1 entry NA         line   498 file /Users/joseantoniorodriguesromero/anaconda3/share/psi4/basis/def2-universal-jkfit.gbs 

  ==> Integral Setup <==

  DFHelper Memory: AOs need 0.001 GiB; user supplied 0.345 GiB. 
  Using in-core AOs.

  ==> MemDFJK: Density-Fitted J/K Matrices <==

    J tasked:                   Yes
    K tasked:                   Yes
    wK tasked:                   No
    OpenMP threads:               1
    Memory [MiB]:               352
    Algorithm:                 Core
    Schwarz Cutoff:           1E-12
    Mask sparsity (%):       0.0000
    Fitting Condition:        1E-10

   => Auxiliary Basis Set <=

  Basis Set: (CC-PVTZ AUX)
    Blend: DEF2-UNIVERSAL-JKFIT
    Number of shells: 34
    Number of basis functions: 112
    Number of Cartesian functions: 137
    Spherical Harmonics?: true
    Max angular momentum: 4

  Cached 100.0% of DFT collocation blocks in 0.022 [GiB].

  Minimum eigenvalue in the overlap matrix is 5.7406971431E-03.
  Reciprocal condition number of the overlap matrix is 2.0830302477E-03.
    Using symmetric orthogonalization.

  ==> Pre-Iterations <==

  SCF Guess: Superposition of Atomic Potentials (doi:10.1021/acs.jctc.8b01089).

  ==> SAP guess <==

   => Molecular Quadrature <=

    Radial Scheme          =       TREUTLER
    Pruning Scheme         =           NONE
    Nuclear Scheme         =       TREUTLER

    Blocking Scheme        =         OCTREE
    BS radius alpha        =              1
    Pruning alpha          =              1
    Radial Points          =             75
    Spherical Points       =            302
    Total Points           =          22040
    Total Blocks           =            259
    Max Points             =            245
    Max Functions          =             34
    Weights Tolerance      =       1.00E-15

   -------------------------------------------------------
    Irrep   Nso     Nmo     Nalpha   Nbeta   Ndocc  Nsocc
   -------------------------------------------------------
     Ag         9       9       3       2       2       1
     B1g        2       2       0       0       0       0
     B2g        2       2       0       0       0       0
     B3g        2       2       0       0       0       0
     Au         1       1       0       0       0       0
     B1u        6       6       1       1       1       0
     B2u        6       6       1       1       1       0
     B3u        6       6       2       1       1       1
   -------------------------------------------------------
    Total      34      34       7       5       5       2
   -------------------------------------------------------

  ==> Iterations <==

                           Total Energy        Delta E     RMS |[F,P]|

   @DF-UKS iter   1:  -162.28005456218753   -1.62280e+02   8.14495e-03 DIIS/ADIIS
   @DF-UKS iter   2:  -162.28700799536767   -6.95343e-03   9.82928e-04 DIIS/ADIIS/DAMP=1%
   @DF-UKS iter   3:  -162.28747627946194   -4.68284e-04   1.77928e-04 DIIS/ADIIS/DAMP=1%
   @DF-UKS iter   4:  -162.28732026185219    1.56018e-04   8.10899e-05 DIIS/DAMP=1%
   @DF-UKS iter   5:  -162.28740992372894   -8.96619e-05   1.72249e-05 DIIS/DAMP=1%
   @DF-UKS iter   6:  -162.28737343385433    3.64899e-05   2.18179e-06 DIIS/DAMP=1%
   @DF-UKS iter   7:  -162.28737576560502   -2.33175e-06   1.29788e-07 DIIS/DAMP=1%
   @DF-UKS iter   8:  -162.28737465057191    1.11503e-06   2.39380e-08 DIIS/DAMP=1%
   @DF-UKS iter   9:  -162.28737474090016   -9.03283e-08   1.05371e-09 DIIS/DAMP=1%
   @DF-UKS iter  10:  -162.28737472831210    1.25881e-08   7.95382e-11 DIIS/DAMP=1%
   @DF-UKS iter  11:  -162.28737472814655    1.65556e-10   3.34349e-12 DIIS/DAMP=1%
  Energy and wave function converged.


  ==> Post-Iterations <==

   Electrons on quadrature grid:
      Nalpha   =    6.9999999970 ; deviation = -3.035e-09
      Nbeta    =    4.9999999970 ; deviation = -3.031e-09
      Ntotal   =   11.9999999939 ; deviation = -6.066e-09 

   @Spin Contamination Metric:   4.108267102E-06
   @S^2 Expected:                2.000000000E+00
   @S^2 Observed:                2.000004108E+00
   @S   Expected:                1.000000000E+00
   @S   Observed:                1.000000000E+00

    Orbital Energies [Eh]
    ---------------------

    Alpha Occupied:                                                       

       1Ag   -38.380426     2Ag    -2.109882     1B2u   -1.041667  
       1B1u   -1.041667     1B3u   -1.040897     3Ag    -0.014124  
       2B3u    0.040386  

    Alpha Virtual:                                                        

       2B2u    0.074527     2B1u    0.074527     3B3u    0.120198  
       3B1u    0.129723     3B2u    0.129723     4Ag     0.140936  
       1B1g    0.205051     1B2g    0.205051     5Ag     0.206415  
       1B3g    0.211014     6Ag     0.211014     4B3u    0.322778  
       4B2u    0.327834     4B1u    0.327834     1Au     0.534409  
       5B3u    0.534409     5B2u    0.534915     5B1u    0.534915  
       6B3u    0.535072     6B1u    0.535196     6B2u    0.535196  
       2B2g    0.537697     2B1g    0.537697     7Ag     0.538326  
       2B3g    0.539605     8Ag     0.539606     9Ag     1.542875  

    Beta Occupied:                                                        

       1Ag   -38.378797     2Ag    -2.106776     1B2u   -1.039696  
       1B1u   -1.039696     1B3u   -1.038370  

    Beta Virtual:                                                         

       3Ag     0.053141     2B3u    0.089303     2B2u    0.092485  
       2B1u    0.092485     3B1u    0.155173     3B2u    0.155173  
       3B3u    0.160511     4Ag     0.164448     5Ag     0.239055  
       1B3g    0.239055     1B1g    0.244419     1B2g    0.244419  
       6Ag     0.247206     4B2u    0.343307     4B1u    0.343307  
       4B3u    0.347344     7Ag     0.553654     2B3g    0.553654  
       2B1g    0.557603     2B2g    0.557603     5B1u    0.558612  
       5B2u    0.558612     8Ag     0.559395     5B3u    0.563876  
       1Au     0.563876     6B2u    0.567333     6B1u    0.567333  
       6B3u    0.568498     9Ag     1.553716  

    Final Occupation by Irrep:
             Ag   B1g   B2g   B3g    Au   B1u   B2u   B3u 
    DOCC [     2,    0,    0,    0,    0,    1,    1,    1 ]
    SOCC [     1,    0,    0,    0,    0,    0,    0,    1 ]
    NA   [     3,    0,    0,    0,    0,    1,    1,    2 ]
    NB   [     2,    0,    0,    0,    0,    1,    1,    1 ]

  @DF-UKS Final Energy:  -162.28737472814655

   => Energetics <=

    Nuclear Repulsion Energy =              0.0000000000000000
    One-Electron Energy =                -229.0311584981491819
    Two-Electron Energy =                  78.4260490026365176
    DFT Exchange-Correlation Energy =     -11.6822652326338794
    Empirical Dispersion Energy =           0.0000000000000000
    VV10 Nonlocal Energy =                  0.0000000000000000
    Total Energy =                       -162.2873747281465455

  UHF NO Occupations:
  HONO-2 :    1B2u 1.9999993
  HONO-1 :    3 Ag 1.0000000
  HONO-0 :    2B3u 1.0000000
  LUNO+0 :    2B2u 0.0000007
  LUNO+1 :    2B1u 0.0000007
  LUNO+2 :    3B3u 0.0000006
  LUNO+3 :    4 Ag 0.0000001


Computation Completed


Properties will be evaluated at   0.000000,   0.000000,   0.000000 [a0]

Properties computed using the SCF density matrix


 Multipole Moments:

 ------------------------------------------------------------------------------------
     Multipole            Electronic (a.u.)      Nuclear  (a.u.)        Total (a.u.)
 ------------------------------------------------------------------------------------

 L = 1.  Multiply by 2.5417464519 to convert [e a0] to [Debye]
 Dipole X            :          0.0000000            0.0000000            0.0000000
 Dipole Y            :          0.0000000            0.0000000            0.0000000
 Dipole Z            :          0.0000000            0.0000000            0.0000000
 Magnitude           :                                                    0.0000000

 ------------------------------------------------------------------------------------

*** tstop() called on Joses-MacBook-Pro-2.local at Sat Jan 25 21:30:03 2025
Module time:
	user time   =       4.52 seconds =       0.08 minutes
	system time =       1.56 seconds =       0.03 minutes
	total time  =          1 seconds =       0.02 minutes
Total time:
	user time   =       4.52 seconds =       0.08 minutes
	system time =       1.56 seconds =       0.03 minutes
	total time  =          1 seconds =       0.02 minutes

    Psi4 stopped on: Saturday, 25 January 2025 09:30PM
    Psi4 wall time for execution: 0:00:00.74

*** Psi4 exiting successfully. Buy a developer a beer!
