
    -----------------------------------------------------------------------
          Psi4: An Open-Source Ab Initio Electronic Structure Package
                               Psi4 1.9.1 release

                         Git: Rev {} zzzzzzz 


    D. G. A. Smith, L. A. Burns, A. C. Simmonett, R. M. Parrish,
    M. C. Schieber, R. Galvelis, P. Kraus, H. Kruse, R. Di Remigio,
    A. Alenaizan, A. M. James, S. Lehtola, J. P. Misiewicz, M. Scheurer,
    R. A. Shaw, J. B. Schriber, Y. Xie, Z. L. Glick, D. A. Sirianni,
    J. S. O'Brien, J. M. Waldrop, A. Kumar, E. G. Hohenstein,
    B. P. Pritchard, B. R. Brooks, H. F. Schaefer III, A. Yu. Sokolov,
    K. Patkowski, A. E. DePrince III, U. Bozkaya, R. A. King,
    F. A. Evangelista, J. M. Turney, T. D. Crawford, C. D. Sherrill,
    J. Chem. Phys. 152(18) 184108 (2020). https://doi.org/10.1063/5.0006002

                            Additional Code Authors
    E. T. Seidl, C. L. Janssen, E. F. Valeev, M. L. Leininger,
    J. F. Gonthier, R. M. Richard, H. R. McAlexander, M. Saitow, X. Wang,
    P. Verma, M. H. Lechner, A. Jiang, S. Behnle, A. G. Heide,
    M. F. Herbst, and D. L. Poole

             Previous Authors, Complete List of Code Contributors,
                       and Citations for Specific Modules
    https://github.com/psi4/psi4/blob/master/codemeta.json
    https://github.com/psi4/psi4/graphs/contributors
    http://psicode.org/psi4manual/master/introduction.html#citing-psifour

    -----------------------------------------------------------------------


    Psi4 started on: Wednesday, 16 July 2025 07:31PM

    Process ID: 69142
    Host:       Joses-MacBook-Pro-2.local
    PSIDATADIR: /Users/joseantoniorodriguesromero/anaconda3/share/psi4
    Memory:     500.0 MiB
    Threads:    1
    
  ==> Input File <==

--------------------------------------------------------------------------
molecule { 
0 2
F   0.00000        0.60000        0.00000
Ar   0.00000       -0.60000        0.00000
}

set { 
basis              cc-pvdz
reference          uks
maxiter            500
geom_maxiter       500
DAMPING_PERCENTAGE 1
guess              SAP
}

optimize('b3lyp')
--------------------------------------------------------------------------

Scratch directory: /tmp/
gradient() will perform analytic gradient computation.
   => Libint2 <=

    Primary   basis highest AM E, G, H:  6, 6, 3
    Auxiliary basis highest AM E, G, H:  7, 7, 4
    Onebody   basis highest AM E, G, H:  -, -, -
    Solid Harmonics ordering:            Gaussian

*** tstart() called on Joses-MacBook-Pro-2.local
*** at Wed Jul 16 19:31:15 2025

   => Loading Basis Set <=

    Name: CC-PVDZ
    Role: ORBITAL
    Keyword: BASIS
    atoms 1 entry F          line   228 file /Users/joseantoniorodriguesromero/anaconda3/share/psi4/basis/cc-pvdz.gbs 
    atoms 2 entry AR         line   718 file /Users/joseantoniorodriguesromero/anaconda3/share/psi4/basis/cc-pvdz.gbs 


         ---------------------------------------------------------
                                   SCF
               by Justin Turney, Rob Parrish, Andy Simmonett
                          and Daniel G. A. Smith
                              UKS Reference
                        1 Threads,    500 MiB Core
         ---------------------------------------------------------

  ==> Geometry <==

    Molecular point group: c2v
    Full point group: C_inf_v

    Geometry (in Angstrom), charge = 0, multiplicity = 2:

       Center              X                  Y                   Z               Mass       
    ------------   -----------------  -----------------  -----------------  -----------------
         F            0.000000000000     0.000000000000     0.813334807231    18.998403162730
         AR           0.000000000000     0.000000000000    -0.386665192769    39.962383123700

  Running in c2v symmetry.

  Rotational constants: A = ************  B =      0.90914  C =      0.90914 [cm^-1]
  Rotational constants: A = ************  B =  27255.20765  C =  27255.20765 [MHz]
  Nuclear repulsion =   71.438923440450012

  Charge       = 0
  Multiplicity = 2
  Electrons    = 27
  Nalpha       = 14
  Nbeta        = 13

  ==> Algorithm <==

  SCF Algorithm Type is DF.
  DIIS enabled.
  MOM disabled.
  Fractional occupation disabled.
  Guess Type is SAP.
  Energy threshold   = 1.00e-08
  Density threshold  = 1.00e-08
  Integral threshold = 1.00e-12

  ==> Primary Basis <==

  Basis Set: CC-PVDZ
    Blend: CC-PVDZ
    Number of shells: 14
    Number of basis functions: 32
    Number of Cartesian functions: 34
    Spherical Harmonics?: true
    Max angular momentum: 2

  ==> DFT Potential <==

   => LibXC <=

    Version 6.2.2
    S. Lehtola, C. Steigemann, M. J.T. Oliveira, and M. A.L. Marques.,  SoftwareX 7, 1–5 (2018) (10.1016/j.softx.2017.11.002)

   => Composite Functional: B3LYP <= 

    B3LYP Hyb-GGA Exchange-Correlation Functional

    P. J. Stephens, F. J. Devlin, C. F. Chabalowski, and M. J. Frisch.,  J. Phys. Chem. 98, 11623 (1994) (10.1021/j100096a001)

    Deriv               =              1
    GGA                 =           TRUE
    Meta                =          FALSE

    Exchange Hybrid     =           TRUE
    MP2 Hybrid          =          FALSE

   => Exchange Functionals <=

    0.0800   Slater exchange
    0.7200         Becke 88

   => Exact (HF) Exchange <=

    0.2000               HF 

   => Correlation Functionals <=

    0.1900   Vosko, Wilk & Nusair (VWN5_RPA)
    0.8100   Lee, Yang & Parr

   => LibXC Density Thresholds  <==

    XC_HYB_GGA_XC_B3LYP:  1.00E-15 

   => Molecular Quadrature <=

    Radial Scheme          =       TREUTLER
    Pruning Scheme         =           NONE
    Nuclear Scheme         =       TREUTLER

    Blocking Scheme        =         OCTREE
    BS radius alpha        =              1
    Pruning alpha          =              1
    Radial Points          =             75
    Spherical Points       =            302
    Total Points           =          41203
    Total Blocks           =            365
    Max Points             =            255
    Max Functions          =             32
    Weights Tolerance      =       1.00E-15

   => Loading Basis Set <=

    Name: (CC-PVDZ AUX)
    Role: JKFIT
    Keyword: DF_BASIS_SCF
    atoms 1 entry F          line   271 file /Users/joseantoniorodriguesromero/anaconda3/share/psi4/basis/cc-pvdz-jkfit.gbs 
    atoms 2 entry AR         line   741 file /Users/joseantoniorodriguesromero/anaconda3/share/psi4/basis/cc-pvdz-jkfit.gbs 

  ==> Integral Setup <==

  DFHelper Memory: AOs need 0.002 GiB; user supplied 0.329 GiB. 
  Using in-core AOs.

  ==> MemDFJK: Density-Fitted J/K Matrices <==

    J tasked:                   Yes
    K tasked:                   Yes
    wK tasked:                   No
    OpenMP threads:               1
    Memory [MiB]:               336
    Algorithm:                 Core
    Schwarz Cutoff:           1E-12
    Mask sparsity (%):       0.0000
    Fitting Condition:        1E-10

   => Auxiliary Basis Set <=

  Basis Set: (CC-PVDZ AUX)
    Blend: CC-PVDZ-JKFIT
    Number of shells: 60
    Number of basis functions: 182
    Number of Cartesian functions: 211
    Spherical Harmonics?: true
    Max angular momentum: 3

  Cached 100.0% of DFT collocation blocks in 0.037 [GiB].

  Minimum eigenvalue in the overlap matrix is 2.7055463313E-02.
  Reciprocal condition number of the overlap matrix is 9.3249184948E-03.
    Using symmetric orthogonalization.

  ==> Pre-Iterations <==

  SCF Guess: Superposition of Atomic Potentials (doi:10.1021/acs.jctc.8b01089).

  ==> SAP guess <==

   => Molecular Quadrature <=

    Radial Scheme          =       TREUTLER
    Pruning Scheme         =           NONE
    Nuclear Scheme         =       TREUTLER

    Blocking Scheme        =         OCTREE
    BS radius alpha        =              1
    Pruning alpha          =              1
    Radial Points          =             75
    Spherical Points       =            302
    Total Points           =          41203
    Total Blocks           =            365
    Max Points             =            255
    Max Functions          =             32
    Weights Tolerance      =       1.00E-15

   -------------------------------------------------------
    Irrep   Nso     Nmo     Nalpha   Nbeta   Ndocc  Nsocc
   -------------------------------------------------------
     A1        16      16       8       7       7       1
     A2         2       2       0       0       0       0
     B1         7       7       3       3       3       0
     B2         7       7       3       3       3       0
   -------------------------------------------------------
    Total      32      32      14      13      13       1
   -------------------------------------------------------

  ==> Iterations <==

                           Total Energy        Delta E     RMS |[F,P]|

   @DF-UKS iter   1:  -626.51823001966977   -6.26518e+02   3.75504e-02 DIIS/ADIIS
   @DF-UKS iter   2:  -626.46250364509137    5.57264e-02   4.50176e-02 DIIS/ADIIS/DAMP=1%
   @DF-UKS iter   3:  -626.64712136968387   -1.84618e-01   2.52185e-03 DIIS/ADIIS/DAMP=1%
   @DF-UKS iter   4:  -626.66829599943821   -2.11746e-02   1.09936e-03 DIIS/ADIIS/DAMP=1%
   @DF-UKS iter   5:  -626.67229316148371   -3.99716e-03   1.27875e-04 DIIS/ADIIS/DAMP=1%
   @DF-UKS iter   6:  -626.67137326386808    9.19898e-04   2.57164e-05 DIIS/DAMP=1%
   @DF-UKS iter   7:  -626.67149793329963   -1.24669e-04   3.41647e-06 DIIS/DAMP=1%
   @DF-UKS iter   8:  -626.67150340148828   -5.46819e-06   6.11690e-07 DIIS/DAMP=1%
   @DF-UKS iter   9:  -626.67150236662735    1.03486e-06   6.69394e-08 DIIS/DAMP=1%
   @DF-UKS iter  10:  -626.67150216322750    2.03400e-07   5.49095e-09 DIIS/DAMP=1%
   @DF-UKS iter  11:  -626.67150215825586    4.97164e-09   2.74719e-10 DIIS/DAMP=1%
  Energy and wave function converged.


  ==> Post-Iterations <==

   Electrons on quadrature grid:
      Nalpha   =   13.9999999937 ; deviation = -6.271e-09
      Nbeta    =   13.0000000181 ; deviation = 1.806e-08
      Ntotal   =   27.0000000118 ; deviation = 1.179e-08 

   @Spin Contamination Metric:   5.986487084E-04
   @S^2 Expected:                7.500000000E-01
   @S^2 Observed:                7.505986487E-01
   @S   Expected:                5.000000000E-01
   @S   Observed:                5.000000000E-01

    Orbital Energies [Eh]
    ---------------------

    Alpha Occupied:                                                       

       1A1  -115.204120     2A1   -24.723995     3A1   -11.234635  
       4A1    -8.799246     1B2    -8.776813     1B1    -8.776813  
       5A1    -1.584439     6A1    -0.910933     2B1    -0.671936  
       2B2    -0.671936     7A1    -0.667033     3B1    -0.332220  
       3B2    -0.332220     8A1    -0.042523  

    Alpha Virtual:                                                        

       4B1     0.527280     4B2     0.527280     9A1     0.593476  
      10A1     0.690559     1A2     0.771804    11A1     0.771805  
       5B1     0.846988     5B2     0.846988    12A1     0.946776  
       6B2     1.170415     6B1     1.170415    13A1     1.535979  
      14A1     2.048483     2A2     3.449620    15A1     3.449620  
       7B2     3.685034     7B1     3.685034    16A1     4.392234  

    Beta Occupied:                                                        

       1A1  -115.201391     2A1   -24.712179     3A1   -11.231547  
       4A1    -8.791706     1B2    -8.774830     1B1    -8.774830  
       5A1    -1.553497     6A1    -0.888765     2B1    -0.655872  
       2B2    -0.655872     7A1    -0.637241     3B1    -0.318063  
       3B2    -0.318063  

    Beta Virtual:                                                         

       8A1     0.084790     4B1     0.537956     4B2     0.537956  
       9A1     0.631125    10A1     0.707334     1A2     0.789278  
      11A1     0.789278     5B1     0.867153     5B2     0.867153  
      12A1     0.960712     6B2     1.180138     6B1     1.180138  
      13A1     1.582277    14A1     2.062767    15A1     3.455901  
       2A2     3.455902     7B2     3.702425     7B1     3.702425  
      16A1     4.412334  

    Final Occupation by Irrep:
             A1    A2    B1    B2 
    DOCC [     7,    0,    3,    3 ]
    SOCC [     1,    0,    0,    0 ]
    NA   [     8,    0,    3,    3 ]
    NB   [     7,    0,    3,    3 ]

  @DF-UKS Final Energy:  -626.67150215825586

   => Energetics <=

    Nuclear Repulsion Energy =             71.4389234404500115
    One-Electron Energy =               -1007.0722727986910741
    Two-Electron Energy =                 342.5690293613714630
    DFT Exchange-Correlation Energy =     -33.6071821613862767
    Empirical Dispersion Energy =           0.0000000000000000
    VV10 Nonlocal Energy =                  0.0000000000000000
    Total Energy =                       -626.6715021582558620

  UHF NO Occupations:
  HONO-2 :    3 B1 1.9999667
  HONO-1 :    7 A1 1.9998072
  HONO-0 :    8 A1 1.0000000
  LUNO+0 :    9 A1 0.0001928
  LUNO+1 :    4 B1 0.0000333
  LUNO+2 :    4 B2 0.0000333
  LUNO+3 :   10 A1 0.0000143


Computation Completed


Properties will be evaluated at   0.000000,   0.000000,   0.000000 [a0]

Properties computed using the SCF density matrix


 Multipole Moments:

 ------------------------------------------------------------------------------------
     Multipole            Electronic (a.u.)      Nuclear  (a.u.)        Total (a.u.)
 ------------------------------------------------------------------------------------

 L = 1.  Multiply by 2.5417464519 to convert [e a0] to [Debye]
 Dipole X            :          0.0000000            0.0000000            0.0000000
 Dipole Y            :          0.0000000            0.0000000            0.0000000
 Dipole Z            :         -0.4944780            0.6803766            0.1858986
 Magnitude           :                                                    0.1858986

 ------------------------------------------------------------------------------------

*** tstop() called on Joses-MacBook-Pro-2.local at Wed Jul 16 19:31:16 2025
Module time:
	user time   =       6.38 seconds =       0.11 minutes
	system time =       3.30 seconds =       0.05 minutes
	total time  =          1 seconds =       0.02 minutes
Total time:
	user time   =       6.38 seconds =       0.11 minutes
	system time =       3.30 seconds =       0.05 minutes
	total time  =          1 seconds =       0.02 minutes

*** tstart() called on Joses-MacBook-Pro-2.local
*** at Wed Jul 16 19:31:16 2025


         ------------------------------------------------------------
                                   SCF GRAD                          
                          Rob Parrish, Justin Turney,                
                       Andy Simmonett, and Alex Sokolov              
         ------------------------------------------------------------

  ==> Geometry <==

    Molecular point group: c2v
    Full point group: C_inf_v

    Geometry (in Angstrom), charge = 0, multiplicity = 2:

       Center              X                  Y                   Z               Mass       
    ------------   -----------------  -----------------  -----------------  -----------------
         F            0.000000000000     0.000000000000     0.813334807231    18.998403162730
         AR           0.000000000000     0.000000000000    -0.386665192769    39.962383123700

  Nuclear repulsion =   71.438923440450012

  ==> Basis Set <==

  Basis Set: CC-PVDZ
    Blend: CC-PVDZ
    Number of shells: 14
    Number of basis functions: 32
    Number of Cartesian functions: 34
    Spherical Harmonics?: true
    Max angular momentum: 2

  ==> DFJKGrad: Density-Fitted SCF Gradients <==

    Gradient:                    1
    J tasked:                  Yes
    K tasked:                  Yes
    wK tasked:                  No
    OpenMP threads:              1
    Integrals threads:           1
    Memory [MiB]:              375
    Schwarz Cutoff:          1E-12
    Fitting Condition:       1E-10

   => Auxiliary Basis Set <=

  Basis Set: (CC-PVDZ AUX)
    Blend: CC-PVDZ-JKFIT
    Number of shells: 60
    Number of basis functions: 182
    Number of Cartesian functions: 211
    Spherical Harmonics?: true
    Max angular momentum: 3

  ==> DFT Potential <==

   => LibXC <=

    Version 6.2.2
    S. Lehtola, C. Steigemann, M. J.T. Oliveira, and M. A.L. Marques.,  SoftwareX 7, 1–5 (2018) (10.1016/j.softx.2017.11.002)

   => Composite Functional: B3LYP <= 

    B3LYP Hyb-GGA Exchange-Correlation Functional

    P. J. Stephens, F. J. Devlin, C. F. Chabalowski, and M. J. Frisch.,  J. Phys. Chem. 98, 11623 (1994) (10.1021/j100096a001)

    Deriv               =              1
    GGA                 =           TRUE
    Meta                =          FALSE

    Exchange Hybrid     =           TRUE
    MP2 Hybrid          =          FALSE

   => Exchange Functionals <=

    0.0800   Slater exchange
    0.7200         Becke 88

   => Exact (HF) Exchange <=

    0.2000               HF 

   => Correlation Functionals <=

    0.1900   Vosko, Wilk & Nusair (VWN5_RPA)
    0.8100   Lee, Yang & Parr

   => LibXC Density Thresholds  <==

    XC_HYB_GGA_XC_B3LYP:  1.00E-15 

   => Molecular Quadrature <=

    Radial Scheme          =       TREUTLER
    Pruning Scheme         =           NONE
    Nuclear Scheme         =       TREUTLER

    Blocking Scheme        =         OCTREE
    BS radius alpha        =              1
    Pruning alpha          =              1
    Radial Points          =             75
    Spherical Points       =            302
    Total Points           =          41203
    Total Blocks           =            365
    Max Points             =            255
    Max Functions          =             32
    Weights Tolerance      =       1.00E-15


  -Total Gradient:
     Atom            X                  Y                   Z
    ------   -----------------  -----------------  -----------------
       1        0.000000000000     0.000000000000    -1.224834505673
       2        0.000000000000     0.000000000000     1.224811762535


*** tstop() called on Joses-MacBook-Pro-2.local at Wed Jul 16 19:31:16 2025
Module time:
	user time   =       0.82 seconds =       0.01 minutes
	system time =       1.43 seconds =       0.02 minutes
	total time  =          0 seconds =       0.00 minutes
Total time:
	user time   =       7.20 seconds =       0.12 minutes
	system time =       4.74 seconds =       0.08 minutes
	total time  =          1 seconds =       0.02 minutes

    			-----------------------------------------

    			 OPTKING 3.0: for geometry optimizations 

    			     By R.A. King, Bethel University     

    			        with contributions from          

    			    A.V. Copan, J. Cayton, A. Heide      

    			-----------------------------------------

    
	                            ===> Fragment 1 <== 

	 Z (Atomic Numbers)          Masses                          Geom                  
	       9.000000            18.998403          0.00000000  0.00000000  1.53698003   
	      18.000000            39.962383          0.00000000  0.00000000 -0.73069132   

	 - Coordinate -           - BOHR/RAD -       - ANG/DEG -
	 R(1,2)           =         2.267671           1.200000


	        --- Internal Coordinate Step in ANG or DEG, aJ/ANG or AJ/DEG ---
	-------------------------------------------------------------------------------
	           Coordinate      Previous         Force          Change          New 
	           ----------      --------        ------          ------        ------
	               R(1,2)       1.20000       10.09098        0.14357       1.34357
	-------------------------------------------------------------------------------

	                                 ==> Convergence Check <==                                  
    
	Measures of convergence in internal coordinates in au.
    
	Criteria marked as inactive (o), active & met (*), and active & unmet ( ).

	----------------------------------------------------------------------------------------------
	   Step    Total Energy     Delta E     Max Force     RMS Force      Max Disp      RMS Disp   
	----------------------------------------------------------------------------------------------
	  Convergence Criteria     1.00e-06 *    3.00e-04 *             o    1.20e-03 *             o
	----------------------------------------------------------------------------------------------
	     1    -626.67150216   -6.27e+02      1.22e+00      1.22e+00 o    2.71e-01      2.71e-01 o  ~
	----------------------------------------------------------------------------------------------

Next Geometry in Ang 
	Fragment 1 (Ang)

	    F   0.0000000000   0.0000000000   0.8851196473
	   Ar   0.0000000000   0.0000000000  -0.4584500328


    Structure for next step:
    Molecular point group: c2v
    Full point group: C_inf_v

    Geometry (in Angstrom), charge = 0, multiplicity = 2:

    F            0.000000000000     0.000000000000     0.910643322320
    AR           0.000000000000     0.000000000000    -0.432926357803


Scratch directory: /tmp/
gradient() will perform analytic gradient computation.
   => Libint2 <=

    Primary   basis highest AM E, G, H:  6, 6, 3
    Auxiliary basis highest AM E, G, H:  7, 7, 4
    Onebody   basis highest AM E, G, H:  -, -, -
    Solid Harmonics ordering:            Gaussian

*** tstart() called on Joses-MacBook-Pro-2.local
*** at Wed Jul 16 19:31:16 2025

   => Loading Basis Set <=

    Name: CC-PVDZ
    Role: ORBITAL
    Keyword: BASIS
    atoms 1 entry F          line   228 file /Users/joseantoniorodriguesromero/anaconda3/share/psi4/basis/cc-pvdz.gbs 
    atoms 2 entry AR         line   718 file /Users/joseantoniorodriguesromero/anaconda3/share/psi4/basis/cc-pvdz.gbs 


         ---------------------------------------------------------
                                   SCF
               by Justin Turney, Rob Parrish, Andy Simmonett
                          and Daniel G. A. Smith
                              UKS Reference
                        1 Threads,    500 MiB Core
         ---------------------------------------------------------

  ==> Geometry <==

    Molecular point group: c2v
    Full point group: C_inf_v

    Geometry (in Angstrom), charge = 0, multiplicity = 2:

       Center              X                  Y                   Z               Mass       
    ------------   -----------------  -----------------  -----------------  -----------------
         F            0.000000000000     0.000000000000     0.910643322320    18.998403162730
         AR           0.000000000000     0.000000000000    -0.432926357803    39.962383123700

  Running in c2v symmetry.

  Rotational constants: A = ************  B =      0.72522  C =      0.72522 [cm^-1]
  Rotational constants: A = ************  B =  21741.60483  C =  21741.60483 [MHz]
  Nuclear repulsion =   63.805182118047348

  Charge       = 0
  Multiplicity = 2
  Electrons    = 27
  Nalpha       = 14
  Nbeta        = 13

  ==> Algorithm <==

  SCF Algorithm Type is DF.
  DIIS enabled.
  MOM disabled.
  Fractional occupation disabled.
  Guess Type is READ.
  Energy threshold   = 1.00e-08
  Density threshold  = 1.00e-08
  Integral threshold = 1.00e-12

  ==> Primary Basis <==

  Basis Set: CC-PVDZ
    Blend: CC-PVDZ
    Number of shells: 14
    Number of basis functions: 32
    Number of Cartesian functions: 34
    Spherical Harmonics?: true
    Max angular momentum: 2

  ==> DFT Potential <==

   => LibXC <=

    Version 6.2.2
    S. Lehtola, C. Steigemann, M. J.T. Oliveira, and M. A.L. Marques.,  SoftwareX 7, 1–5 (2018) (10.1016/j.softx.2017.11.002)

   => Composite Functional: B3LYP <= 

    B3LYP Hyb-GGA Exchange-Correlation Functional

    P. J. Stephens, F. J. Devlin, C. F. Chabalowski, and M. J. Frisch.,  J. Phys. Chem. 98, 11623 (1994) (10.1021/j100096a001)

    Deriv               =              1
    GGA                 =           TRUE
    Meta                =          FALSE

    Exchange Hybrid     =           TRUE
    MP2 Hybrid          =          FALSE

   => Exchange Functionals <=

    0.0800   Slater exchange
    0.7200         Becke 88

   => Exact (HF) Exchange <=

    0.2000               HF 

   => Correlation Functionals <=

    0.1900   Vosko, Wilk & Nusair (VWN5_RPA)
    0.8100   Lee, Yang & Parr

   => LibXC Density Thresholds  <==

    XC_HYB_GGA_XC_B3LYP:  1.00E-15 

   => Molecular Quadrature <=

    Radial Scheme          =       TREUTLER
    Pruning Scheme         =           NONE
    Nuclear Scheme         =       TREUTLER

    Blocking Scheme        =         OCTREE
    BS radius alpha        =              1
    Pruning alpha          =              1
    Radial Points          =             75
    Spherical Points       =            302
    Total Points           =          41250
    Total Blocks           =            368
    Max Points             =            255
    Max Functions          =             32
    Weights Tolerance      =       1.00E-15

   => Loading Basis Set <=

    Name: (CC-PVDZ AUX)
    Role: JKFIT
    Keyword: DF_BASIS_SCF
    atoms 1 entry F          line   271 file /Users/joseantoniorodriguesromero/anaconda3/share/psi4/basis/cc-pvdz-jkfit.gbs 
    atoms 2 entry AR         line   741 file /Users/joseantoniorodriguesromero/anaconda3/share/psi4/basis/cc-pvdz-jkfit.gbs 

   => Loading Basis Set <=

    Name: CC-PVDZ
    Role: ORBITAL
    Keyword: BASIS
    atoms 1 entry F          line   228 file /Users/joseantoniorodriguesromero/anaconda3/share/psi4/basis/cc-pvdz.gbs 
    atoms 2 entry AR         line   718 file /Users/joseantoniorodriguesromero/anaconda3/share/psi4/basis/cc-pvdz.gbs 

  Reading orbitals from file /tmp/doublet_FAr.default.69142.180.npy, no projection.

  ==> Integral Setup <==

  DFHelper Memory: AOs need 0.002 GiB; user supplied 0.329 GiB. 
  Using in-core AOs.

  ==> MemDFJK: Density-Fitted J/K Matrices <==

    J tasked:                   Yes
    K tasked:                   Yes
    wK tasked:                   No
    OpenMP threads:               1
    Memory [MiB]:               336
    Algorithm:                 Core
    Schwarz Cutoff:           1E-12
    Mask sparsity (%):       0.0000
    Fitting Condition:        1E-10

   => Auxiliary Basis Set <=

  Basis Set: (CC-PVDZ AUX)
    Blend: CC-PVDZ-JKFIT
    Number of shells: 60
    Number of basis functions: 182
    Number of Cartesian functions: 211
    Spherical Harmonics?: true
    Max angular momentum: 3

  Cached 100.0% of DFT collocation blocks in 0.037 [GiB].

  Minimum eigenvalue in the overlap matrix is 3.5193945033E-02.
  Reciprocal condition number of the overlap matrix is 1.2703991028E-02.
    Using symmetric orthogonalization.

  ==> Pre-Iterations <==

  SCF Guess: Orbitals guess was supplied from a previous computation.

   -------------------------------------------------------
    Irrep   Nso     Nmo     Nalpha   Nbeta   Ndocc  Nsocc
   -------------------------------------------------------
     A1        16      16       8       7       7       1
     A2         2       2       0       0       0       0
     B1         7       7       3       3       3       0
     B2         7       7       3       3       3       0
   -------------------------------------------------------
    Total      32      32      14      13      13       1
   -------------------------------------------------------

  ==> Iterations <==

                           Total Energy        Delta E     RMS |[F,P]|

   @DF-UKS iter   0:  -626.88214001443180   -6.26882e+02   7.31567e-02 
   @DF-UKS iter   1:  -626.91871837186852   -3.65784e-02   5.89090e-03 DIIS/ADIIS
   @DF-UKS iter   2:  -626.92182601181162   -3.10764e-03   5.05113e-03 DIIS/ADIIS/DAMP=1%
   @DF-UKS iter   3:  -626.92834335512691   -6.51734e-03   1.06508e-03 DIIS/ADIIS/DAMP=1%
   @DF-UKS iter   4:  -626.92637152788222    1.97183e-03   3.06925e-04 DIIS/ADIIS/DAMP=1%
   @DF-UKS iter   5:  -626.92547853088718    8.92997e-04   6.64548e-05 DIIS/DAMP=1%
   @DF-UKS iter   6:  -626.92571400778093   -2.35477e-04   9.73333e-06 DIIS/DAMP=1%
   @DF-UKS iter   7:  -626.92565885553449    5.51522e-05   1.06154e-06 DIIS/DAMP=1%
   @DF-UKS iter   8:  -626.92566443643921   -5.58090e-06   2.45811e-07 DIIS/DAMP=1%
   @DF-UKS iter   9:  -626.92566405508171    3.81357e-07   2.44907e-08 DIIS/DAMP=1%
   @DF-UKS iter  10:  -626.92566419222908   -1.37147e-07   2.32556e-09 DIIS/DAMP=1%
   @DF-UKS iter  11:  -626.92566418529304    6.93603e-09   2.83466e-10 DIIS/DAMP=1%
  Energy and wave function converged.


  ==> Post-Iterations <==

   Electrons on quadrature grid:
      Nalpha   =   14.0000038766 ; deviation = 3.877e-06
      Nbeta    =   13.0000039266 ; deviation = 3.927e-06
      Ntotal   =   27.0000078032 ; deviation = 7.803e-06 

   @Spin Contamination Metric:   1.215517467E-03
   @S^2 Expected:                7.500000000E-01
   @S^2 Observed:                7.512155175E-01
   @S   Expected:                5.000000000E-01
   @S   Observed:                5.000000000E-01

    Orbital Energies [Eh]
    ---------------------

    Alpha Occupied:                                                       

       1A1  -115.175203     2A1   -24.679189     3A1   -11.209553  
       4A1    -8.771872     1B1    -8.753545     1B2    -8.753545  
       5A1    -1.415952     6A1    -0.934073     7A1    -0.627231  
       2B2    -0.581927     2B1    -0.581927     3B2    -0.345335  
       3B1    -0.345335     8A1    -0.114466  

    Alpha Virtual:                                                        

       9A1     0.533545     4B2     0.542108     4B1     0.542108  
      10A1     0.681152    11A1     0.781387     1A2     0.781387  
       5B1     0.791767     5B2     0.791767    12A1     1.015918  
       6B2     1.225624     6B1     1.225624    13A1     1.339128  
      14A1     2.075334    15A1     3.520687     2A2     3.520720  
       7B1     3.621902     7B2     3.621902    16A1     4.175375  

    Beta Occupied:                                                        

       1A1  -115.171221     2A1   -24.663170     3A1   -11.205297  
       4A1    -8.761250     1B1    -8.750779     1B2    -8.750779  
       5A1    -1.376635     6A1    -0.906003     7A1    -0.582073  
       2B2    -0.564907     2B1    -0.564907     3B2    -0.330493  
       3B1    -0.330493  

    Beta Virtual:                                                         

       8A1     0.024466     4B2     0.552357     4B1     0.552357  
       9A1     0.565292    10A1     0.698376    11A1     0.796396  
       1A2     0.796396     5B1     0.813005     5B2     0.813005  
      12A1     1.039436     6B2     1.237019     6B1     1.237019  
      13A1     1.391366    14A1     2.096592    15A1     3.529210  
       2A2     3.529246     7B1     3.651633     7B2     3.651633  
      16A1     4.209390  

    Final Occupation by Irrep:
             A1    A2    B1    B2 
    DOCC [     7,    0,    3,    3 ]
    SOCC [     1,    0,    0,    0 ]
    NA   [     8,    0,    3,    3 ]
    NB   [     7,    0,    3,    3 ]

  @DF-UKS Final Energy:  -626.92566418529304

   => Energetics <=

    Nuclear Repulsion Energy =             63.8051821180473482
    One-Electron Energy =                -993.3648071926140801
    Two-Electron Energy =                 336.1561343535347532
    DFT Exchange-Correlation Energy =     -33.5221734642610940
    Empirical Dispersion Energy =           0.0000000000000000
    VV10 Nonlocal Energy =                  0.0000000000000000
    Total Energy =                       -626.9256641852930443

  UHF NO Occupations:
  HONO-2 :    3 B2 1.9999498
  HONO-1 :    7 A1 1.9995823
  HONO-0 :    8 A1 1.0000000
  LUNO+0 :    9 A1 0.0004177
  LUNO+1 :    4 B1 0.0000502
  LUNO+2 :    4 B2 0.0000502
  LUNO+3 :   10 A1 0.0000273


Computation Completed


Properties will be evaluated at   0.000000,   0.000000,   0.000000 [a0]

Properties computed using the SCF density matrix


 Multipole Moments:

 ------------------------------------------------------------------------------------
     Multipole            Electronic (a.u.)      Nuclear  (a.u.)        Total (a.u.)
 ------------------------------------------------------------------------------------

 L = 1.  Multiply by 2.5417464519 to convert [e a0] to [Debye]
 Dipole X            :          0.0000000            0.0000000            0.0000000
 Dipole Y            :          0.0000000            0.0000000            0.0000000
 Dipole Z            :         -1.0184653            0.7617778           -0.2566875
 Magnitude           :                                                    0.2566875

 ------------------------------------------------------------------------------------

*** tstop() called on Joses-MacBook-Pro-2.local at Wed Jul 16 19:31:17 2025
Module time:
	user time   =       4.44 seconds =       0.07 minutes
	system time =       3.97 seconds =       0.07 minutes
	total time  =          1 seconds =       0.02 minutes
Total time:
	user time   =      11.69 seconds =       0.19 minutes
	system time =       8.99 seconds =       0.15 minutes
	total time  =          2 seconds =       0.03 minutes

*** tstart() called on Joses-MacBook-Pro-2.local
*** at Wed Jul 16 19:31:17 2025


         ------------------------------------------------------------
                                   SCF GRAD                          
                          Rob Parrish, Justin Turney,                
                       Andy Simmonett, and Alex Sokolov              
         ------------------------------------------------------------

  ==> Geometry <==

    Molecular point group: c2v
    Full point group: C_inf_v

    Geometry (in Angstrom), charge = 0, multiplicity = 2:

       Center              X                  Y                   Z               Mass       
    ------------   -----------------  -----------------  -----------------  -----------------
         F            0.000000000000     0.000000000000     0.910643322320    18.998403162730
         AR           0.000000000000     0.000000000000    -0.432926357803    39.962383123700

  Nuclear repulsion =   63.805182118047348

  ==> Basis Set <==

  Basis Set: CC-PVDZ
    Blend: CC-PVDZ
    Number of shells: 14
    Number of basis functions: 32
    Number of Cartesian functions: 34
    Spherical Harmonics?: true
    Max angular momentum: 2

  ==> DFJKGrad: Density-Fitted SCF Gradients <==

    Gradient:                    1
    J tasked:                  Yes
    K tasked:                  Yes
    wK tasked:                  No
    OpenMP threads:              1
    Integrals threads:           1
    Memory [MiB]:              375
    Schwarz Cutoff:          1E-12
    Fitting Condition:       1E-10

   => Auxiliary Basis Set <=

  Basis Set: (CC-PVDZ AUX)
    Blend: CC-PVDZ-JKFIT
    Number of shells: 60
    Number of basis functions: 182
    Number of Cartesian functions: 211
    Spherical Harmonics?: true
    Max angular momentum: 3

  ==> DFT Potential <==

   => LibXC <=

    Version 6.2.2
    S. Lehtola, C. Steigemann, M. J.T. Oliveira, and M. A.L. Marques.,  SoftwareX 7, 1–5 (2018) (10.1016/j.softx.2017.11.002)

   => Composite Functional: B3LYP <= 

    B3LYP Hyb-GGA Exchange-Correlation Functional

    P. J. Stephens, F. J. Devlin, C. F. Chabalowski, and M. J. Frisch.,  J. Phys. Chem. 98, 11623 (1994) (10.1021/j100096a001)

    Deriv               =              1
    GGA                 =           TRUE
    Meta                =          FALSE

    Exchange Hybrid     =           TRUE
    MP2 Hybrid          =          FALSE

   => Exchange Functionals <=

    0.0800   Slater exchange
    0.7200         Becke 88

   => Exact (HF) Exchange <=

    0.2000               HF 

   => Correlation Functionals <=

    0.1900   Vosko, Wilk & Nusair (VWN5_RPA)
    0.8100   Lee, Yang & Parr

   => LibXC Density Thresholds  <==

    XC_HYB_GGA_XC_B3LYP:  1.00E-15 

   => Molecular Quadrature <=

    Radial Scheme          =       TREUTLER
    Pruning Scheme         =           NONE
    Nuclear Scheme         =       TREUTLER

    Blocking Scheme        =         OCTREE
    BS radius alpha        =              1
    Pruning alpha          =              1
    Radial Points          =             75
    Spherical Points       =            302
    Total Points           =          41250
    Total Blocks           =            368
    Max Points             =            255
    Max Functions          =             32
    Weights Tolerance      =       1.00E-15


  -Total Gradient:
     Atom            X                  Y                   Z
    ------   -----------------  -----------------  -----------------
       1       -0.000000000000    -0.000000000000    -0.707804241311
       2        0.000000000000    -0.000000000000     0.707749900482


*** tstop() called on Joses-MacBook-Pro-2.local at Wed Jul 16 19:31:17 2025
Module time:
	user time   =       1.29 seconds =       0.02 minutes
	system time =       1.30 seconds =       0.02 minutes
	total time  =          0 seconds =       0.00 minutes
Total time:
	user time   =      12.98 seconds =       0.22 minutes
	system time =      10.29 seconds =       0.17 minutes
	total time  =          2 seconds =       0.03 minutes

    			-----------------------------------------

    			 OPTKING 3.0: for geometry optimizations 

    			     By R.A. King, Bethel University     

    			        with contributions from          

    			    A.V. Copan, J. Cayton, A. Heide      

    			-----------------------------------------

    
	                            ===> Fragment 1 <== 

	 Z (Atomic Numbers)          Masses                          Geom                  
	       9.000000            18.998403          0.00000000  0.00000000  1.72086648   
	      18.000000            39.962383          0.00000000  0.00000000 -0.81811225   

	 - Coordinate -           - BOHR/RAD -       - ANG/DEG -
	 R(1,2)           =         2.538979           1.343570


	        --- Internal Coordinate Step in ANG or DEG, aJ/ANG or AJ/DEG ---
	-------------------------------------------------------------------------------
	           Coordinate      Previous         Force          Change          New 
	           ----------      --------        ------          ------        ------
	               R(1,2)       1.34357        5.83118        0.16227       1.50584
	-------------------------------------------------------------------------------

	                                 ==> Convergence Check <==                                  
    
	Measures of convergence in internal coordinates in au.
    
	Criteria marked as inactive (o), active & met (*), and active & unmet ( ).

	----------------------------------------------------------------------------------------------
	   Step    Total Energy     Delta E     Max Force     RMS Force      Max Disp      RMS Disp   
	----------------------------------------------------------------------------------------------
	  Convergence Criteria     1.00e-06 *    3.00e-04 *             o    1.20e-03 *             o
	----------------------------------------------------------------------------------------------
	     2    -626.92566419   -2.54e-01      7.08e-01      7.08e-01 o    3.07e-01      3.07e-01 o  ~
	----------------------------------------------------------------------------------------------

Next Geometry in Ang 
	Fragment 1 (Ang)

	    F   0.0000000000   0.0000000000   0.9917776526
	   Ar   0.0000000000   0.0000000000  -0.5140606880


    Structure for next step:
    Molecular point group: c2v
    Full point group: C_inf_v

    Geometry (in Angstrom), charge = 0, multiplicity = 2:

    F            0.000000000000     0.000000000000     1.020625613723
    AR           0.000000000000     0.000000000000    -0.485212726871


Scratch directory: /tmp/
gradient() will perform analytic gradient computation.
   => Libint2 <=

    Primary   basis highest AM E, G, H:  6, 6, 3
    Auxiliary basis highest AM E, G, H:  7, 7, 4
    Onebody   basis highest AM E, G, H:  -, -, -
    Solid Harmonics ordering:            Gaussian

*** tstart() called on Joses-MacBook-Pro-2.local
*** at Wed Jul 16 19:31:17 2025

   => Loading Basis Set <=

    Name: CC-PVDZ
    Role: ORBITAL
    Keyword: BASIS
    atoms 1 entry F          line   228 file /Users/joseantoniorodriguesromero/anaconda3/share/psi4/basis/cc-pvdz.gbs 
    atoms 2 entry AR         line   718 file /Users/joseantoniorodriguesromero/anaconda3/share/psi4/basis/cc-pvdz.gbs 


         ---------------------------------------------------------
                                   SCF
               by Justin Turney, Rob Parrish, Andy Simmonett
                          and Daniel G. A. Smith
                              UKS Reference
                        1 Threads,    500 MiB Core
         ---------------------------------------------------------

  ==> Geometry <==

    Molecular point group: c2v
    Full point group: C_inf_v

    Geometry (in Angstrom), charge = 0, multiplicity = 2:

       Center              X                  Y                   Z               Mass       
    ------------   -----------------  -----------------  -----------------  -----------------
         F            0.000000000000     0.000000000000     1.020625613723    18.998403162730
         AR           0.000000000000     0.000000000000    -0.485212726871    39.962383123700

  Running in c2v symmetry.

  Rotational constants: A = ************  B =      0.57734  C =      0.57734 [cm^-1]
  Rotational constants: A = ************  B =  17308.33475  C =  17308.33475 [MHz]
  Nuclear repulsion =   56.929555993830505

  Charge       = 0
  Multiplicity = 2
  Electrons    = 27
  Nalpha       = 14
  Nbeta        = 13

  ==> Algorithm <==

  SCF Algorithm Type is DF.
  DIIS enabled.
  MOM disabled.
  Fractional occupation disabled.
  Guess Type is READ.
  Energy threshold   = 1.00e-08
  Density threshold  = 1.00e-08
  Integral threshold = 1.00e-12

  ==> Primary Basis <==

  Basis Set: CC-PVDZ
    Blend: CC-PVDZ
    Number of shells: 14
    Number of basis functions: 32
    Number of Cartesian functions: 34
    Spherical Harmonics?: true
    Max angular momentum: 2

  ==> DFT Potential <==

   => LibXC <=

    Version 6.2.2
    S. Lehtola, C. Steigemann, M. J.T. Oliveira, and M. A.L. Marques.,  SoftwareX 7, 1–5 (2018) (10.1016/j.softx.2017.11.002)

   => Composite Functional: B3LYP <= 

    B3LYP Hyb-GGA Exchange-Correlation Functional

    P. J. Stephens, F. J. Devlin, C. F. Chabalowski, and M. J. Frisch.,  J. Phys. Chem. 98, 11623 (1994) (10.1021/j100096a001)

    Deriv               =              1
    GGA                 =           TRUE
    Meta                =          FALSE

    Exchange Hybrid     =           TRUE
    MP2 Hybrid          =          FALSE

   => Exchange Functionals <=

    0.0800   Slater exchange
    0.7200         Becke 88

   => Exact (HF) Exchange <=

    0.2000               HF 

   => Correlation Functionals <=

    0.1900   Vosko, Wilk & Nusair (VWN5_RPA)
    0.8100   Lee, Yang & Parr

   => LibXC Density Thresholds  <==

    XC_HYB_GGA_XC_B3LYP:  1.00E-15 

   => Molecular Quadrature <=

    Radial Scheme          =       TREUTLER
    Pruning Scheme         =           NONE
    Nuclear Scheme         =       TREUTLER

    Blocking Scheme        =         OCTREE
    BS radius alpha        =              1
    Pruning alpha          =              1
    Radial Points          =             75
    Spherical Points       =            302
    Total Points           =          41290
    Total Blocks           =            366
    Max Points             =            256
    Max Functions          =             32
    Weights Tolerance      =       1.00E-15

   => Loading Basis Set <=

    Name: (CC-PVDZ AUX)
    Role: JKFIT
    Keyword: DF_BASIS_SCF
    atoms 1 entry F          line   271 file /Users/joseantoniorodriguesromero/anaconda3/share/psi4/basis/cc-pvdz-jkfit.gbs 
    atoms 2 entry AR         line   741 file /Users/joseantoniorodriguesromero/anaconda3/share/psi4/basis/cc-pvdz-jkfit.gbs 

   => Loading Basis Set <=

    Name: CC-PVDZ
    Role: ORBITAL
    Keyword: BASIS
    atoms 1 entry F          line   228 file /Users/joseantoniorodriguesromero/anaconda3/share/psi4/basis/cc-pvdz.gbs 
    atoms 2 entry AR         line   718 file /Users/joseantoniorodriguesromero/anaconda3/share/psi4/basis/cc-pvdz.gbs 

  Reading orbitals from file /tmp/doublet_FAr.default.69142.180.npy, no projection.

  ==> Integral Setup <==

  DFHelper Memory: AOs need 0.002 GiB; user supplied 0.329 GiB. 
  Using in-core AOs.

  ==> MemDFJK: Density-Fitted J/K Matrices <==

    J tasked:                   Yes
    K tasked:                   Yes
    wK tasked:                   No
    OpenMP threads:               1
    Memory [MiB]:               336
    Algorithm:                 Core
    Schwarz Cutoff:           1E-12
    Mask sparsity (%):       0.0000
    Fitting Condition:        1E-10

   => Auxiliary Basis Set <=

  Basis Set: (CC-PVDZ AUX)
    Blend: CC-PVDZ-JKFIT
    Number of shells: 60
    Number of basis functions: 182
    Number of Cartesian functions: 211
    Spherical Harmonics?: true
    Max angular momentum: 3

  Cached 100.0% of DFT collocation blocks in 0.037 [GiB].

  Minimum eigenvalue in the overlap matrix is 4.6059248681E-02.
  Reciprocal condition number of the overlap matrix is 1.7634087350E-02.
    Using symmetric orthogonalization.

  ==> Pre-Iterations <==

  SCF Guess: Orbitals guess was supplied from a previous computation.

   -------------------------------------------------------
    Irrep   Nso     Nmo     Nalpha   Nbeta   Ndocc  Nsocc
   -------------------------------------------------------
     A1        16      16       8       7       7       1
     A2         2       2       0       0       0       0
     B1         7       7       3       3       3       0
     B2         7       7       3       3       3       0
   -------------------------------------------------------
    Total      32      32      14      13      13       1
   -------------------------------------------------------

  ==> Iterations <==

                           Total Energy        Delta E     RMS |[F,P]|

   @DF-UKS iter   0:  -627.06791022289053   -6.27068e+02   5.85475e-02 
   @DF-UKS iter   1:  -627.08454825052252   -1.66380e-02   5.25138e-03 DIIS/ADIIS
   @DF-UKS iter   2:  -627.08791072331837   -3.36247e-03   3.72266e-03 DIIS/ADIIS/DAMP=1%
   @DF-UKS iter   3:  -627.09419074376410   -6.28002e-03   3.50789e-04 DIIS/ADIIS/DAMP=1%
   @DF-UKS iter   4:  -627.09006528193208    4.12546e-03   3.31002e-04 DIIS/ADIIS/DAMP=1%
   @DF-UKS iter   5:  -627.09010566572829   -4.03838e-05   7.30604e-05 DIIS/DAMP=1%
   @DF-UKS iter   6:  -627.09015908588231   -5.34202e-05   1.38249e-05 DIIS/DAMP=1%
   @DF-UKS iter   7:  -627.09011984947767    3.92364e-05   1.21717e-06 DIIS/DAMP=1%
   @DF-UKS iter   8:  -627.09012398108803   -4.13161e-06   2.30148e-07 DIIS/DAMP=1%
   @DF-UKS iter   9:  -627.09012394037643    4.07116e-08   2.95176e-08 DIIS/DAMP=1%
   @DF-UKS iter  10:  -627.09012405063106   -1.10255e-07   3.55250e-09 DIIS/DAMP=1%
   @DF-UKS iter  11:  -627.09012404208772    8.54334e-09   4.59206e-10 DIIS/DAMP=1%
  Energy and wave function converged.


  ==> Post-Iterations <==

   Electrons on quadrature grid:
      Nalpha   =   14.0000027900 ; deviation = 2.790e-06
      Nbeta    =   13.0000032997 ; deviation = 3.300e-06
      Ntotal   =   27.0000060897 ; deviation = 6.090e-06 

   @Spin Contamination Metric:   1.739994309E-03
   @S^2 Expected:                7.500000000E-01
   @S^2 Observed:                7.517399943E-01
   @S   Expected:                5.000000000E-01
   @S   Observed:                5.000000000E-01

    Orbital Energies [Eh]
    ---------------------

    Alpha Occupied:                                                       

       1A1  -115.156602     2A1   -24.661204     3A1   -11.194850  
       4A1    -8.754264     1B1    -8.740274     1B2    -8.740274  
       5A1    -1.286096     6A1    -0.962699     7A1    -0.598524  
       2B2    -0.523893     2B1    -0.523893     3B1    -0.353767  
       3B2    -0.353767     8A1    -0.199975  

    Alpha Virtual:                                                        

       9A1     0.505434     4B2     0.553694     4B1     0.553694  
      10A1     0.681842     5B2     0.757534     5B1     0.757534  
       1A2     0.786189    11A1     0.786189    12A1     1.024146  
       6B2     1.249569     6B1     1.249569    13A1     1.251599  
      14A1     2.076730    15A1     3.570030     2A2     3.570050  
       7B2     3.581111     7B1     3.581111    16A1     3.930871  

    Beta Occupied:                                                        

       1A1  -115.152332     2A1   -24.641230     3A1   -11.190459  
       4A1    -8.742741     1B1    -8.737427     1B2    -8.737427  
       5A1    -1.240685     6A1    -0.931857     7A1    -0.535355  
       2B2    -0.508702     2B1    -0.508702     3B1    -0.337247  
       3B2    -0.337247  

    Beta Virtual:                                                         

       8A1    -0.044368     9A1     0.531905     4B2     0.561861  
       4B1     0.561861    10A1     0.697975     5B2     0.778721  
       5B1     0.778721     1A2     0.797255    11A1     0.797255  
      12A1     1.053812     6B2     1.262362     6B1     1.262362  
      13A1     1.306332    14A1     2.108178    15A1     3.580293  
       2A2     3.580313     7B2     3.627206     7B1     3.627206  
      16A1     3.983666  

    Final Occupation by Irrep:
             A1    A2    B1    B2 
    DOCC [     7,    0,    3,    3 ]
    SOCC [     1,    0,    0,    0 ]
    NA   [     8,    0,    3,    3 ]
    NB   [     7,    0,    3,    3 ]

  @DF-UKS Final Energy:  -627.09012404208772

   => Energetics <=

    Nuclear Repulsion Energy =             56.9295559938305047
    One-Electron Energy =                -980.5851395285834542
    Two-Electron Energy =                 330.0157757489035930
    DFT Exchange-Correlation Energy =     -33.4503162562383736
    Empirical Dispersion Energy =           0.0000000000000000
    VV10 Nonlocal Energy =                  0.0000000000000000
    Total Energy =                       -627.0901240420877230

  UHF NO Occupations:
  HONO-2 :    6 A1 1.9999311
  HONO-1 :    7 A1 1.9993973
  HONO-0 :    8 A1 1.0000000
  LUNO+0 :    9 A1 0.0006027
  LUNO+1 :   10 A1 0.0000689
  LUNO+2 :    4 B2 0.0000481
  LUNO+3 :    4 B1 0.0000481


Computation Completed


Properties will be evaluated at   0.000000,   0.000000,   0.000000 [a0]

Properties computed using the SCF density matrix


 Multipole Moments:

 ------------------------------------------------------------------------------------
     Multipole            Electronic (a.u.)      Nuclear  (a.u.)        Total (a.u.)
 ------------------------------------------------------------------------------------

 L = 1.  Multiply by 2.5417464519 to convert [e a0] to [Debye]
 Dipole X            :          0.0000000            0.0000000            0.0000000
 Dipole Y            :          0.0000000            0.0000000            0.0000000
 Dipole Z            :         -1.4255730            0.8537810           -0.5717920
 Magnitude           :                                                    0.5717920

 ------------------------------------------------------------------------------------

*** tstop() called on Joses-MacBook-Pro-2.local at Wed Jul 16 19:31:18 2025
Module time:
	user time   =       4.34 seconds =       0.07 minutes
	system time =       3.42 seconds =       0.06 minutes
	total time  =          1 seconds =       0.02 minutes
Total time:
	user time   =      17.36 seconds =       0.29 minutes
	system time =      13.96 seconds =       0.23 minutes
	total time  =          3 seconds =       0.05 minutes

*** tstart() called on Joses-MacBook-Pro-2.local
*** at Wed Jul 16 19:31:18 2025


         ------------------------------------------------------------
                                   SCF GRAD                          
                          Rob Parrish, Justin Turney,                
                       Andy Simmonett, and Alex Sokolov              
         ------------------------------------------------------------

  ==> Geometry <==

    Molecular point group: c2v
    Full point group: C_inf_v

    Geometry (in Angstrom), charge = 0, multiplicity = 2:

       Center              X                  Y                   Z               Mass       
    ------------   -----------------  -----------------  -----------------  -----------------
         F            0.000000000000     0.000000000000     1.020625613723    18.998403162730
         AR           0.000000000000     0.000000000000    -0.485212726871    39.962383123700

  Nuclear repulsion =   56.929555993830505

  ==> Basis Set <==

  Basis Set: CC-PVDZ
    Blend: CC-PVDZ
    Number of shells: 14
    Number of basis functions: 32
    Number of Cartesian functions: 34
    Spherical Harmonics?: true
    Max angular momentum: 2

  ==> DFJKGrad: Density-Fitted SCF Gradients <==

    Gradient:                    1
    J tasked:                  Yes
    K tasked:                  Yes
    wK tasked:                  No
    OpenMP threads:              1
    Integrals threads:           1
    Memory [MiB]:              375
    Schwarz Cutoff:          1E-12
    Fitting Condition:       1E-10

   => Auxiliary Basis Set <=

  Basis Set: (CC-PVDZ AUX)
    Blend: CC-PVDZ-JKFIT
    Number of shells: 60
    Number of basis functions: 182
    Number of Cartesian functions: 211
    Spherical Harmonics?: true
    Max angular momentum: 3

  ==> DFT Potential <==

   => LibXC <=

    Version 6.2.2
    S. Lehtola, C. Steigemann, M. J.T. Oliveira, and M. A.L. Marques.,  SoftwareX 7, 1–5 (2018) (10.1016/j.softx.2017.11.002)

   => Composite Functional: B3LYP <= 

    B3LYP Hyb-GGA Exchange-Correlation Functional

    P. J. Stephens, F. J. Devlin, C. F. Chabalowski, and M. J. Frisch.,  J. Phys. Chem. 98, 11623 (1994) (10.1021/j100096a001)

    Deriv               =              1
    GGA                 =           TRUE
    Meta                =          FALSE

    Exchange Hybrid     =           TRUE
    MP2 Hybrid          =          FALSE

   => Exchange Functionals <=

    0.0800   Slater exchange
    0.7200         Becke 88

   => Exact (HF) Exchange <=

    0.2000               HF 

   => Correlation Functionals <=

    0.1900   Vosko, Wilk & Nusair (VWN5_RPA)
    0.8100   Lee, Yang & Parr

   => LibXC Density Thresholds  <==

    XC_HYB_GGA_XC_B3LYP:  1.00E-15 

   => Molecular Quadrature <=

    Radial Scheme          =       TREUTLER
    Pruning Scheme         =           NONE
    Nuclear Scheme         =       TREUTLER

    Blocking Scheme        =         OCTREE
    BS radius alpha        =              1
    Pruning alpha          =              1
    Radial Points          =             75
    Spherical Points       =            302
    Total Points           =          41290
    Total Blocks           =            366
    Max Points             =            256
    Max Functions          =             32
    Weights Tolerance      =       1.00E-15


  -Total Gradient:
     Atom            X                  Y                   Z
    ------   -----------------  -----------------  -----------------
       1        0.000000000000     0.000000000000    -0.394473946542
       2        0.000000000000     0.000000000000     0.394429703605


*** tstop() called on Joses-MacBook-Pro-2.local at Wed Jul 16 19:31:18 2025
Module time:
	user time   =       0.89 seconds =       0.01 minutes
	system time =       1.28 seconds =       0.02 minutes
	total time  =          0 seconds =       0.00 minutes
Total time:
	user time   =      18.25 seconds =       0.30 minutes
	system time =      15.24 seconds =       0.25 minutes
	total time  =          3 seconds =       0.05 minutes

    			-----------------------------------------

    			 OPTKING 3.0: for geometry optimizations 

    			     By R.A. King, Bethel University     

    			        with contributions from          

    			    A.V. Copan, J. Cayton, A. Heide      

    			-----------------------------------------

    
	                            ===> Fragment 1 <== 

	 Z (Atomic Numbers)          Masses                          Geom                  
	       9.000000            18.998403          0.00000000  0.00000000  1.92870289   
	      18.000000            39.962383          0.00000000  0.00000000 -0.91691917   

	 - Coordinate -           - BOHR/RAD -       - ANG/DEG -
	 R(1,2)           =         2.845622           1.505838


	        --- Internal Coordinate Step in ANG or DEG, aJ/ANG or AJ/DEG ---
	-------------------------------------------------------------------------------
	           Coordinate      Previous         Force          Change          New 
	           ----------      --------        ------          ------        ------
	               R(1,2)       1.50584        3.24978        0.17724       1.68308
	-------------------------------------------------------------------------------

	                                 ==> Convergence Check <==                                  
    
	Measures of convergence in internal coordinates in au.
    
	Criteria marked as inactive (o), active & met (*), and active & unmet ( ).

	----------------------------------------------------------------------------------------------
	   Step    Total Energy     Delta E     Max Force     RMS Force      Max Disp      RMS Disp   
	----------------------------------------------------------------------------------------------
	  Convergence Criteria     1.00e-06 *    3.00e-04 *             o    1.20e-03 *             o
	----------------------------------------------------------------------------------------------
	     3    -627.09012404   -1.64e-01      3.94e-01      3.94e-01 o    3.35e-01      3.35e-01 o  ~
	----------------------------------------------------------------------------------------------

Next Geometry in Ang 
	Fragment 1 (Ang)

	    F   0.0000000000   0.0000000000   1.1092473771
	   Ar   0.0000000000   0.0000000000  -0.5738344902


    Structure for next step:
    Molecular point group: c2v
    Full point group: C_inf_v

    Geometry (in Angstrom), charge = 0, multiplicity = 2:

    F            0.000000000000     0.000000000000     1.140757555054
    AR           0.000000000000     0.000000000000    -0.542324312210


Scratch directory: /tmp/
gradient() will perform analytic gradient computation.
   => Libint2 <=

    Primary   basis highest AM E, G, H:  6, 6, 3
    Auxiliary basis highest AM E, G, H:  7, 7, 4
    Onebody   basis highest AM E, G, H:  -, -, -
    Solid Harmonics ordering:            Gaussian

*** tstart() called on Joses-MacBook-Pro-2.local
*** at Wed Jul 16 19:31:18 2025

   => Loading Basis Set <=

    Name: CC-PVDZ
    Role: ORBITAL
    Keyword: BASIS
    atoms 1 entry F          line   228 file /Users/joseantoniorodriguesromero/anaconda3/share/psi4/basis/cc-pvdz.gbs 
    atoms 2 entry AR         line   718 file /Users/joseantoniorodriguesromero/anaconda3/share/psi4/basis/cc-pvdz.gbs 


         ---------------------------------------------------------
                                   SCF
               by Justin Turney, Rob Parrish, Andy Simmonett
                          and Daniel G. A. Smith
                              UKS Reference
                        1 Threads,    500 MiB Core
         ---------------------------------------------------------

  ==> Geometry <==

    Molecular point group: c2v
    Full point group: C_inf_v

    Geometry (in Angstrom), charge = 0, multiplicity = 2:

       Center              X                  Y                   Z               Mass       
    ------------   -----------------  -----------------  -----------------  -----------------
         F            0.000000000000     0.000000000000     1.140757555054    18.998403162730
         AR           0.000000000000     0.000000000000    -0.542324312210    39.962383123700

  Running in c2v symmetry.

  Rotational constants: A = ************  B =      0.46215  C =      0.46215 [cm^-1]
  Rotational constants: A = ************  B =  13854.83969  C =  13854.83969 [MHz]
  Nuclear repulsion =   50.934366174296109

  Charge       = 0
  Multiplicity = 2
  Electrons    = 27
  Nalpha       = 14
  Nbeta        = 13

  ==> Algorithm <==

  SCF Algorithm Type is DF.
  DIIS enabled.
  MOM disabled.
  Fractional occupation disabled.
  Guess Type is READ.
  Energy threshold   = 1.00e-08
  Density threshold  = 1.00e-08
  Integral threshold = 1.00e-12

  ==> Primary Basis <==

  Basis Set: CC-PVDZ
    Blend: CC-PVDZ
    Number of shells: 14
    Number of basis functions: 32
    Number of Cartesian functions: 34
    Spherical Harmonics?: true
    Max angular momentum: 2

  ==> DFT Potential <==

   => LibXC <=

    Version 6.2.2
    S. Lehtola, C. Steigemann, M. J.T. Oliveira, and M. A.L. Marques.,  SoftwareX 7, 1–5 (2018) (10.1016/j.softx.2017.11.002)

   => Composite Functional: B3LYP <= 

    B3LYP Hyb-GGA Exchange-Correlation Functional

    P. J. Stephens, F. J. Devlin, C. F. Chabalowski, and M. J. Frisch.,  J. Phys. Chem. 98, 11623 (1994) (10.1021/j100096a001)

    Deriv               =              1
    GGA                 =           TRUE
    Meta                =          FALSE

    Exchange Hybrid     =           TRUE
    MP2 Hybrid          =          FALSE

   => Exchange Functionals <=

    0.0800   Slater exchange
    0.7200         Becke 88

   => Exact (HF) Exchange <=

    0.2000               HF 

   => Correlation Functionals <=

    0.1900   Vosko, Wilk & Nusair (VWN5_RPA)
    0.8100   Lee, Yang & Parr

   => LibXC Density Thresholds  <==

    XC_HYB_GGA_XC_B3LYP:  1.00E-15 

   => Molecular Quadrature <=

    Radial Scheme          =       TREUTLER
    Pruning Scheme         =           NONE
    Nuclear Scheme         =       TREUTLER

    Blocking Scheme        =         OCTREE
    BS radius alpha        =              1
    Pruning alpha          =              1
    Radial Points          =             75
    Spherical Points       =            302
    Total Points           =          41324
    Total Blocks           =            368
    Max Points             =            251
    Max Functions          =             32
    Weights Tolerance      =       1.00E-15

   => Loading Basis Set <=

    Name: (CC-PVDZ AUX)
    Role: JKFIT
    Keyword: DF_BASIS_SCF
    atoms 1 entry F          line   271 file /Users/joseantoniorodriguesromero/anaconda3/share/psi4/basis/cc-pvdz-jkfit.gbs 
    atoms 2 entry AR         line   741 file /Users/joseantoniorodriguesromero/anaconda3/share/psi4/basis/cc-pvdz-jkfit.gbs 

   => Loading Basis Set <=

    Name: CC-PVDZ
    Role: ORBITAL
    Keyword: BASIS
    atoms 1 entry F          line   228 file /Users/joseantoniorodriguesromero/anaconda3/share/psi4/basis/cc-pvdz.gbs 
    atoms 2 entry AR         line   718 file /Users/joseantoniorodriguesromero/anaconda3/share/psi4/basis/cc-pvdz.gbs 

  Reading orbitals from file /tmp/doublet_FAr.default.69142.180.npy, no projection.

  ==> Integral Setup <==

  DFHelper Memory: AOs need 0.002 GiB; user supplied 0.329 GiB. 
  Using in-core AOs.

  ==> MemDFJK: Density-Fitted J/K Matrices <==

    J tasked:                   Yes
    K tasked:                   Yes
    wK tasked:                   No
    OpenMP threads:               1
    Memory [MiB]:               337
    Algorithm:                 Core
    Schwarz Cutoff:           1E-12
    Mask sparsity (%):       0.0000
    Fitting Condition:        1E-10

   => Auxiliary Basis Set <=

  Basis Set: (CC-PVDZ AUX)
    Blend: CC-PVDZ-JKFIT
    Number of shells: 60
    Number of basis functions: 182
    Number of Cartesian functions: 211
    Spherical Harmonics?: true
    Max angular momentum: 3

  Cached 100.0% of DFT collocation blocks in 0.037 [GiB].

  Minimum eigenvalue in the overlap matrix is 5.9141575059E-02.
  Reciprocal condition number of the overlap matrix is 2.4243646489E-02.
    Using symmetric orthogonalization.

  ==> Pre-Iterations <==

  SCF Guess: Orbitals guess was supplied from a previous computation.

   -------------------------------------------------------
    Irrep   Nso     Nmo     Nalpha   Nbeta   Ndocc  Nsocc
   -------------------------------------------------------
     A1        16      16       8       7       7       1
     A2         2       2       0       0       0       0
     B1         7       7       3       3       3       0
     B2         7       7       3       3       3       0
   -------------------------------------------------------
    Total      32      32      14      13      13       1
   -------------------------------------------------------

  ==> Iterations <==

                           Total Energy        Delta E     RMS |[F,P]|

   @DF-UKS iter   0:  -627.18209848466358   -6.27182e+02   3.98386e-02 
   @DF-UKS iter   1:  -627.18234708513478   -2.48600e-04   5.57811e-03 DIIS/ADIIS
   @DF-UKS iter   2:  -627.18350865108096   -1.16157e-03   5.19191e-03 DIIS/ADIIS/DAMP=1%
   @DF-UKS iter   3:  -627.18990818539919   -6.39953e-03   1.05171e-03 DIIS/ADIIS/DAMP=1%
   @DF-UKS iter   4:  -627.18702064420324    2.88754e-03   1.32182e-04 DIIS/ADIIS/DAMP=1%
   @DF-UKS iter   5:  -627.18654894901920    4.71695e-04   3.69808e-05 DIIS/DAMP=1%
   @DF-UKS iter   6:  -627.18664504565709   -9.60966e-05   9.80378e-06 DIIS/DAMP=1%
   @DF-UKS iter   7:  -627.18662964440512    1.54013e-05   1.02411e-06 DIIS/DAMP=1%
   @DF-UKS iter   8:  -627.18663352209273   -3.87769e-06   9.33886e-08 DIIS/DAMP=1%
   @DF-UKS iter   9:  -627.18663353115971   -9.06698e-09   1.09054e-08 DIIS/DAMP=1%
   @DF-UKS iter  10:  -627.18663354328339   -1.21237e-08   1.57998e-09 DIIS/DAMP=1%
   @DF-UKS iter  11:  -627.18663354283535    4.48040e-10   2.65878e-10 DIIS/DAMP=1%
  Energy and wave function converged.


  ==> Post-Iterations <==

   Electrons on quadrature grid:
      Nalpha   =   13.9999934202 ; deviation = -6.580e-06
      Nbeta    =   12.9999940766 ; deviation = -5.923e-06
      Ntotal   =   26.9999874968 ; deviation = -1.250e-05 

   @Spin Contamination Metric:   1.855897030E-03
   @S^2 Expected:                7.500000000E-01
   @S^2 Observed:                7.518558970E-01
   @S   Expected:                5.000000000E-01
   @S   Observed:                5.000000000E-01

    Orbital Energies [Eh]
    ---------------------

    Alpha Occupied:                                                       

       1A1  -115.147887     2A1   -24.671545     3A1   -11.186696  
       4A1    -8.743530     1B1    -8.733423     1B2    -8.733423  
       5A1    -1.207344     6A1    -0.987400     7A1    -0.576951  
       2B2    -0.491959     2B1    -0.491959     3B2    -0.364605  
       3B1    -0.364605     8A1    -0.279366  

    Alpha Virtual:                                                        

       9A1     0.512026     4B2     0.560337     4B1     0.560337  
      10A1     0.691832     5B1     0.749473     5B2     0.749473  
       1A2     0.791205    11A1     0.791205    12A1     0.953045  
      13A1     1.237514     6B1     1.237993     6B2     1.237993  
      14A1     2.032813     7B2     3.555015     7B1     3.555015  
       2A2     3.589037    15A1     3.589112    16A1     3.726677  

    Beta Occupied:                                                        

       1A1  -115.144196     2A1   -24.648511     3A1   -11.182999  
       4A1    -8.733343     1B1    -8.731042     1B2    -8.731042  
       5A1    -1.156041     6A1    -0.957509     7A1    -0.503471  
       2B2    -0.480270     2B1    -0.480270     3B2    -0.345114  
       3B1    -0.345114  

    Beta Virtual:                                                         

       8A1    -0.105387     9A1     0.532224     4B2     0.565750  
       4B1     0.565750    10A1     0.706349     5B2     0.768786  
       5B1     0.768786     1A2     0.798624    11A1     0.798624  
      12A1     0.981862     6B1     1.251469     6B2     1.251469  
      13A1     1.298992    14A1     2.071536     2A2     3.600574  
      15A1     3.600652     7B1     3.616452     7B2     3.616452  
      16A1     3.800667  

    Final Occupation by Irrep:
             A1    A2    B1    B2 
    DOCC [     7,    0,    3,    3 ]
    SOCC [     1,    0,    0,    0 ]
    NA   [     8,    0,    3,    3 ]
    NB   [     7,    0,    3,    3 ]

  @DF-UKS Final Energy:  -627.18663354283535

   => Energetics <=

    Nuclear Repulsion Energy =             50.9343661742961089
    One-Electron Energy =                -969.0596030037731907
    Two-Electron Energy =                 324.3276269017536038
    DFT Exchange-Correlation Energy =     -33.3890236151118813
    Empirical Dispersion Energy =           0.0000000000000000
    VV10 Nonlocal Energy =                  0.0000000000000000
    Total Energy =                       -627.1866335428353523

  UHF NO Occupations:
  HONO-2 :    6 A1 1.9998765
  HONO-1 :    7 A1 1.9993857
  HONO-0 :    8 A1 1.0000000
  LUNO+0 :    9 A1 0.0006143
  LUNO+1 :   10 A1 0.0001235
  LUNO+2 :    4 B2 0.0000506
  LUNO+3 :    4 B1 0.0000506


Computation Completed


Properties will be evaluated at   0.000000,   0.000000,   0.000000 [a0]

Properties computed using the SCF density matrix


 Multipole Moments:

 ------------------------------------------------------------------------------------
     Multipole            Electronic (a.u.)      Nuclear  (a.u.)        Total (a.u.)
 ------------------------------------------------------------------------------------

 L = 1.  Multiply by 2.5417464519 to convert [e a0] to [Debye]
 Dipole X            :          0.0000000            0.0000000            0.0000000
 Dipole Y            :          0.0000000            0.0000000            0.0000000
 Dipole Z            :         -1.6261123            0.9542746           -0.6718376
 Magnitude           :                                                    0.6718376

 ------------------------------------------------------------------------------------

*** tstop() called on Joses-MacBook-Pro-2.local at Wed Jul 16 19:31:19 2025
Module time:
	user time   =       5.00 seconds =       0.08 minutes
	system time =       3.11 seconds =       0.05 minutes
	total time  =          1 seconds =       0.02 minutes
Total time:
	user time   =      23.29 seconds =       0.39 minutes
	system time =      18.58 seconds =       0.31 minutes
	total time  =          4 seconds =       0.07 minutes

*** tstart() called on Joses-MacBook-Pro-2.local
*** at Wed Jul 16 19:31:19 2025


         ------------------------------------------------------------
                                   SCF GRAD                          
                          Rob Parrish, Justin Turney,                
                       Andy Simmonett, and Alex Sokolov              
         ------------------------------------------------------------

  ==> Geometry <==

    Molecular point group: c2v
    Full point group: C_inf_v

    Geometry (in Angstrom), charge = 0, multiplicity = 2:

       Center              X                  Y                   Z               Mass       
    ------------   -----------------  -----------------  -----------------  -----------------
         F            0.000000000000     0.000000000000     1.140757555054    18.998403162730
         AR           0.000000000000     0.000000000000    -0.542324312210    39.962383123700

  Nuclear repulsion =   50.934366174296109

  ==> Basis Set <==

  Basis Set: CC-PVDZ
    Blend: CC-PVDZ
    Number of shells: 14
    Number of basis functions: 32
    Number of Cartesian functions: 34
    Spherical Harmonics?: true
    Max angular momentum: 2

  ==> DFJKGrad: Density-Fitted SCF Gradients <==

    Gradient:                    1
    J tasked:                  Yes
    K tasked:                  Yes
    wK tasked:                  No
    OpenMP threads:              1
    Integrals threads:           1
    Memory [MiB]:              375
    Schwarz Cutoff:          1E-12
    Fitting Condition:       1E-10

   => Auxiliary Basis Set <=

  Basis Set: (CC-PVDZ AUX)
    Blend: CC-PVDZ-JKFIT
    Number of shells: 60
    Number of basis functions: 182
    Number of Cartesian functions: 211
    Spherical Harmonics?: true
    Max angular momentum: 3

  ==> DFT Potential <==

   => LibXC <=

    Version 6.2.2
    S. Lehtola, C. Steigemann, M. J.T. Oliveira, and M. A.L. Marques.,  SoftwareX 7, 1–5 (2018) (10.1016/j.softx.2017.11.002)

   => Composite Functional: B3LYP <= 

    B3LYP Hyb-GGA Exchange-Correlation Functional

    P. J. Stephens, F. J. Devlin, C. F. Chabalowski, and M. J. Frisch.,  J. Phys. Chem. 98, 11623 (1994) (10.1021/j100096a001)

    Deriv               =              1
    GGA                 =           TRUE
    Meta                =          FALSE

    Exchange Hybrid     =           TRUE
    MP2 Hybrid          =          FALSE

   => Exchange Functionals <=

    0.0800   Slater exchange
    0.7200         Becke 88

   => Exact (HF) Exchange <=

    0.2000               HF 

   => Correlation Functionals <=

    0.1900   Vosko, Wilk & Nusair (VWN5_RPA)
    0.8100   Lee, Yang & Parr

   => LibXC Density Thresholds  <==

    XC_HYB_GGA_XC_B3LYP:  1.00E-15 

   => Molecular Quadrature <=

    Radial Scheme          =       TREUTLER
    Pruning Scheme         =           NONE
    Nuclear Scheme         =       TREUTLER

    Blocking Scheme        =         OCTREE
    BS radius alpha        =              1
    Pruning alpha          =              1
    Radial Points          =             75
    Spherical Points       =            302
    Total Points           =          41324
    Total Blocks           =            368
    Max Points             =            251
    Max Functions          =             32
    Weights Tolerance      =       1.00E-15


  -Total Gradient:
     Atom            X                  Y                   Z
    ------   -----------------  -----------------  -----------------
       1       -0.000000000000     0.000000000000    -0.201084700384
       2        0.000000000000     0.000000000000     0.201009158473


*** tstop() called on Joses-MacBook-Pro-2.local at Wed Jul 16 19:31:19 2025
Module time:
	user time   =       0.88 seconds =       0.01 minutes
	system time =       1.36 seconds =       0.02 minutes
	total time  =          0 seconds =       0.00 minutes
Total time:
	user time   =      24.17 seconds =       0.40 minutes
	system time =      19.95 seconds =       0.33 minutes
	total time  =          4 seconds =       0.07 minutes

    			-----------------------------------------

    			 OPTKING 3.0: for geometry optimizations 

    			     By R.A. King, Bethel University     

    			        with contributions from          

    			    A.V. Copan, J. Cayton, A. Heide      

    			-----------------------------------------

    
	                            ===> Fragment 1 <== 

	 Z (Atomic Numbers)          Masses                          Geom                  
	       9.000000            18.998403          0.00000000  0.00000000  2.15571935   
	      18.000000            39.962383          0.00000000  0.00000000 -1.02484442   

	 - Coordinate -           - BOHR/RAD -       - ANG/DEG -
	 R(1,2)           =         3.180564           1.683082


	        --- Internal Coordinate Step in ANG or DEG, aJ/ANG or AJ/DEG ---
	-------------------------------------------------------------------------------
	           Coordinate      Previous         Force          Change          New 
	           ----------      --------        ------          ------        ------
	               R(1,2)       1.68308        1.65637        0.16610       1.84918
	-------------------------------------------------------------------------------

	                                 ==> Convergence Check <==                                  
    
	Measures of convergence in internal coordinates in au.
    
	Criteria marked as inactive (o), active & met (*), and active & unmet ( ).

	----------------------------------------------------------------------------------------------
	   Step    Total Energy     Delta E     Max Force     RMS Force      Max Disp      RMS Disp   
	----------------------------------------------------------------------------------------------
	  Convergence Criteria     1.00e-06 *    3.00e-04 *             o    1.20e-03 *             o
	----------------------------------------------------------------------------------------------
	     4    -627.18663354   -9.65e-02      2.01e-01      2.01e-01 o    3.14e-01      3.14e-01 o  ~
	----------------------------------------------------------------------------------------------

Next Geometry in Ang 
	Fragment 1 (Ang)

	    F   0.0000000000   0.0000000000   1.2238052719
	   Ar   0.0000000000   0.0000000000  -0.6253720291


    Structure for next step:
    Molecular point group: c2v
    Full point group: C_inf_v

    Geometry (in Angstrom), charge = 0, multiplicity = 2:

    F            0.000000000000     0.000000000000     1.253333553058
    AR           0.000000000000     0.000000000000    -0.595843747973


Scratch directory: /tmp/
gradient() will perform analytic gradient computation.
   => Libint2 <=

    Primary   basis highest AM E, G, H:  6, 6, 3
    Auxiliary basis highest AM E, G, H:  7, 7, 4
    Onebody   basis highest AM E, G, H:  -, -, -
    Solid Harmonics ordering:            Gaussian

*** tstart() called on Joses-MacBook-Pro-2.local
*** at Wed Jul 16 19:31:19 2025

   => Loading Basis Set <=

    Name: CC-PVDZ
    Role: ORBITAL
    Keyword: BASIS
    atoms 1 entry F          line   228 file /Users/joseantoniorodriguesromero/anaconda3/share/psi4/basis/cc-pvdz.gbs 
    atoms 2 entry AR         line   718 file /Users/joseantoniorodriguesromero/anaconda3/share/psi4/basis/cc-pvdz.gbs 


         ---------------------------------------------------------
                                   SCF
               by Justin Turney, Rob Parrish, Andy Simmonett
                          and Daniel G. A. Smith
                              UKS Reference
                        1 Threads,    500 MiB Core
         ---------------------------------------------------------

  ==> Geometry <==

    Molecular point group: c2v
    Full point group: C_inf_v

    Geometry (in Angstrom), charge = 0, multiplicity = 2:

       Center              X                  Y                   Z               Mass       
    ------------   -----------------  -----------------  -----------------  -----------------
         F            0.000000000000     0.000000000000     1.253333553058    18.998403162730
         AR           0.000000000000     0.000000000000    -0.595843747973    39.962383123700

  Running in c2v symmetry.

  Rotational constants: A = ************  B =      0.38285  C =      0.38285 [cm^-1]
  Rotational constants: A = ************  B =  11477.70028  C =  11477.70028 [MHz]
  Nuclear repulsion =   46.359377265095091

  Charge       = 0
  Multiplicity = 2
  Electrons    = 27
  Nalpha       = 14
  Nbeta        = 13

  ==> Algorithm <==

  SCF Algorithm Type is DF.
  DIIS enabled.
  MOM disabled.
  Fractional occupation disabled.
  Guess Type is READ.
  Energy threshold   = 1.00e-08
  Density threshold  = 1.00e-08
  Integral threshold = 1.00e-12

  ==> Primary Basis <==

  Basis Set: CC-PVDZ
    Blend: CC-PVDZ
    Number of shells: 14
    Number of basis functions: 32
    Number of Cartesian functions: 34
    Spherical Harmonics?: true
    Max angular momentum: 2

  ==> DFT Potential <==

   => LibXC <=

    Version 6.2.2
    S. Lehtola, C. Steigemann, M. J.T. Oliveira, and M. A.L. Marques.,  SoftwareX 7, 1–5 (2018) (10.1016/j.softx.2017.11.002)

   => Composite Functional: B3LYP <= 

    B3LYP Hyb-GGA Exchange-Correlation Functional

[...]
    
	Measures of convergence in internal coordinates in au.
    
	Criteria marked as inactive (o), active & met (*), and active & unmet ( ).

	----------------------------------------------------------------------------------------------
	   Step    Total Energy     Delta E     Max Force     RMS Force      Max Disp      RMS Disp   
	----------------------------------------------------------------------------------------------
	  Convergence Criteria     1.00e-06 *    3.00e-04 *             o    1.20e-03 *             o
	----------------------------------------------------------------------------------------------
	    15    -627.27047334   -2.97e-06      8.53e-05 *    8.53e-05 o    1.04e-02      1.04e-02 o  ~
	----------------------------------------------------------------------------------------------

Next Geometry in Ang 
	Fragment 1 (Ang)

	    F   0.0000000000   0.0000000000   1.7701483114
	   Ar   0.0000000000   0.0000000000  -0.8429913017


    Structure for next step:
    Molecular point group: c2v
    Full point group: C_inf_v

    Geometry (in Angstrom), charge = 0, multiplicity = 2:

    F            0.000000000000     0.000000000000     1.771131169580
    AR           0.000000000000     0.000000000000    -0.842008443531


Scratch directory: /tmp/
gradient() will perform analytic gradient computation.
   => Libint2 <=

    Primary   basis highest AM E, G, H:  6, 6, 3
    Auxiliary basis highest AM E, G, H:  7, 7, 4
    Onebody   basis highest AM E, G, H:  -, -, -
    Solid Harmonics ordering:            Gaussian

*** tstart() called on Joses-MacBook-Pro-2.local
*** at Wed Jul 16 19:31:29 2025

   => Loading Basis Set <=

    Name: CC-PVDZ
    Role: ORBITAL
    Keyword: BASIS
    atoms 1 entry F          line   228 file /Users/joseantoniorodriguesromero/anaconda3/share/psi4/basis/cc-pvdz.gbs 
    atoms 2 entry AR         line   718 file /Users/joseantoniorodriguesromero/anaconda3/share/psi4/basis/cc-pvdz.gbs 


         ---------------------------------------------------------
                                   SCF
               by Justin Turney, Rob Parrish, Andy Simmonett
                          and Daniel G. A. Smith
                              UKS Reference
                        1 Threads,    500 MiB Core
         ---------------------------------------------------------

  ==> Geometry <==

    Molecular point group: c2v
    Full point group: C_inf_v

    Geometry (in Angstrom), charge = 0, multiplicity = 2:

       Center              X                  Y                   Z               Mass       
    ------------   -----------------  -----------------  -----------------  -----------------
         F            0.000000000000     0.000000000000     1.771131169580    18.998403162730
         AR           0.000000000000     0.000000000000    -0.842008443531    39.962383123700

  Running in c2v symmetry.

  Rotational constants: A = ************  B =      0.19172  C =      0.19172 [cm^-1]
  Rotational constants: A = ************  B =   5747.60296  C =   5747.60296 [MHz]
  Nuclear repulsion =   32.806019126731528

  Charge       = 0
  Multiplicity = 2
  Electrons    = 27
  Nalpha       = 14
  Nbeta        = 13

  ==> Algorithm <==

  SCF Algorithm Type is DF.
  DIIS enabled.
  MOM disabled.
  Fractional occupation disabled.
  Guess Type is READ.
  Energy threshold   = 1.00e-08
  Density threshold  = 1.00e-08
  Integral threshold = 1.00e-12

  ==> Primary Basis <==

  Basis Set: CC-PVDZ
    Blend: CC-PVDZ
    Number of shells: 14
    Number of basis functions: 32
    Number of Cartesian functions: 34
    Spherical Harmonics?: true
    Max angular momentum: 2

  ==> DFT Potential <==

   => LibXC <=

    Version 6.2.2
    S. Lehtola, C. Steigemann, M. J.T. Oliveira, and M. A.L. Marques.,  SoftwareX 7, 1–5 (2018) (10.1016/j.softx.2017.11.002)

   => Composite Functional: B3LYP <= 

    B3LYP Hyb-GGA Exchange-Correlation Functional

    P. J. Stephens, F. J. Devlin, C. F. Chabalowski, and M. J. Frisch.,  J. Phys. Chem. 98, 11623 (1994) (10.1021/j100096a001)

    Deriv               =              1
    GGA                 =           TRUE
    Meta                =          FALSE

    Exchange Hybrid     =           TRUE
    MP2 Hybrid          =          FALSE

   => Exchange Functionals <=

    0.0800   Slater exchange
    0.7200         Becke 88

   => Exact (HF) Exchange <=

    0.2000               HF 

   => Correlation Functionals <=

    0.1900   Vosko, Wilk & Nusair (VWN5_RPA)
    0.8100   Lee, Yang & Parr

   => LibXC Density Thresholds  <==

    XC_HYB_GGA_XC_B3LYP:  1.00E-15 

   => Molecular Quadrature <=

    Radial Scheme          =       TREUTLER
    Pruning Scheme         =           NONE
    Nuclear Scheme         =       TREUTLER

    Blocking Scheme        =         OCTREE
    BS radius alpha        =              1
    Pruning alpha          =              1
    Radial Points          =             75
    Spherical Points       =            302
    Total Points           =          41449
    Total Blocks           =            374
    Max Points             =            252
    Max Functions          =             32
    Weights Tolerance      =       1.00E-15

   => Loading Basis Set <=

    Name: (CC-PVDZ AUX)
    Role: JKFIT
    Keyword: DF_BASIS_SCF
    atoms 1 entry F          line   271 file /Users/joseantoniorodriguesromero/anaconda3/share/psi4/basis/cc-pvdz-jkfit.gbs 
    atoms 2 entry AR         line   741 file /Users/joseantoniorodriguesromero/anaconda3/share/psi4/basis/cc-pvdz-jkfit.gbs 

   => Loading Basis Set <=

    Name: CC-PVDZ
    Role: ORBITAL
    Keyword: BASIS
    atoms 1 entry F          line   228 file /Users/joseantoniorodriguesromero/anaconda3/share/psi4/basis/cc-pvdz.gbs 
    atoms 2 entry AR         line   718 file /Users/joseantoniorodriguesromero/anaconda3/share/psi4/basis/cc-pvdz.gbs 

  Reading orbitals from file /tmp/doublet_FAr.default.69142.180.npy, no projection.

  ==> Integral Setup <==

  DFHelper Memory: AOs need 0.002 GiB; user supplied 0.332 GiB. 
  Using in-core AOs.

  ==> MemDFJK: Density-Fitted J/K Matrices <==

    J tasked:                   Yes
    K tasked:                   Yes
    wK tasked:                   No
    OpenMP threads:               1
    Memory [MiB]:               340
    Algorithm:                 Core
    Schwarz Cutoff:           1E-12
    Mask sparsity (%):       0.0000
    Fitting Condition:        1E-10

   => Auxiliary Basis Set <=

  Basis Set: (CC-PVDZ AUX)
    Blend: CC-PVDZ-JKFIT
    Number of shells: 60
    Number of basis functions: 182
    Number of Cartesian functions: 211
    Spherical Harmonics?: true
    Max angular momentum: 3

  Cached 100.0% of DFT collocation blocks in 0.034 [GiB].

  Minimum eigenvalue in the overlap matrix is 1.0668367015E-01.
  Reciprocal condition number of the overlap matrix is 5.9142315793E-02.
    Using symmetric orthogonalization.

  ==> Pre-Iterations <==

  SCF Guess: Orbitals guess was supplied from a previous computation.

   -------------------------------------------------------
    Irrep   Nso     Nmo     Nalpha   Nbeta   Ndocc  Nsocc
   -------------------------------------------------------
     A1        16      16       8       7       7       1
     A2         2       2       0       0       0       0
     B1         7       7       3       3       3       0
     B2         7       7       3       3       3       0
   -------------------------------------------------------
    Total      32      32      14      13      13       1
   -------------------------------------------------------

  ==> Iterations <==

                           Total Energy        Delta E     RMS |[F,P]|

   @DF-UKS iter   0:  -627.27031741101689   -6.27270e+02   8.31875e-05 
   @DF-UKS iter   1:  -627.27047388737594   -1.56476e-04   1.66791e-05 DIIS
   @DF-UKS iter   2:  -627.27047390040980   -1.30339e-08   1.39650e-05 DIIS/DAMP=1%
   @DF-UKS iter   3:  -627.27047239959404    1.50082e-06   1.76050e-06 DIIS/DAMP=1%
   @DF-UKS iter   4:  -627.27047335940756   -9.59814e-07   4.07627e-07 DIIS/DAMP=1%
   @DF-UKS iter   5:  -627.27047430346761   -9.44060e-07   7.51050e-08 DIIS/DAMP=1%
   @DF-UKS iter   6:  -627.27047384421098    4.59257e-07   1.48640e-08 DIIS/DAMP=1%
   @DF-UKS iter   7:  -627.27047393905866   -9.48477e-08   2.62908e-09 DIIS/DAMP=1%
   @DF-UKS iter   8:  -627.27047392592624    1.31324e-08   6.63332e-10 DIIS/DAMP=1%
   @DF-UKS iter   9:  -627.27047392742656   -1.50033e-09   4.17051e-11 DIIS/DAMP=1%
  Energy and wave function converged.


  ==> Post-Iterations <==

   Electrons on quadrature grid:
      Nalpha   =   14.0000066768 ; deviation = 6.677e-06
      Nbeta    =   13.0000094464 ; deviation = 9.446e-06
      Ntotal   =   27.0000161232 ; deviation = 1.612e-05 

   @Spin Contamination Metric:   9.948871121E-04
   @S^2 Expected:                7.500000000E-01
   @S^2 Observed:                7.509948871E-01
   @S   Expected:                5.000000000E-01
   @S   Observed:                5.000000000E-01

    Orbital Energies [Eh]
    ---------------------

    Alpha Occupied:                                                       

       1A1  -115.113034     2A1   -24.763873     3A1   -11.149009  
       4A1    -8.699962     1B2    -8.698506     1B1    -8.698506  
       5A1    -1.196024     6A1    -0.977039     7A1    -0.529123  
       2B1    -0.439572     2B2    -0.439572     3B1    -0.427721  
       3B2    -0.427721     8A1    -0.426750  

    Alpha Virtual:                                                        

       4B1     0.573178     4B2     0.573178     9A1     0.582123  
      10A1     0.697085    11A1     0.804657     5B1     0.821366  
       5B2     0.821366     1A2     0.825399    12A1     0.825400  
       6B1     1.110796     6B2     1.110796    13A1     1.169273  
      14A1     1.535498    15A1     3.463498     7B1     3.478211  
       7B2     3.478211    16A1     3.545069     2A2     3.545187  

    Beta Occupied:                                                        

       1A1  -115.112469     2A1   -24.734081     3A1   -11.148469  
       4A1    -8.698296     1B2    -8.698164     1B1    -8.698164  
       5A1    -1.108912     6A1    -0.973783     7A1    -0.434658  
       2B1    -0.432533     2B2    -0.432533     3B1    -0.403477  
       3B2    -0.403477  

    Beta Virtual:                                                         

       8A1    -0.231413     4B1     0.573743     4B2     0.573743  
       9A1     0.592605    10A1     0.705650    11A1     0.812160  
       5B2     0.824781     5B1     0.824781     1A2     0.826093  
      12A1     0.826093     6B1     1.127861     6B2     1.127861  
      13A1     1.258681    14A1     1.580330    15A1     3.559774  
       2A2     3.559893     7B2     3.569929     7B1     3.569929  
      16A1     3.593585  

    Final Occupation by Irrep:
             A1    A2    B1    B2 
    DOCC [     7,    0,    3,    3 ]
    SOCC [     1,    0,    0,    0 ]
    NA   [     8,    0,    3,    3 ]
    NB   [     7,    0,    3,    3 ]

  @DF-UKS Final Energy:  -627.27047392742656

   => Energetics <=

    Nuclear Repulsion Energy =             32.8060191267315275
    One-Electron Energy =                -933.1917728402120247
    Two-Electron Energy =                 306.4006217932109166
    DFT Exchange-Correlation Energy =     -33.2853420071569701
    Empirical Dispersion Energy =           0.0000000000000000
    VV10 Nonlocal Energy =                  0.0000000000000000
    Total Energy =                       -627.2704739274265648

  UHF NO Occupations:
  HONO-2 :    6 A1 1.9999005
  HONO-1 :    7 A1 1.9997130
  HONO-0 :    8 A1 1.0000000
  LUNO+0 :    9 A1 0.0002870
  LUNO+1 :   10 A1 0.0000995
  LUNO+2 :    4 B2 0.0000542
  LUNO+3 :    4 B1 0.0000542


Computation Completed


Properties will be evaluated at   0.000000,   0.000000,   0.000000 [a0]

Properties computed using the SCF density matrix


 Multipole Moments:

 ------------------------------------------------------------------------------------
     Multipole            Electronic (a.u.)      Nuclear  (a.u.)        Total (a.u.)
 ------------------------------------------------------------------------------------

 L = 1.  Multiply by 2.5417464519 to convert [e a0] to [Debye]
 Dipole X            :          0.0000000            0.0000000            0.0000000
 Dipole Y            :          0.0000000            0.0000000            0.0000000
 Dipole Z            :         -1.6607010            1.4815992           -0.1791018
 Magnitude           :                                                    0.1791018

 ------------------------------------------------------------------------------------

*** tstop() called on Joses-MacBook-Pro-2.local at Wed Jul 16 19:31:30 2025
Module time:
	user time   =       3.34 seconds =       0.06 minutes
	system time =       3.67 seconds =       0.06 minutes
	total time  =          1 seconds =       0.02 minutes
Total time:
	user time   =      83.03 seconds =       1.38 minutes
	system time =      75.01 seconds =       1.25 minutes
	total time  =         15 seconds =       0.25 minutes

*** tstart() called on Joses-MacBook-Pro-2.local
*** at Wed Jul 16 19:31:30 2025


         ------------------------------------------------------------
                                   SCF GRAD                          
                          Rob Parrish, Justin Turney,                
                       Andy Simmonett, and Alex Sokolov              
         ------------------------------------------------------------

  ==> Geometry <==

    Molecular point group: c2v
    Full point group: C_inf_v

    Geometry (in Angstrom), charge = 0, multiplicity = 2:

       Center              X                  Y                   Z               Mass       
    ------------   -----------------  -----------------  -----------------  -----------------
         F            0.000000000000     0.000000000000     1.771131169580    18.998403162730
         AR           0.000000000000     0.000000000000    -0.842008443531    39.962383123700

  Nuclear repulsion =   32.806019126731528

  ==> Basis Set <==

  Basis Set: CC-PVDZ
    Blend: CC-PVDZ
    Number of shells: 14
    Number of basis functions: 32
    Number of Cartesian functions: 34
    Spherical Harmonics?: true
    Max angular momentum: 2

  ==> DFJKGrad: Density-Fitted SCF Gradients <==

    Gradient:                    1
    J tasked:                  Yes
    K tasked:                  Yes
    wK tasked:                  No
    OpenMP threads:              1
    Integrals threads:           1
    Memory [MiB]:              375
    Schwarz Cutoff:          1E-12
    Fitting Condition:       1E-10

   => Auxiliary Basis Set <=

  Basis Set: (CC-PVDZ AUX)
    Blend: CC-PVDZ-JKFIT
    Number of shells: 60
    Number of basis functions: 182
    Number of Cartesian functions: 211
    Spherical Harmonics?: true
    Max angular momentum: 3

  ==> DFT Potential <==

   => LibXC <=

    Version 6.2.2
    S. Lehtola, C. Steigemann, M. J.T. Oliveira, and M. A.L. Marques.,  SoftwareX 7, 1–5 (2018) (10.1016/j.softx.2017.11.002)

   => Composite Functional: B3LYP <= 

    B3LYP Hyb-GGA Exchange-Correlation Functional

    P. J. Stephens, F. J. Devlin, C. F. Chabalowski, and M. J. Frisch.,  J. Phys. Chem. 98, 11623 (1994) (10.1021/j100096a001)

    Deriv               =              1
    GGA                 =           TRUE
    Meta                =          FALSE

    Exchange Hybrid     =           TRUE
    MP2 Hybrid          =          FALSE

   => Exchange Functionals <=

    0.0800   Slater exchange
    0.7200         Becke 88

   => Exact (HF) Exchange <=

    0.2000               HF 

   => Correlation Functionals <=

    0.1900   Vosko, Wilk & Nusair (VWN5_RPA)
    0.8100   Lee, Yang & Parr

   => LibXC Density Thresholds  <==

    XC_HYB_GGA_XC_B3LYP:  1.00E-15 

   => Molecular Quadrature <=

    Radial Scheme          =       TREUTLER
    Pruning Scheme         =           NONE
    Nuclear Scheme         =       TREUTLER

    Blocking Scheme        =         OCTREE
    BS radius alpha        =              1
    Pruning alpha          =              1
    Radial Points          =             75
    Spherical Points       =            302
    Total Points           =          41449
    Total Blocks           =            374
    Max Points             =            252
    Max Functions          =             32
    Weights Tolerance      =       1.00E-15


  -Total Gradient:
     Atom            X                  Y                   Z
    ------   -----------------  -----------------  -----------------
       1        0.000000000000    -0.000000000000    -0.000009197377
       2        0.000000000000     0.000000000000     0.000040761670


*** tstop() called on Joses-MacBook-Pro-2.local at Wed Jul 16 19:31:30 2025
Module time:
	user time   =       0.55 seconds =       0.01 minutes
	system time =       1.83 seconds =       0.03 minutes
	total time  =          0 seconds =       0.00 minutes
Total time:
	user time   =      83.59 seconds =       1.39 minutes
	system time =      76.84 seconds =       1.28 minutes
	total time  =         15 seconds =       0.25 minutes

    			-----------------------------------------

    			 OPTKING 3.0: for geometry optimizations 

    			     By R.A. King, Bethel University     

    			        with contributions from          

    			    A.V. Copan, J. Cayton, A. Heide      

    			-----------------------------------------

    
	                            ===> Fragment 1 <== 

	 Z (Atomic Numbers)          Masses                          Geom                  
	       9.000000            18.998403          0.00000000  0.00000000  3.34695284   
	      18.000000            39.962383          0.00000000  0.00000000 -1.59116535   

	 - Coordinate -           - BOHR/RAD -       - ANG/DEG -
	 R(1,2)           =         4.938118           2.613140


	        --- Internal Coordinate Step in ANG or DEG, aJ/ANG or AJ/DEG ---
	-------------------------------------------------------------------------------
	           Coordinate      Previous         Force          Change          New 
	           ----------      --------        ------          ------        ------
	               R(1,2)       2.61314        0.00021        0.00186       2.61500
	-------------------------------------------------------------------------------

	                                 ==> Convergence Check <==                                  
    
	Measures of convergence in internal coordinates in au.
    
	Criteria marked as inactive (o), active & met (*), and active & unmet ( ).

	----------------------------------------------------------------------------------------------
	   Step    Total Energy     Delta E     Max Force     RMS Force      Max Disp      RMS Disp   
	----------------------------------------------------------------------------------------------
	  Convergence Criteria     1.00e-06 *    3.00e-04 *             o    1.20e-03 *             o
	----------------------------------------------------------------------------------------------
	    16    -627.27047393   -5.92e-07 *    2.50e-05 *    2.50e-05 o    3.52e-03      3.52e-03 o  ~
	----------------------------------------------------------------------------------------------

Next Geometry in Ang 
	Fragment 1 (Ang)

	    F   0.0000000000   0.0000000000   1.7720635972
	   Ar   0.0000000000   0.0000000000  -0.8429408711


    Final optimized geometry and variables:
    Molecular point group: c2v
    Full point group: C_inf_v

    Geometry (in Angstrom), charge = 0, multiplicity = 2:

    F            0.000000000000     0.000000000000     1.771131169580
    AR           0.000000000000     0.000000000000    -0.842008443531


    Psi4 stopped on: Wednesday, 16 July 2025 07:31PM
    Psi4 wall time for execution: 0:00:15.99

*** Psi4 exiting successfully. Buy a developer a beer!
