
    -----------------------------------------------------------------------
          Psi4: An Open-Source Ab Initio Electronic Structure Package
                               Psi4 1.9.1 release

                         Git: Rev {} zzzzzzz 


    D. G. A. Smith, L. A. Burns, A. C. Simmonett, R. M. Parrish,
    M. C. Schieber, R. Galvelis, P. Kraus, H. Kruse, R. Di Remigio,
    A. Alenaizan, A. M. James, S. Lehtola, J. P. Misiewicz, M. Scheurer,
    R. A. Shaw, J. B. Schriber, Y. Xie, Z. L. Glick, D. A. Sirianni,
    J. S. O'Brien, J. M. Waldrop, A. Kumar, E. G. Hohenstein,
    B. P. Pritchard, B. R. Brooks, H. F. Schaefer III, A. Yu. Sokolov,
    K. Patkowski, A. E. DePrince III, U. Bozkaya, R. A. King,
    F. A. Evangelista, J. M. Turney, T. D. Crawford, C. D. Sherrill,
    J. Chem. Phys. 152(18) 184108 (2020). https://doi.org/10.1063/5.0006002

                            Additional Code Authors
    E. T. Seidl, C. L. Janssen, E. F. Valeev, M. L. Leininger,
    J. F. Gonthier, R. M. Richard, H. R. McAlexander, M. Saitow, X. Wang,
    P. Verma, M. H. Lechner, A. Jiang, S. Behnle, A. G. Heide,
    M. F. Herbst, and D. L. Poole

             Previous Authors, Complete List of Code Contributors,
                       and Citations for Specific Modules
    https://github.com/psi4/psi4/blob/master/codemeta.json
    https://github.com/psi4/psi4/graphs/contributors
    http://psicode.org/psi4manual/master/introduction.html#citing-psifour

    -----------------------------------------------------------------------


    Psi4 started on: Wednesday, 16 July 2025 06:52PM

    Process ID: 68672
    Host:       Joses-MacBook-Pro-2.local
    PSIDATADIR: /Users/joseantoniorodriguesromero/anaconda3/share/psi4
    Memory:     500.0 MiB
    Threads:    1
    
  ==> Input File <==

--------------------------------------------------------------------------
molecule { 
0 2
B   0.00000        0.60000        0.00000
Mg   0.00000       -0.60000        0.00000
}

set { 
basis              cc-pvdz
reference          uks
maxiter            500
geom_maxiter       500
DAMPING_PERCENTAGE 1
guess              SAP
}

optimize('b3lyp')
--------------------------------------------------------------------------

Scratch directory: /tmp/
gradient() will perform analytic gradient computation.
   => Libint2 <=

    Primary   basis highest AM E, G, H:  6, 6, 3
    Auxiliary basis highest AM E, G, H:  7, 7, 4
    Onebody   basis highest AM E, G, H:  -, -, -
    Solid Harmonics ordering:            Gaussian

*** tstart() called on Joses-MacBook-Pro-2.local
*** at Wed Jul 16 18:52:41 2025

   => Loading Basis Set <=

    Name: CC-PVDZ
    Role: ORBITAL
    Keyword: BASIS
    atoms 1 entry B          line   108 file /Users/joseantoniorodriguesromero/anaconda3/share/psi4/basis/cc-pvdz.gbs 
    atoms 2 entry MG         line   353 file /Users/joseantoniorodriguesromero/anaconda3/share/psi4/basis/cc-pvdz.gbs 


         ---------------------------------------------------------
                                   SCF
               by Justin Turney, Rob Parrish, Andy Simmonett
                          and Daniel G. A. Smith
                              UKS Reference
                        1 Threads,    500 MiB Core
         ---------------------------------------------------------

  ==> Geometry <==

    Molecular point group: c2v
    Full point group: C_inf_v

    Geometry (in Angstrom), charge = 0, multiplicity = 2:

       Center              X                  Y                   Z               Mass       
    ------------   -----------------  -----------------  -----------------  -----------------
         B            0.000000000000     0.000000000000     0.822477127221    11.009305360000
         MG           0.000000000000     0.000000000000    -0.377522872779    23.985041697000

  Running in c2v symmetry.

  Rotational constants: A = ************  B =      1.55143  C =      1.55143 [cm^-1]
  Rotational constants: A = ************  B =  46510.62830  C =  46510.62830 [MHz]
  Nuclear repulsion =   26.458860533500005

  Charge       = 0
  Multiplicity = 2
  Electrons    = 17
  Nalpha       = 9
  Nbeta        = 8

  ==> Algorithm <==

  SCF Algorithm Type is DF.
  DIIS enabled.
  MOM disabled.
  Fractional occupation disabled.
  Guess Type is SAP.
  Energy threshold   = 1.00e-08
  Density threshold  = 1.00e-08
  Integral threshold = 1.00e-12

  ==> Primary Basis <==

  Basis Set: CC-PVDZ
    Blend: CC-PVDZ
    Number of shells: 14
    Number of basis functions: 32
    Number of Cartesian functions: 34
    Spherical Harmonics?: true
    Max angular momentum: 2

  ==> DFT Potential <==

   => LibXC <=

    Version 6.2.2
    S. Lehtola, C. Steigemann, M. J.T. Oliveira, and M. A.L. Marques.,  SoftwareX 7, 1–5 (2018) (10.1016/j.softx.2017.11.002)

   => Composite Functional: B3LYP <= 

    B3LYP Hyb-GGA Exchange-Correlation Functional

    P. J. Stephens, F. J. Devlin, C. F. Chabalowski, and M. J. Frisch.,  J. Phys. Chem. 98, 11623 (1994) (10.1021/j100096a001)

    Deriv               =              1
    GGA                 =           TRUE
    Meta                =          FALSE

    Exchange Hybrid     =           TRUE
    MP2 Hybrid          =          FALSE

   => Exchange Functionals <=

    0.0800   Slater exchange
    0.7200         Becke 88

   => Exact (HF) Exchange <=

    0.2000               HF 

   => Correlation Functionals <=

    0.1900   Vosko, Wilk & Nusair (VWN5_RPA)
    0.8100   Lee, Yang & Parr

   => LibXC Density Thresholds  <==

    XC_HYB_GGA_XC_B3LYP:  1.00E-15 

   => Molecular Quadrature <=

    Radial Scheme          =       TREUTLER
    Pruning Scheme         =           NONE
    Nuclear Scheme         =       TREUTLER

    Blocking Scheme        =         OCTREE
    BS radius alpha        =              1
    Pruning alpha          =              1
    Radial Points          =             75
    Spherical Points       =            302
    Total Points           =          43089
    Total Blocks           =            415
    Max Points             =            253
    Max Functions          =             32
    Weights Tolerance      =       1.00E-15

   => Loading Basis Set <=

    Name: (CC-PVDZ AUX)
    Role: JKFIT
    Keyword: DF_BASIS_SCF
    atoms 1 entry B          line    71 file /Users/joseantoniorodriguesromero/anaconda3/share/psi4/basis/cc-pvdz-jkfit.gbs 
    atoms 2 entry MG         line   576 file /Users/joseantoniorodriguesromero/anaconda3/share/psi4/basis/def2-universal-jkfit.gbs 

  ==> Integral Setup <==

  DFHelper Memory: AOs need 0.002 GiB; user supplied 0.327 GiB. 
  Using in-core AOs.

  ==> MemDFJK: Density-Fitted J/K Matrices <==

    J tasked:                   Yes
    K tasked:                   Yes
    wK tasked:                   No
    OpenMP threads:               1
    Memory [MiB]:               334
    Algorithm:                 Core
    Schwarz Cutoff:           1E-12
    Mask sparsity (%):       0.0000
    Fitting Condition:        1E-10

   => Auxiliary Basis Set <=

  Basis Set: (CC-PVDZ AUX)
    Blend: CC-PVDZ-JKFIT + DEF2-UNIVERSAL-JKFIT
    Number of shells: 58
    Number of basis functions: 182
    Number of Cartesian functions: 218
    Spherical Harmonics?: true
    Max angular momentum: 4

  Cached 100.0% of DFT collocation blocks in 0.040 [GiB].

  Minimum eigenvalue in the overlap matrix is 6.3172990107E-04.
  Reciprocal condition number of the overlap matrix is 1.8616333053E-04.
    Using symmetric orthogonalization.

  ==> Pre-Iterations <==

  SCF Guess: Superposition of Atomic Potentials (doi:10.1021/acs.jctc.8b01089).

  ==> SAP guess <==

   => Molecular Quadrature <=

    Radial Scheme          =       TREUTLER
    Pruning Scheme         =           NONE
    Nuclear Scheme         =       TREUTLER

    Blocking Scheme        =         OCTREE
    BS radius alpha        =              1
    Pruning alpha          =              1
    Radial Points          =             75
    Spherical Points       =            302
    Total Points           =          43089
    Total Blocks           =            415
    Max Points             =            253
    Max Functions          =             32
    Weights Tolerance      =       1.00E-15

   -------------------------------------------------------
    Irrep   Nso     Nmo     Nalpha   Nbeta   Ndocc  Nsocc
   -------------------------------------------------------
     A1        16      16       5       5       5       0
     A2         2       2       0       0       0       0
     B1         7       7       2       2       2       0
     B2         7       7       2       1       1       1
   -------------------------------------------------------
    Total      32      32       9       8       8       1
   -------------------------------------------------------

  ==> Iterations <==

                           Total Energy        Delta E     RMS |[F,P]|

    Occupation by irrep:
             A1    A2    B1    B2 
    DOCC [     6,    0,    1,    1 ]
    SOCC [     0,    0,    0,    1 ]
    NA   [     6,    0,    1,    2 ]
    NB   [     6,    0,    1,    1 ]

   @DF-UKS iter   1:  -223.95127056575268   -2.23951e+02   2.83915e-02 DIIS/ADIIS
    Occupation by irrep:
             A1    A2    B1    B2 
    DOCC [     5,    0,    2,    1 ]
    SOCC [     0,    0,    0,    1 ]
    NA   [     5,    0,    2,    2 ]
    NB   [     5,    0,    2,    1 ]

   @DF-UKS iter   2:  -223.36005556495235    5.91215e-01   3.77637e-02 DIIS/ADIIS/DAMP=1%
   @DF-UKS iter   3:  -224.19551939872699   -8.35464e-01   5.67171e-03 DIIS/ADIIS/DAMP=1%
   @DF-UKS iter   4:  -224.24750096529243   -5.19816e-02   4.48382e-03 DIIS/ADIIS/DAMP=1%
   @DF-UKS iter   5:  -224.25594167037335   -8.44071e-03   7.41930e-04 DIIS/ADIIS/DAMP=1%
   @DF-UKS iter   6:  -224.25465597160598    1.28570e-03   2.54665e-04 DIIS/ADIIS/DAMP=1%
   @DF-UKS iter   7:  -224.25508187278871   -4.25901e-04   5.49720e-05 DIIS/DAMP=1%
   @DF-UKS iter   8:  -224.25511460072934   -3.27279e-05   2.02369e-05 DIIS/DAMP=1%
   @DF-UKS iter   9:  -224.25515212875177   -3.75280e-05   5.34960e-06 DIIS/DAMP=1%
   @DF-UKS iter  10:  -224.25514267401073    9.45474e-06   6.84869e-07 DIIS/DAMP=1%
   @DF-UKS iter  11:  -224.25514394774200   -1.27373e-06   1.69239e-07 DIIS/DAMP=1%
   @DF-UKS iter  12:  -224.25514374145638    2.06286e-07   2.76779e-08 DIIS/DAMP=1%
   @DF-UKS iter  13:  -224.25514380369916   -6.22428e-08   5.36138e-09 DIIS/DAMP=1%
   @DF-UKS iter  14:  -224.25514378990553    1.37936e-08   3.70721e-10 DIIS/DAMP=1%
   @DF-UKS iter  15:  -224.25514379203068   -2.12515e-09   5.59063e-11 DIIS/DAMP=1%
  Energy and wave function converged.


  ==> Post-Iterations <==

   Electrons on quadrature grid:
      Nalpha   =    9.0000004029 ; deviation = 4.029e-07
      Nbeta    =    8.0000004172 ; deviation = 4.172e-07
      Ntotal   =   17.0000008201 ; deviation = 8.201e-07 

   @Spin Contamination Metric:   1.201952123E-02
   @S^2 Expected:                7.500000000E-01
   @S^2 Observed:                7.620195212E-01
   @S   Expected:                5.000000000E-01
   @S   Observed:                5.000000000E-01

    Orbital Energies [Eh]
    ---------------------

    Alpha Occupied:                                                       

       1A1   -46.939456     2A1    -6.823560     3A1    -3.249840  
       4A1    -2.029285     1B2    -1.975872     1B1    -1.967745  
       5A1    -0.367628     2B2    -0.212233     2B1    -0.175518  

    Alpha Virtual:                                                        

       6A1    -0.129418     3B2     0.009481     7A1     0.011096  
       3B1     0.018182     8A1     0.060618     9A1     0.110011  
       4B2     0.156325     4B1     0.164493    10A1     0.285854  
       1A2     0.286239     5B2     0.295613     5B1     0.310238  
      11A1     0.319541    12A1     0.400327     6B2     0.547201  
       6B1     0.570629    13A1     0.711243     2A2     0.819654  
      14A1     0.820742     7B2     0.956095     7B1     0.977838  
      15A1     1.291454    16A1     2.593567  

    Beta Occupied:                                                        

       1A1   -46.937917     2A1    -6.813105     3A1    -3.247794  
       4A1    -2.027214     1B2    -1.969137     1B1    -1.967111  
       5A1    -0.323633     2B1    -0.161763  

    Beta Virtual:                                                         

       6A1    -0.125849     2B2    -0.089591     3B1     0.020093  
       7A1     0.020776     3B2     0.034024     8A1     0.065559  
       9A1     0.112317     4B1     0.161585     4B2     0.165003  
       1A2     0.298676    10A1     0.301321     5B1     0.314173  
       5B2     0.323111    11A1     0.329899    12A1     0.406640  
       6B1     0.575233     6B2     0.586166    13A1     0.727556  
       2A2     0.854552    14A1     0.859557     7B1     0.982583  
       7B2     0.991274    15A1     1.306037    16A1     2.603371  

    Final Occupation by Irrep:
             A1    A2    B1    B2 
    DOCC [     5,    0,    2,    1 ]
    SOCC [     0,    0,    0,    1 ]
    NA   [     5,    0,    2,    2 ]
    NB   [     5,    0,    2,    1 ]

  @DF-UKS Final Energy:  -224.25514379203068

   => Energetics <=

    Nuclear Repulsion Energy =             26.4588605335000047
    One-Electron Energy =                -362.3036433363034803
    Two-Electron Energy =                 128.2696167965346490
    DFT Exchange-Correlation Energy =     -16.6799777857618388
    Empirical Dispersion Energy =           0.0000000000000000
    VV10 Nonlocal Energy =                  0.0000000000000000
    Total Energy =                       -224.2551437920306796

  UHF NO Occupations:
  HONO-2 :    2 B1 1.9982224
  HONO-1 :    5 A1 1.9957599
  HONO-0 :    2 B2 1.0000000
  LUNO+0 :    6 A1 0.0042401
  LUNO+1 :    3 B1 0.0017776
  LUNO+2 :    7 A1 0.0000013
  LUNO+3 :    3 B2 0.0000011


Computation Completed


Properties will be evaluated at   0.000000,   0.000000,   0.000000 [a0]

Properties computed using the SCF density matrix


 Multipole Moments:

 ------------------------------------------------------------------------------------
     Multipole            Electronic (a.u.)      Nuclear  (a.u.)        Total (a.u.)
 ------------------------------------------------------------------------------------

 L = 1.  Multiply by 2.5417464519 to convert [e a0] to [Debye]
 Dipole X            :          0.0000000            0.0000000            0.0000000
 Dipole Y            :          0.0000000            0.0000000            0.0000000
 Dipole Z            :         -1.0167390           -0.7896955           -1.8064344
 Magnitude           :                                                    1.8064344

 ------------------------------------------------------------------------------------

*** tstop() called on Joses-MacBook-Pro-2.local at Wed Jul 16 18:52:42 2025
Module time:
	user time   =       5.48 seconds =       0.09 minutes
	system time =       7.11 seconds =       0.12 minutes
	total time  =          1 seconds =       0.02 minutes
Total time:
	user time   =       5.48 seconds =       0.09 minutes
	system time =       7.11 seconds =       0.12 minutes
	total time  =          1 seconds =       0.02 minutes

*** tstart() called on Joses-MacBook-Pro-2.local
*** at Wed Jul 16 18:52:42 2025


         ------------------------------------------------------------
                                   SCF GRAD                          
                          Rob Parrish, Justin Turney,                
                       Andy Simmonett, and Alex Sokolov              
         ------------------------------------------------------------

  ==> Geometry <==

    Molecular point group: c2v
    Full point group: C_inf_v

    Geometry (in Angstrom), charge = 0, multiplicity = 2:

       Center              X                  Y                   Z               Mass       
    ------------   -----------------  -----------------  -----------------  -----------------
         B            0.000000000000     0.000000000000     0.822477127221    11.009305360000
         MG           0.000000000000     0.000000000000    -0.377522872779    23.985041697000

  Nuclear repulsion =   26.458860533500005

  ==> Basis Set <==

  Basis Set: CC-PVDZ
    Blend: CC-PVDZ
    Number of shells: 14
    Number of basis functions: 32
    Number of Cartesian functions: 34
    Spherical Harmonics?: true
    Max angular momentum: 2

  ==> DFJKGrad: Density-Fitted SCF Gradients <==

    Gradient:                    1
    J tasked:                  Yes
    K tasked:                  Yes
    wK tasked:                  No
    OpenMP threads:              1
    Integrals threads:           1
    Memory [MiB]:              375
    Schwarz Cutoff:          1E-12
    Fitting Condition:       1E-10

   => Auxiliary Basis Set <=

  Basis Set: (CC-PVDZ AUX)
    Blend: CC-PVDZ-JKFIT + DEF2-UNIVERSAL-JKFIT
    Number of shells: 58
    Number of basis functions: 182
    Number of Cartesian functions: 218
    Spherical Harmonics?: true
    Max angular momentum: 4

  ==> DFT Potential <==

   => LibXC <=

    Version 6.2.2
    S. Lehtola, C. Steigemann, M. J.T. Oliveira, and M. A.L. Marques.,  SoftwareX 7, 1–5 (2018) (10.1016/j.softx.2017.11.002)

   => Composite Functional: B3LYP <= 

    B3LYP Hyb-GGA Exchange-Correlation Functional

    P. J. Stephens, F. J. Devlin, C. F. Chabalowski, and M. J. Frisch.,  J. Phys. Chem. 98, 11623 (1994) (10.1021/j100096a001)

    Deriv               =              1
    GGA                 =           TRUE
    Meta                =          FALSE

    Exchange Hybrid     =           TRUE
    MP2 Hybrid          =          FALSE

   => Exchange Functionals <=

    0.0800   Slater exchange
    0.7200         Becke 88

   => Exact (HF) Exchange <=

    0.2000               HF 

   => Correlation Functionals <=

    0.1900   Vosko, Wilk & Nusair (VWN5_RPA)
    0.8100   Lee, Yang & Parr

   => LibXC Density Thresholds  <==

    XC_HYB_GGA_XC_B3LYP:  1.00E-15 

   => Molecular Quadrature <=

    Radial Scheme          =       TREUTLER
    Pruning Scheme         =           NONE
    Nuclear Scheme         =       TREUTLER

    Blocking Scheme        =         OCTREE
    BS radius alpha        =              1
    Pruning alpha          =              1
    Radial Points          =             75
    Spherical Points       =            302
    Total Points           =          43089
    Total Blocks           =            415
    Max Points             =            253
    Max Functions          =             32
    Weights Tolerance      =       1.00E-15


  -Total Gradient:
     Atom            X                  Y                   Z
    ------   -----------------  -----------------  -----------------
       1        0.000000000000     0.000000000000    -0.771739921070
       2        0.000000000000     0.000000000000     0.771780903134


*** tstop() called on Joses-MacBook-Pro-2.local at Wed Jul 16 18:52:42 2025
Module time:
	user time   =       1.47 seconds =       0.02 minutes
	system time =       1.33 seconds =       0.02 minutes
	total time  =          0 seconds =       0.00 minutes
Total time:
	user time   =       6.95 seconds =       0.12 minutes
	system time =       8.45 seconds =       0.14 minutes
	total time  =          1 seconds =       0.02 minutes

    			-----------------------------------------

    			 OPTKING 3.0: for geometry optimizations 

    			     By R.A. King, Bethel University     

    			        with contributions from          

    			    A.V. Copan, J. Cayton, A. Heide      

    			-----------------------------------------

    
	                            ===> Fragment 1 <== 

	 Z (Atomic Numbers)          Masses                          Geom                  
	       5.000000            11.009305          0.00000000  0.00000000  1.55425651   
	      12.000000            23.985042          0.00000000  0.00000000 -0.71341484   

	 - Coordinate -           - BOHR/RAD -       - ANG/DEG -
	 R(1,2)           =         2.267671           1.200000


	        --- Internal Coordinate Step in ANG or DEG, aJ/ANG or AJ/DEG ---
	-------------------------------------------------------------------------------
	           Coordinate      Previous         Force          Change          New 
	           ----------      --------        ------          ------        ------
	               R(1,2)       1.20000        6.35832        0.09453       1.29453
	-------------------------------------------------------------------------------

	                                 ==> Convergence Check <==                                  
    
	Measures of convergence in internal coordinates in au.
    
	Criteria marked as inactive (o), active & met (*), and active & unmet ( ).

	----------------------------------------------------------------------------------------------
	   Step    Total Energy     Delta E     Max Force     RMS Force      Max Disp      RMS Disp   
	----------------------------------------------------------------------------------------------
	  Convergence Criteria     1.00e-06 *    3.00e-04 *             o    1.20e-03 *             o
	----------------------------------------------------------------------------------------------
	     1    -224.25514379   -2.24e+02      7.72e-01      7.72e-01 o    1.79e-01      1.79e-01 o  ~
	----------------------------------------------------------------------------------------------

Next Geometry in Ang 
	Fragment 1 (Ang)

	    B   0.0000000000   0.0000000000   0.8697444396
	   Mg   0.0000000000   0.0000000000  -0.4247901852


    Structure for next step:
    Molecular point group: c2v
    Full point group: C_inf_v

    Geometry (in Angstrom), charge = 0, multiplicity = 2:

    B            0.000000000000     0.000000000000     0.887270932723
    MG           0.000000000000     0.000000000000    -0.407263692046


Scratch directory: /tmp/
gradient() will perform analytic gradient computation.
   => Libint2 <=

    Primary   basis highest AM E, G, H:  6, 6, 3
    Auxiliary basis highest AM E, G, H:  7, 7, 4
    Onebody   basis highest AM E, G, H:  -, -, -
    Solid Harmonics ordering:            Gaussian

*** tstart() called on Joses-MacBook-Pro-2.local
*** at Wed Jul 16 18:52:42 2025

   => Loading Basis Set <=

    Name: CC-PVDZ
    Role: ORBITAL
    Keyword: BASIS
    atoms 1 entry B          line   108 file /Users/joseantoniorodriguesromero/anaconda3/share/psi4/basis/cc-pvdz.gbs 
    atoms 2 entry MG         line   353 file /Users/joseantoniorodriguesromero/anaconda3/share/psi4/basis/cc-pvdz.gbs 


         ---------------------------------------------------------
                                   SCF
               by Justin Turney, Rob Parrish, Andy Simmonett
                          and Daniel G. A. Smith
                              UKS Reference
                        1 Threads,    500 MiB Core
         ---------------------------------------------------------

  ==> Geometry <==

    Molecular point group: c2v
    Full point group: C_inf_v

    Geometry (in Angstrom), charge = 0, multiplicity = 2:

       Center              X                  Y                   Z               Mass       
    ------------   -----------------  -----------------  -----------------  -----------------
         B            0.000000000000     0.000000000000     0.887270932723    11.009305360000
         MG           0.000000000000     0.000000000000    -0.407263692046    23.985041697000

  Running in c2v symmetry.

  Rotational constants: A = ************  B =      1.33311  C =      1.33311 [cm^-1]
  Rotational constants: A = ************  B =  39965.69379  C =  39965.69379 [MHz]
  Nuclear repulsion =   24.526677025620700

  Charge       = 0
  Multiplicity = 2
  Electrons    = 17
  Nalpha       = 9
  Nbeta        = 8

  ==> Algorithm <==

  SCF Algorithm Type is DF.
  DIIS enabled.
  MOM disabled.
  Fractional occupation disabled.
  Guess Type is READ.
  Energy threshold   = 1.00e-08
  Density threshold  = 1.00e-08
  Integral threshold = 1.00e-12

  ==> Primary Basis <==

  Basis Set: CC-PVDZ
    Blend: CC-PVDZ
    Number of shells: 14
    Number of basis functions: 32
    Number of Cartesian functions: 34
    Spherical Harmonics?: true
    Max angular momentum: 2

  ==> DFT Potential <==

   => LibXC <=

    Version 6.2.2
    S. Lehtola, C. Steigemann, M. J.T. Oliveira, and M. A.L. Marques.,  SoftwareX 7, 1–5 (2018) (10.1016/j.softx.2017.11.002)

   => Composite Functional: B3LYP <= 

    B3LYP Hyb-GGA Exchange-Correlation Functional

    P. J. Stephens, F. J. Devlin, C. F. Chabalowski, and M. J. Frisch.,  J. Phys. Chem. 98, 11623 (1994) (10.1021/j100096a001)

    Deriv               =              1
    GGA                 =           TRUE
    Meta                =          FALSE

    Exchange Hybrid     =           TRUE
    MP2 Hybrid          =          FALSE

   => Exchange Functionals <=

    0.0800   Slater exchange
    0.7200         Becke 88

   => Exact (HF) Exchange <=

    0.2000               HF 

   => Correlation Functionals <=

    0.1900   Vosko, Wilk & Nusair (VWN5_RPA)
    0.8100   Lee, Yang & Parr

   => LibXC Density Thresholds  <==

    XC_HYB_GGA_XC_B3LYP:  1.00E-15 

   => Molecular Quadrature <=

    Radial Scheme          =       TREUTLER
    Pruning Scheme         =           NONE
    Nuclear Scheme         =       TREUTLER

    Blocking Scheme        =         OCTREE
    BS radius alpha        =              1
    Pruning alpha          =              1
    Radial Points          =             75
    Spherical Points       =            302
    Total Points           =          43123
    Total Blocks           =            413
    Max Points             =            256
    Max Functions          =             32
    Weights Tolerance      =       1.00E-15

   => Loading Basis Set <=

    Name: (CC-PVDZ AUX)
    Role: JKFIT
    Keyword: DF_BASIS_SCF
    atoms 1 entry B          line    71 file /Users/joseantoniorodriguesromero/anaconda3/share/psi4/basis/cc-pvdz-jkfit.gbs 
    atoms 2 entry MG         line   576 file /Users/joseantoniorodriguesromero/anaconda3/share/psi4/basis/def2-universal-jkfit.gbs 

   => Loading Basis Set <=

    Name: CC-PVDZ
    Role: ORBITAL
    Keyword: BASIS
    atoms 1 entry B          line   108 file /Users/joseantoniorodriguesromero/anaconda3/share/psi4/basis/cc-pvdz.gbs 
    atoms 2 entry MG         line   353 file /Users/joseantoniorodriguesromero/anaconda3/share/psi4/basis/cc-pvdz.gbs 

  Reading orbitals from file /tmp/doublet_BMg.default.68672.180.npy, no projection.

  ==> Integral Setup <==

  DFHelper Memory: AOs need 0.002 GiB; user supplied 0.326 GiB. 
  Using in-core AOs.

  ==> MemDFJK: Density-Fitted J/K Matrices <==

    J tasked:                   Yes
    K tasked:                   Yes
    wK tasked:                   No
    OpenMP threads:               1
    Memory [MiB]:               334
    Algorithm:                 Core
    Schwarz Cutoff:           1E-12
    Mask sparsity (%):       0.0000
    Fitting Condition:        1E-10

   => Auxiliary Basis Set <=

  Basis Set: (CC-PVDZ AUX)
    Blend: CC-PVDZ-JKFIT + DEF2-UNIVERSAL-JKFIT
    Number of shells: 58
    Number of basis functions: 182
    Number of Cartesian functions: 218
    Spherical Harmonics?: true
    Max angular momentum: 4

  Cached 100.0% of DFT collocation blocks in 0.040 [GiB].

  Minimum eigenvalue in the overlap matrix is 8.6090981733E-04.
  Reciprocal condition number of the overlap matrix is 2.5386920839E-04.
    Using symmetric orthogonalization.

  ==> Pre-Iterations <==

  SCF Guess: Orbitals guess was supplied from a previous computation.

   -------------------------------------------------------
    Irrep   Nso     Nmo     Nalpha   Nbeta   Ndocc  Nsocc
   -------------------------------------------------------
     A1        16      16       5       5       5       0
     A2         2       2       0       0       0       0
     B1         7       7       2       2       2       0
     B2         7       7       2       1       1       1
   -------------------------------------------------------
    Total      32      32       9       8       8       1
   -------------------------------------------------------

  ==> Iterations <==

                           Total Energy        Delta E     RMS |[F,P]|

   @DF-UKS iter   0:  -224.33416350742149   -2.24334e+02   1.50257e-02 
   @DF-UKS iter   1:  -224.37368903958637   -3.95255e-02   1.50548e-03 DIIS/ADIIS
   @DF-UKS iter   2:  -224.37261431171314    1.07473e-03   2.23323e-03 DIIS/ADIIS/DAMP=1%
   @DF-UKS iter   3:  -224.37529898466292   -2.68467e-03   2.42575e-04 DIIS/ADIIS/DAMP=1%
   @DF-UKS iter   4:  -224.37431918521065    9.79799e-04   3.82778e-05 DIIS/DAMP=1%
   @DF-UKS iter   5:  -224.37458041709718   -2.61232e-04   7.58426e-06 DIIS/DAMP=1%
   @DF-UKS iter   6:  -224.37455415889673    2.62582e-05   3.17653e-06 DIIS/DAMP=1%
   @DF-UKS iter   7:  -224.37455475039530   -5.91499e-07   1.12037e-06 DIIS/DAMP=1%
   @DF-UKS iter   8:  -224.37455410242472    6.47971e-07   3.27500e-07 DIIS/DAMP=1%
   @DF-UKS iter   9:  -224.37455438572118   -2.83296e-07   6.72415e-08 DIIS/DAMP=1%
   @DF-UKS iter  10:  -224.37455429537971    9.03415e-08   1.57783e-08 DIIS/DAMP=1%
   @DF-UKS iter  11:  -224.37455429361657    1.76314e-09   3.42197e-09 DIIS/DAMP=1%
  Energy and wave function converged.


  ==> Post-Iterations <==

   Electrons on quadrature grid:
      Nalpha   =    9.0000003201 ; deviation = 3.201e-07
      Nbeta    =    8.0000002304 ; deviation = 2.304e-07
      Ntotal   =   17.0000005505 ; deviation = 5.505e-07 

   @Spin Contamination Metric:   1.071263816E-02
   @S^2 Expected:                7.500000000E-01
   @S^2 Observed:                7.607126382E-01
   @S   Expected:                5.000000000E-01
   @S   Observed:                5.000000000E-01

    Orbital Energies [Eh]
    ---------------------

    Alpha Occupied:                                                       

       1A1   -46.903788     2A1    -6.797515     3A1    -3.210847  
       4A1    -1.983506     1B2    -1.943222     1B1    -1.936172  
       5A1    -0.374832     2B2    -0.201038     2B1    -0.166247  

    Alpha Virtual:                                                        

       6A1    -0.133147     7A1    -0.009940     3B2     0.008310  
       3B1     0.017020     8A1     0.057952     9A1     0.103641  
       4B2     0.154736     4B1     0.162589    10A1     0.286182  
       1A2     0.289430    11A1     0.299419     5B2     0.301634  
       5B1     0.316081    12A1     0.393642     6B2     0.517432  
       6B1     0.540222    13A1     0.683908     2A2     0.810163  
      14A1     0.811089     7B2     0.966389     7B1     0.987547  
      15A1     1.230127    16A1     2.075513  

    Beta Occupied:                                                        

       1A1   -46.902640     2A1    -6.788001     3A1    -3.209363  
       4A1    -1.981943     1B2    -1.937895     1B1    -1.935831  
       5A1    -0.331692     2B1    -0.153512  

    Beta Virtual:                                                         

       6A1    -0.129184     2B2    -0.083964     7A1     0.000154  
       3B1     0.019041     3B2     0.034019     8A1     0.063064  
       9A1     0.104903     4B1     0.159915     4B2     0.163878  
       1A2     0.301495    10A1     0.303776    11A1     0.305213  
       5B1     0.319861     5B2     0.328653    12A1     0.399983  
       6B1     0.544922     6B2     0.556555    13A1     0.700035  
       2A2     0.845308    14A1     0.850179     7B1     0.992000  
       7B2     1.001523    15A1     1.245484    16A1     2.085530  

    Final Occupation by Irrep:
             A1    A2    B1    B2 
    DOCC [     5,    0,    2,    1 ]
    SOCC [     0,    0,    0,    1 ]
    NA   [     5,    0,    2,    2 ]
    NB   [     5,    0,    2,    1 ]

  @DF-UKS Final Energy:  -224.37455429361657

   => Energetics <=

    Nuclear Repulsion Energy =             24.5266770256206996
    One-Electron Energy =                -359.1277496188581608
    Two-Electron Energy =                 126.8795475012258152
    DFT Exchange-Correlation Energy =     -16.6530292016048982
    Empirical Dispersion Energy =           0.0000000000000000
    VV10 Nonlocal Energy =                  0.0000000000000000
    Total Energy =                       -224.3745542936165407

  UHF NO Occupations:
  HONO-2 :    2 B1 1.9981192
  HONO-1 :    5 A1 1.9965184
  HONO-0 :    2 B2 1.0000000
  LUNO+0 :    6 A1 0.0034816
  LUNO+1 :    3 B1 0.0018808
  LUNO+2 :    7 A1 0.0000009
  LUNO+3 :    3 B2 0.0000007


Computation Completed


Properties will be evaluated at   0.000000,   0.000000,   0.000000 [a0]

Properties computed using the SCF density matrix


 Multipole Moments:

 ------------------------------------------------------------------------------------
     Multipole            Electronic (a.u.)      Nuclear  (a.u.)        Total (a.u.)
 ------------------------------------------------------------------------------------

 L = 1.  Multiply by 2.5417464519 to convert [e a0] to [Debye]
 Dipole X            :          0.0000000            0.0000000            0.0000000
 Dipole Y            :          0.0000000            0.0000000            0.0000000
 Dipole Z            :         -0.9483040           -0.8519068           -1.8002108
 Magnitude           :                                                    1.8002108

 ------------------------------------------------------------------------------------

*** tstop() called on Joses-MacBook-Pro-2.local at Wed Jul 16 18:52:43 2025
Module time:
	user time   =       4.58 seconds =       0.08 minutes
	system time =       4.49 seconds =       0.07 minutes
	total time  =          1 seconds =       0.02 minutes
Total time:
	user time   =      11.64 seconds =       0.19 minutes
	system time =      13.05 seconds =       0.22 minutes
	total time  =          2 seconds =       0.03 minutes

*** tstart() called on Joses-MacBook-Pro-2.local
*** at Wed Jul 16 18:52:43 2025


         ------------------------------------------------------------
                                   SCF GRAD                          
                          Rob Parrish, Justin Turney,                
                       Andy Simmonett, and Alex Sokolov              
         ------------------------------------------------------------

  ==> Geometry <==

    Molecular point group: c2v
    Full point group: C_inf_v

    Geometry (in Angstrom), charge = 0, multiplicity = 2:

       Center              X                  Y                   Z               Mass       
    ------------   -----------------  -----------------  -----------------  -----------------
         B            0.000000000000     0.000000000000     0.887270932723    11.009305360000
         MG           0.000000000000     0.000000000000    -0.407263692046    23.985041697000

  Nuclear repulsion =   24.526677025620700

  ==> Basis Set <==

  Basis Set: CC-PVDZ
    Blend: CC-PVDZ
    Number of shells: 14
    Number of basis functions: 32
    Number of Cartesian functions: 34
    Spherical Harmonics?: true
    Max angular momentum: 2

  ==> DFJKGrad: Density-Fitted SCF Gradients <==

    Gradient:                    1
    J tasked:                  Yes
    K tasked:                  Yes
    wK tasked:                  No
    OpenMP threads:              1
    Integrals threads:           1
    Memory [MiB]:              375
    Schwarz Cutoff:          1E-12
    Fitting Condition:       1E-10

   => Auxiliary Basis Set <=

  Basis Set: (CC-PVDZ AUX)
    Blend: CC-PVDZ-JKFIT + DEF2-UNIVERSAL-JKFIT
    Number of shells: 58
    Number of basis functions: 182
    Number of Cartesian functions: 218
    Spherical Harmonics?: true
    Max angular momentum: 4

  ==> DFT Potential <==

   => LibXC <=

    Version 6.2.2
    S. Lehtola, C. Steigemann, M. J.T. Oliveira, and M. A.L. Marques.,  SoftwareX 7, 1–5 (2018) (10.1016/j.softx.2017.11.002)

   => Composite Functional: B3LYP <= 

    B3LYP Hyb-GGA Exchange-Correlation Functional

    P. J. Stephens, F. J. Devlin, C. F. Chabalowski, and M. J. Frisch.,  J. Phys. Chem. 98, 11623 (1994) (10.1021/j100096a001)

    Deriv               =              1
    GGA                 =           TRUE
    Meta                =          FALSE

    Exchange Hybrid     =           TRUE
    MP2 Hybrid          =          FALSE

   => Exchange Functionals <=

    0.0800   Slater exchange
    0.7200         Becke 88

   => Exact (HF) Exchange <=

    0.2000               HF 

   => Correlation Functionals <=

    0.1900   Vosko, Wilk & Nusair (VWN5_RPA)
    0.8100   Lee, Yang & Parr

   => LibXC Density Thresholds  <==

    XC_HYB_GGA_XC_B3LYP:  1.00E-15 

   => Molecular Quadrature <=

    Radial Scheme          =       TREUTLER
    Pruning Scheme         =           NONE
    Nuclear Scheme         =       TREUTLER

    Blocking Scheme        =         OCTREE
    BS radius alpha        =              1
    Pruning alpha          =              1
    Radial Points          =             75
    Spherical Points       =            302
    Total Points           =          43123
    Total Blocks           =            413
    Max Points             =            256
    Max Functions          =             32
    Weights Tolerance      =       1.00E-15


  -Total Gradient:
     Atom            X                  Y                   Z
    ------   -----------------  -----------------  -----------------
       1        0.000000000000    -0.000000000000    -0.574349929880
       2        0.000000000000    -0.000000000000     0.574345725590


*** tstop() called on Joses-MacBook-Pro-2.local at Wed Jul 16 18:52:44 2025
Module time:
	user time   =       1.32 seconds =       0.02 minutes
	system time =       1.75 seconds =       0.03 minutes
	total time  =          1 seconds =       0.02 minutes
Total time:
	user time   =      12.96 seconds =       0.22 minutes
	system time =      14.80 seconds =       0.25 minutes
	total time  =          3 seconds =       0.05 minutes

    			-----------------------------------------

    			 OPTKING 3.0: for geometry optimizations 

    			     By R.A. King, Bethel University     

    			        with contributions from          

    			    A.V. Copan, J. Cayton, A. Heide      

    			-----------------------------------------

    
	                            ===> Fragment 1 <== 

	 Z (Atomic Numbers)          Masses                          Geom                  
	       5.000000            11.009305          0.00000000  0.00000000  1.67669906   
	      12.000000            23.985042          0.00000000  0.00000000 -0.76961684   

	 - Coordinate -           - BOHR/RAD -       - ANG/DEG -
	 R(1,2)           =         2.446316           1.294535


	        --- Internal Coordinate Step in ANG or DEG, aJ/ANG or AJ/DEG ---
	-------------------------------------------------------------------------------
	           Coordinate      Previous         Force          Change          New 
	           ----------      --------        ------          ------        ------
	               R(1,2)       1.29453        4.73189        0.13578       1.43031
	-------------------------------------------------------------------------------

	                                 ==> Convergence Check <==                                  
    
	Measures of convergence in internal coordinates in au.
    
	Criteria marked as inactive (o), active & met (*), and active & unmet ( ).

	----------------------------------------------------------------------------------------------
	   Step    Total Energy     Delta E     Max Force     RMS Force      Max Disp      RMS Disp   
	----------------------------------------------------------------------------------------------
	  Convergence Criteria     1.00e-06 *    3.00e-04 *             o    1.20e-03 *             o
	----------------------------------------------------------------------------------------------
	     2    -224.37455429   -1.19e-01      5.74e-01      5.74e-01 o    2.57e-01      2.57e-01 o  ~
	----------------------------------------------------------------------------------------------

Next Geometry in Ang 
	Fragment 1 (Ang)

	    B   0.0000000000   0.0000000000   0.9551590552
	   Mg   0.0000000000   0.0000000000  -0.4751518145


    Structure for next step:
    Molecular point group: c2v
    Full point group: C_inf_v

    Geometry (in Angstrom), charge = 0, multiplicity = 2:

    B            0.000000000000     0.000000000000     0.980331645990
    MG           0.000000000000     0.000000000000    -0.449979223764


Scratch directory: /tmp/
gradient() will perform analytic gradient computation.
   => Libint2 <=

    Primary   basis highest AM E, G, H:  6, 6, 3
    Auxiliary basis highest AM E, G, H:  7, 7, 4
    Onebody   basis highest AM E, G, H:  -, -, -
    Solid Harmonics ordering:            Gaussian

*** tstart() called on Joses-MacBook-Pro-2.local
*** at Wed Jul 16 18:52:44 2025

   => Loading Basis Set <=

    Name: CC-PVDZ
    Role: ORBITAL
    Keyword: BASIS
    atoms 1 entry B          line   108 file /Users/joseantoniorodriguesromero/anaconda3/share/psi4/basis/cc-pvdz.gbs 
    atoms 2 entry MG         line   353 file /Users/joseantoniorodriguesromero/anaconda3/share/psi4/basis/cc-pvdz.gbs 


         ---------------------------------------------------------
                                   SCF
               by Justin Turney, Rob Parrish, Andy Simmonett
                          and Daniel G. A. Smith
                              UKS Reference
                        1 Threads,    500 MiB Core
         ---------------------------------------------------------

  ==> Geometry <==

    Molecular point group: c2v
    Full point group: C_inf_v

    Geometry (in Angstrom), charge = 0, multiplicity = 2:

       Center              X                  Y                   Z               Mass       
    ------------   -----------------  -----------------  -----------------  -----------------
         B            0.000000000000     0.000000000000     0.980331645990    11.009305360000
         MG           0.000000000000     0.000000000000    -0.449979223764    23.985041697000

  Running in c2v symmetry.

  Rotational constants: A = ************  B =      1.09203  C =      1.09203 [cm^-1]
  Rotational constants: A = ************  B =  32738.12633  C =  32738.12633 [MHz]
  Nuclear repulsion =   22.198413863456224

  Charge       = 0
  Multiplicity = 2
  Electrons    = 17
  Nalpha       = 9
  Nbeta        = 8

  ==> Algorithm <==

  SCF Algorithm Type is DF.
  DIIS enabled.
  MOM disabled.
  Fractional occupation disabled.
  Guess Type is READ.
  Energy threshold   = 1.00e-08
  Density threshold  = 1.00e-08
  Integral threshold = 1.00e-12

  ==> Primary Basis <==

  Basis Set: CC-PVDZ
    Blend: CC-PVDZ
    Number of shells: 14
    Number of basis functions: 32
    Number of Cartesian functions: 34
    Spherical Harmonics?: true
    Max angular momentum: 2

  ==> DFT Potential <==

   => LibXC <=

    Version 6.2.2
    S. Lehtola, C. Steigemann, M. J.T. Oliveira, and M. A.L. Marques.,  SoftwareX 7, 1–5 (2018) (10.1016/j.softx.2017.11.002)

   => Composite Functional: B3LYP <= 

    B3LYP Hyb-GGA Exchange-Correlation Functional

    P. J. Stephens, F. J. Devlin, C. F. Chabalowski, and M. J. Frisch.,  J. Phys. Chem. 98, 11623 (1994) (10.1021/j100096a001)

    Deriv               =              1
    GGA                 =           TRUE
    Meta                =          FALSE

    Exchange Hybrid     =           TRUE
    MP2 Hybrid          =          FALSE

   => Exchange Functionals <=

    0.0800   Slater exchange
    0.7200         Becke 88

   => Exact (HF) Exchange <=

    0.2000               HF 

   => Correlation Functionals <=

    0.1900   Vosko, Wilk & Nusair (VWN5_RPA)
    0.8100   Lee, Yang & Parr

   => LibXC Density Thresholds  <==

    XC_HYB_GGA_XC_B3LYP:  1.00E-15 

   => Molecular Quadrature <=

    Radial Scheme          =       TREUTLER
    Pruning Scheme         =           NONE
    Nuclear Scheme         =       TREUTLER

    Blocking Scheme        =         OCTREE
    BS radius alpha        =              1
    Pruning alpha          =              1
    Radial Points          =             75
    Spherical Points       =            302
    Total Points           =          43157
    Total Blocks           =            416
    Max Points             =            256
    Max Functions          =             32
    Weights Tolerance      =       1.00E-15

   => Loading Basis Set <=

    Name: (CC-PVDZ AUX)
    Role: JKFIT
    Keyword: DF_BASIS_SCF
    atoms 1 entry B          line    71 file /Users/joseantoniorodriguesromero/anaconda3/share/psi4/basis/cc-pvdz-jkfit.gbs 
    atoms 2 entry MG         line   576 file /Users/joseantoniorodriguesromero/anaconda3/share/psi4/basis/def2-universal-jkfit.gbs 

   => Loading Basis Set <=

    Name: CC-PVDZ
    Role: ORBITAL
    Keyword: BASIS
    atoms 1 entry B          line   108 file /Users/joseantoniorodriguesromero/anaconda3/share/psi4/basis/cc-pvdz.gbs 
    atoms 2 entry MG         line   353 file /Users/joseantoniorodriguesromero/anaconda3/share/psi4/basis/cc-pvdz.gbs 

  Reading orbitals from file /tmp/doublet_BMg.default.68672.180.npy, no projection.

  ==> Integral Setup <==

  DFHelper Memory: AOs need 0.002 GiB; user supplied 0.326 GiB. 
  Using in-core AOs.

  ==> MemDFJK: Density-Fitted J/K Matrices <==

    J tasked:                   Yes
    K tasked:                   Yes
    wK tasked:                   No
    OpenMP threads:               1
    Memory [MiB]:               334
    Algorithm:                 Core
    Schwarz Cutoff:           1E-12
    Mask sparsity (%):       0.0000
    Fitting Condition:        1E-10

   => Auxiliary Basis Set <=

  Basis Set: (CC-PVDZ AUX)
    Blend: CC-PVDZ-JKFIT + DEF2-UNIVERSAL-JKFIT
    Number of shells: 58
    Number of basis functions: 182
    Number of Cartesian functions: 218
    Spherical Harmonics?: true
    Max angular momentum: 4

  Cached 100.0% of DFT collocation blocks in 0.040 [GiB].

  Minimum eigenvalue in the overlap matrix is 1.3112722735E-03.
  Reciprocal condition number of the overlap matrix is 3.8739692644E-04.
    Using symmetric orthogonalization.

  ==> Pre-Iterations <==

  SCF Guess: Orbitals guess was supplied from a previous computation.

   -------------------------------------------------------
    Irrep   Nso     Nmo     Nalpha   Nbeta   Ndocc  Nsocc
   -------------------------------------------------------
     A1        16      16       5       5       5       0
     A2         2       2       0       0       0       0
     B1         7       7       2       2       2       0
     B2         7       7       2       1       1       1
   -------------------------------------------------------
    Total      32      32       9       8       8       1
   -------------------------------------------------------

  ==> Iterations <==

                           Total Energy        Delta E     RMS |[F,P]|

   @DF-UKS iter   0:  -224.44456813385216   -2.24445e+02   1.96386e-02 
   @DF-UKS iter   1:  -224.49249669872336   -4.79286e-02   1.58342e-03 DIIS/ADIIS
   @DF-UKS iter   2:  -224.49117276325023    1.32394e-03   2.38039e-03 DIIS/ADIIS/DAMP=1%
   @DF-UKS iter   3:  -224.49419502727471   -3.02226e-03   3.14489e-04 DIIS/ADIIS/DAMP=1%
   @DF-UKS iter   4:  -224.49321657260819    9.78455e-04   5.75413e-05 DIIS/DAMP=1%
   @DF-UKS iter   5:  -224.49351687233883   -3.00300e-04   1.01607e-05 DIIS/DAMP=1%
   @DF-UKS iter   6:  -224.49348836715060    2.85052e-05   2.82671e-06 DIIS/DAMP=1%
   @DF-UKS iter   7:  -224.49348684829994    1.51885e-06   6.16096e-07 DIIS/DAMP=1%
   @DF-UKS iter   8:  -224.49348631814283    5.30157e-07   1.78500e-07 DIIS/DAMP=1%
   @DF-UKS iter   9:  -224.49348658890713   -2.70764e-07   3.38078e-08 DIIS/DAMP=1%
   @DF-UKS iter  10:  -224.49348652112366    6.77835e-08   1.54474e-08 DIIS/DAMP=1%
   @DF-UKS iter  11:  -224.49348650654588    1.45778e-08   5.84616e-09 DIIS/DAMP=1%
   @DF-UKS iter  12:  -224.49348651396801   -7.42213e-09   2.12183e-09 DIIS/DAMP=1%
  Energy and wave function converged.


  ==> Post-Iterations <==

   Electrons on quadrature grid:
      Nalpha   =    9.0000001399 ; deviation = 1.399e-07
      Nbeta    =    7.9999999983 ; deviation = -1.724e-09
      Ntotal   =   17.0000001382 ; deviation = 1.382e-07 

   @Spin Contamination Metric:   9.991915992E-03
   @S^2 Expected:                7.500000000E-01
   @S^2 Observed:                7.599919160E-01
   @S   Expected:                5.000000000E-01
   @S   Observed:                5.000000000E-01

    Orbital Energies [Eh]
    ---------------------

    Alpha Occupied:                                                       

       1A1   -46.875542     2A1    -6.777928     3A1    -3.178341  
       4A1    -1.940795     1B2    -1.916315     1B1    -1.910363  
       5A1    -0.383118     2B2    -0.187856     2B1    -0.155719  

    Alpha Virtual:                                                        

       6A1    -0.139888     7A1    -0.035036     3B2     0.005026  
       3B1     0.013835     8A1     0.053814     9A1     0.097002  
       4B2     0.151541     4B1     0.158893    10A1     0.276594  
       1A2     0.291998    11A1     0.294533     5B2     0.309991  
       5B1     0.324224    12A1     0.377735     6B2     0.476602  
       6B1     0.498327    13A1     0.649330     2A2     0.796620  
      14A1     0.797298     7B2     0.975453     7B1     0.996046  
      15A1     1.127935    16A1     1.583159  

    Beta Occupied:                                                        

       1A1   -46.874813     2A1    -6.769401     3A1    -3.177446  
       4A1    -1.939924     1B2    -1.912415     1B1    -1.910349  
       5A1    -0.341973     2B1    -0.143974  

    Beta Virtual:                                                         

       6A1    -0.135118     2B2    -0.077671     7A1    -0.025362  
       3B1     0.016079     3B2     0.032591     8A1     0.059116  
       9A1     0.097490     4B1     0.156347     4B2     0.161051  
      10A1     0.285739     1A2     0.303204    11A1     0.306126  
       5B1     0.327913     5B2     0.336502    12A1     0.384207  
       6B1     0.503230     6B2     0.515821    13A1     0.665462  
       2A2     0.832377    14A1     0.837068     7B1     1.000542  
       7B2     1.011036    15A1     1.144410    16A1     1.592465  

    Final Occupation by Irrep:
             A1    A2    B1    B2 
    DOCC [     5,    0,    2,    1 ]
    SOCC [     0,    0,    0,    1 ]
    NA   [     5,    0,    2,    2 ]
    NB   [     5,    0,    2,    1 ]

  @DF-UKS Final Energy:  -224.49348651396801

   => Energetics <=

    Nuclear Repulsion Energy =             22.1984138634562242
    One-Electron Energy =                -355.0988491996200196
    Two-Electron Energy =                 125.0201765211626395
    DFT Exchange-Correlation Energy =     -16.6132276989668277
    Empirical Dispersion Energy =           0.0000000000000000
    VV10 Nonlocal Energy =                  0.0000000000000000
    Total Energy =                       -224.4934865139680085

  UHF NO Occupations:
  HONO-2 :    2 B1 1.9977465
  HONO-1 :    5 A1 1.9972522
  HONO-0 :    2 B2 1.0000000
  LUNO+0 :    6 A1 0.0027478
  LUNO+1 :    3 B1 0.0022535
  LUNO+2 :    7 A1 0.0000005
  LUNO+3 :    3 B2 0.0000004


Computation Completed


Properties will be evaluated at   0.000000,   0.000000,   0.000000 [a0]

Properties computed using the SCF density matrix


 Multipole Moments:

 ------------------------------------------------------------------------------------
     Multipole            Electronic (a.u.)      Nuclear  (a.u.)        Total (a.u.)
 ------------------------------------------------------------------------------------

 L = 1.  Multiply by 2.5417464519 to convert [e a0] to [Debye]
 Dipole X            :          0.0000000            0.0000000            0.0000000
 Dipole Y            :          0.0000000            0.0000000            0.0000000
 Dipole Z            :         -0.8631135           -0.9412583           -1.8043718
 Magnitude           :                                                    1.8043718

 ------------------------------------------------------------------------------------

*** tstop() called on Joses-MacBook-Pro-2.local at Wed Jul 16 18:52:45 2025
Module time:
	user time   =       3.34 seconds =       0.06 minutes
	system time =       6.63 seconds =       0.11 minutes
	total time  =          1 seconds =       0.02 minutes
Total time:
	user time   =      16.34 seconds =       0.27 minutes
	system time =      21.69 seconds =       0.36 minutes
	total time  =          4 seconds =       0.07 minutes

*** tstart() called on Joses-MacBook-Pro-2.local
*** at Wed Jul 16 18:52:45 2025


         ------------------------------------------------------------
                                   SCF GRAD                          
                          Rob Parrish, Justin Turney,                
                       Andy Simmonett, and Alex Sokolov              
         ------------------------------------------------------------

  ==> Geometry <==

    Molecular point group: c2v
    Full point group: C_inf_v

    Geometry (in Angstrom), charge = 0, multiplicity = 2:

       Center              X                  Y                   Z               Mass       
    ------------   -----------------  -----------------  -----------------  -----------------
         B            0.000000000000     0.000000000000     0.980331645990    11.009305360000
         MG           0.000000000000     0.000000000000    -0.449979223764    23.985041697000

  Nuclear repulsion =   22.198413863456224

  ==> Basis Set <==

  Basis Set: CC-PVDZ
    Blend: CC-PVDZ
    Number of shells: 14
    Number of basis functions: 32
    Number of Cartesian functions: 34
    Spherical Harmonics?: true
    Max angular momentum: 2

  ==> DFJKGrad: Density-Fitted SCF Gradients <==

    Gradient:                    1
    J tasked:                  Yes
    K tasked:                  Yes
    wK tasked:                  No
    OpenMP threads:              1
    Integrals threads:           1
    Memory [MiB]:              375
    Schwarz Cutoff:          1E-12
    Fitting Condition:       1E-10

   => Auxiliary Basis Set <=

  Basis Set: (CC-PVDZ AUX)
    Blend: CC-PVDZ-JKFIT + DEF2-UNIVERSAL-JKFIT
    Number of shells: 58
    Number of basis functions: 182
    Number of Cartesian functions: 218
    Spherical Harmonics?: true
    Max angular momentum: 4

  ==> DFT Potential <==

   => LibXC <=

    Version 6.2.2
    S. Lehtola, C. Steigemann, M. J.T. Oliveira, and M. A.L. Marques.,  SoftwareX 7, 1–5 (2018) (10.1016/j.softx.2017.11.002)

   => Composite Functional: B3LYP <= 

    B3LYP Hyb-GGA Exchange-Correlation Functional

    P. J. Stephens, F. J. Devlin, C. F. Chabalowski, and M. J. Frisch.,  J. Phys. Chem. 98, 11623 (1994) (10.1021/j100096a001)

    Deriv               =              1
    GGA                 =           TRUE
    Meta                =          FALSE

    Exchange Hybrid     =           TRUE
    MP2 Hybrid          =          FALSE

   => Exchange Functionals <=

    0.0800   Slater exchange
    0.7200         Becke 88

   => Exact (HF) Exchange <=

    0.2000               HF 

   => Correlation Functionals <=

    0.1900   Vosko, Wilk & Nusair (VWN5_RPA)
    0.8100   Lee, Yang & Parr

   => LibXC Density Thresholds  <==

    XC_HYB_GGA_XC_B3LYP:  1.00E-15 

   => Molecular Quadrature <=

    Radial Scheme          =       TREUTLER
    Pruning Scheme         =           NONE
    Nuclear Scheme         =       TREUTLER

    Blocking Scheme        =         OCTREE
    BS radius alpha        =              1
    Pruning alpha          =              1
    Radial Points          =             75
    Spherical Points       =            302
    Total Points           =          43157
    Total Blocks           =            416
    Max Points             =            256
    Max Functions          =             32
    Weights Tolerance      =       1.00E-15


  -Total Gradient:
     Atom            X                  Y                   Z
    ------   -----------------  -----------------  -----------------
       1        0.000000000000     0.000000000000    -0.364067529310
       2       -0.000000000000     0.000000000000     0.364055416711


*** tstop() called on Joses-MacBook-Pro-2.local at Wed Jul 16 18:52:45 2025
Module time:
	user time   =       1.14 seconds =       0.02 minutes
	system time =       2.38 seconds =       0.04 minutes
	total time  =          0 seconds =       0.00 minutes
Total time:
	user time   =      17.48 seconds =       0.29 minutes
	system time =      24.08 seconds =       0.40 minutes
	total time  =          4 seconds =       0.07 minutes

    			-----------------------------------------

    			 OPTKING 3.0: for geometry optimizations 

    			     By R.A. King, Bethel University     

    			        with contributions from          

    			    A.V. Copan, J. Cayton, A. Heide      

    			-----------------------------------------

    
	                            ===> Fragment 1 <== 

	 Z (Atomic Numbers)          Masses                          Geom                  
	       5.000000            11.009305          0.00000000  0.00000000  1.85255832   
	      12.000000            23.985042          0.00000000  0.00000000 -0.85033750   

	 - Coordinate -           - BOHR/RAD -       - ANG/DEG -
	 R(1,2)           =         2.702896           1.430311


	        --- Internal Coordinate Step in ANG or DEG, aJ/ANG or AJ/DEG ---
	-------------------------------------------------------------------------------
	           Coordinate      Previous         Force          Change          New 
	           ----------      --------        ------          ------        ------
	               R(1,2)       1.43031        2.99940        0.18147       1.61178
	-------------------------------------------------------------------------------

	                                 ==> Convergence Check <==                                  
    
	Measures of convergence in internal coordinates in au.
    
	Criteria marked as inactive (o), active & met (*), and active & unmet ( ).

	----------------------------------------------------------------------------------------------
	   Step    Total Energy     Delta E     Max Force     RMS Force      Max Disp      RMS Disp   
	----------------------------------------------------------------------------------------------
	  Convergence Criteria     1.00e-06 *    3.00e-04 *             o    1.20e-03 *             o
	----------------------------------------------------------------------------------------------
	     3    -224.49348651   -1.19e-01      3.64e-01      3.64e-01 o    3.43e-01      3.43e-01 o  ~
	----------------------------------------------------------------------------------------------

Next Geometry in Ang 
	Fragment 1 (Ang)

	    B   0.0000000000   0.0000000000   1.0710683325
	   Mg   0.0000000000   0.0000000000  -0.5407159103


    Structure for next step:
    Molecular point group: c2v
    Full point group: C_inf_v

    Geometry (in Angstrom), charge = 0, multiplicity = 2:

    B            0.000000000000     0.000000000000     1.104713061447
    MG           0.000000000000     0.000000000000    -0.507071181376


Scratch directory: /tmp/
gradient() will perform analytic gradient computation.
   => Libint2 <=

    Primary   basis highest AM E, G, H:  6, 6, 3
    Auxiliary basis highest AM E, G, H:  7, 7, 4
    Onebody   basis highest AM E, G, H:  -, -, -
    Solid Harmonics ordering:            Gaussian

*** tstart() called on Joses-MacBook-Pro-2.local
*** at Wed Jul 16 18:52:45 2025

   => Loading Basis Set <=

    Name: CC-PVDZ
    Role: ORBITAL
    Keyword: BASIS
    atoms 1 entry B          line   108 file /Users/joseantoniorodriguesromero/anaconda3/share/psi4/basis/cc-pvdz.gbs 
    atoms 2 entry MG         line   353 file /Users/joseantoniorodriguesromero/anaconda3/share/psi4/basis/cc-pvdz.gbs 


         ---------------------------------------------------------
                                   SCF
               by Justin Turney, Rob Parrish, Andy Simmonett
                          and Daniel G. A. Smith
                              UKS Reference
                        1 Threads,    500 MiB Core
         ---------------------------------------------------------

  ==> Geometry <==

    Molecular point group: c2v
    Full point group: C_inf_v

    Geometry (in Angstrom), charge = 0, multiplicity = 2:

       Center              X                  Y                   Z               Mass       
    ------------   -----------------  -----------------  -----------------  -----------------
         B            0.000000000000     0.000000000000     1.104713061447    11.009305360000
         MG           0.000000000000     0.000000000000    -0.507071181376    23.985041697000

  Running in c2v symmetry.

  Rotational constants: A = ************  B =      0.85996  C =      0.85996 [cm^-1]
  Rotational constants: A = ************  B =  25781.06697  C =  25781.06697 [MHz]
  Nuclear repulsion =   19.699058842138729

  Charge       = 0
  Multiplicity = 2
  Electrons    = 17
  Nalpha       = 9
  Nbeta        = 8

  ==> Algorithm <==

  SCF Algorithm Type is DF.
  DIIS enabled.
  MOM disabled.
  Fractional occupation disabled.
  Guess Type is READ.
  Energy threshold   = 1.00e-08
  Density threshold  = 1.00e-08
  Integral threshold = 1.00e-12

  ==> Primary Basis <==

  Basis Set: CC-PVDZ
    Blend: CC-PVDZ
    Number of shells: 14
    Number of basis functions: 32
    Number of Cartesian functions: 34
    Spherical Harmonics?: true
    Max angular momentum: 2

  ==> DFT Potential <==

   => LibXC <=

    Version 6.2.2
    S. Lehtola, C. Steigemann, M. J.T. Oliveira, and M. A.L. Marques.,  SoftwareX 7, 1–5 (2018) (10.1016/j.softx.2017.11.002)

   => Composite Functional: B3LYP <= 

    B3LYP Hyb-GGA Exchange-Correlation Functional

    P. J. Stephens, F. J. Devlin, C. F. Chabalowski, and M. J. Frisch.,  J. Phys. Chem. 98, 11623 (1994) (10.1021/j100096a001)

    Deriv               =              1
    GGA                 =           TRUE
    Meta                =          FALSE

    Exchange Hybrid     =           TRUE
    MP2 Hybrid          =          FALSE

   => Exchange Functionals <=

    0.0800   Slater exchange
    0.7200         Becke 88

   => Exact (HF) Exchange <=

    0.2000               HF 

   => Correlation Functionals <=

    0.1900   Vosko, Wilk & Nusair (VWN5_RPA)
    0.8100   Lee, Yang & Parr

   => LibXC Density Thresholds  <==

    XC_HYB_GGA_XC_B3LYP:  1.00E-15 

   => Molecular Quadrature <=

    Radial Scheme          =       TREUTLER
    Pruning Scheme         =           NONE
    Nuclear Scheme         =       TREUTLER

    Blocking Scheme        =         OCTREE
    BS radius alpha        =              1
    Pruning alpha          =              1
    Radial Points          =             75
    Spherical Points       =            302
    Total Points           =          43224
    Total Blocks           =            415
    Max Points             =            251
    Max Functions          =             32
    Weights Tolerance      =       1.00E-15

   => Loading Basis Set <=

    Name: (CC-PVDZ AUX)
    Role: JKFIT
    Keyword: DF_BASIS_SCF
    atoms 1 entry B          line    71 file /Users/joseantoniorodriguesromero/anaconda3/share/psi4/basis/cc-pvdz-jkfit.gbs 
    atoms 2 entry MG         line   576 file /Users/joseantoniorodriguesromero/anaconda3/share/psi4/basis/def2-universal-jkfit.gbs 

   => Loading Basis Set <=

    Name: CC-PVDZ
    Role: ORBITAL
    Keyword: BASIS
    atoms 1 entry B          line   108 file /Users/joseantoniorodriguesromero/anaconda3/share/psi4/basis/cc-pvdz.gbs 
    atoms 2 entry MG         line   353 file /Users/joseantoniorodriguesromero/anaconda3/share/psi4/basis/cc-pvdz.gbs 

  Reading orbitals from file /tmp/doublet_BMg.default.68672.180.npy, no projection.

  ==> Integral Setup <==

  DFHelper Memory: AOs need 0.002 GiB; user supplied 0.326 GiB. 
  Using in-core AOs.

  ==> MemDFJK: Density-Fitted J/K Matrices <==

    J tasked:                   Yes
    K tasked:                   Yes
    wK tasked:                   No
    OpenMP threads:               1
    Memory [MiB]:               334
    Algorithm:                 Core
    Schwarz Cutoff:           1E-12
    Mask sparsity (%):       0.0000
    Fitting Condition:        1E-10

   => Auxiliary Basis Set <=

  Basis Set: (CC-PVDZ AUX)
    Blend: CC-PVDZ-JKFIT + DEF2-UNIVERSAL-JKFIT
    Number of shells: 58
    Number of basis functions: 182
    Number of Cartesian functions: 218
    Spherical Harmonics?: true
    Max angular momentum: 4

  Cached 100.0% of DFT collocation blocks in 0.040 [GiB].

  Minimum eigenvalue in the overlap matrix is 2.1791032459E-03.
  Reciprocal condition number of the overlap matrix is 6.4661202485E-04.
    Using symmetric orthogonalization.

  ==> Pre-Iterations <==

  SCF Guess: Orbitals guess was supplied from a previous computation.

   -------------------------------------------------------
    Irrep   Nso     Nmo     Nalpha   Nbeta   Ndocc  Nsocc
   -------------------------------------------------------
     A1        16      16       5       5       5       0
     A2         2       2       0       0       0       0
     B1         7       7       2       2       2       0
     B2         7       7       2       1       1       1
   -------------------------------------------------------
    Total      32      32       9       8       8       1
   -------------------------------------------------------

  ==> Iterations <==

                           Total Energy        Delta E     RMS |[F,P]|

   @DF-UKS iter   0:  -224.53647029906921   -2.24536e+02   2.23368e-02 
   @DF-UKS iter   1:  -224.53731938661832   -8.49088e-04   1.26255e-02 DIIS/ADIIS
   @DF-UKS iter   2:  -224.33296060305452    2.04359e-01   2.41627e-02 DIIS/ADIIS/DAMP=1%
   @DF-UKS iter   3:  -224.63009951315476   -2.97139e-01   4.32947e-03 DIIS/ADIIS/DAMP=1%
   @DF-UKS iter   4:  -224.63546822663838   -5.36871e-03   4.93142e-04 DIIS/ADIIS/DAMP=1%
   @DF-UKS iter   5:  -224.63434864801829    1.11958e-03   3.15667e-04 DIIS/ADIIS/DAMP=1%
   @DF-UKS iter   6:  -224.63439048244240   -4.18344e-05   2.01273e-04 DIIS/ADIIS/DAMP=1%
   @DF-UKS iter   7:  -224.63431544310799    7.50393e-05   1.95307e-04 DIIS/ADIIS/DAMP=1%
   @DF-UKS iter   8:  -224.63295620484749    1.35924e-03   2.18394e-04 DIIS/ADIIS/DAMP=1%
   @DF-UKS iter   9:  -224.63309542188370   -1.39217e-04   1.88956e-04 DIIS/ADIIS/DAMP=1%
   @DF-UKS iter  10:  -224.63122282875645    1.87259e-03   5.76425e-04 DIIS/ADIIS/DAMP=1%
   @DF-UKS iter  11:  -224.63350626883013   -2.28344e-03   1.14580e-04 DIIS/ADIIS/DAMP=1%
   @DF-UKS iter  12:  -224.63310368702315    4.02582e-04   1.11254e-04 DIIS/ADIIS/DAMP=1%
   @DF-UKS iter  13:  -224.63315534733198   -5.16603e-05   1.02359e-04 DIIS/ADIIS/DAMP=1%
   @DF-UKS iter  14:  -224.63313351487508    2.18325e-05   1.02438e-04 DIIS/ADIIS/DAMP=1%
   @DF-UKS iter  15:  -224.63312670649836    6.80838e-06   1.03701e-04 DIIS/ADIIS/DAMP=1%
   @DF-UKS iter  16:  -224.63312116342755    5.54307e-06   1.07737e-04 DIIS/ADIIS/DAMP=1%
   @DF-UKS iter  17:  -224.63309438413975    2.67793e-05   9.78252e-05 DIIS/DAMP=1%
   @DF-UKS iter  18:  -224.63297772502335    1.16659e-04   7.54137e-05 DIIS/DAMP=1%
   @DF-UKS iter  19:  -224.63262299914621    3.54726e-04   1.43150e-04 DIIS/ADIIS/DAMP=1%
   @DF-UKS iter  20:  -224.63331180936314   -6.88810e-04   8.79053e-05 DIIS/DAMP=1%
   @DF-UKS iter  21:  -224.63281847666752    4.93333e-04   9.35319e-05 DIIS/DAMP=1%
   @DF-UKS iter  22:  -224.63289155705525   -7.30804e-05   9.51461e-05 DIIS/DAMP=1%
   @DF-UKS iter  23:  -224.63286595247465    2.56046e-05   9.97151e-05 DIIS/DAMP=1%
   @DF-UKS iter  24:  -224.63286539705777    5.55417e-07   1.01385e-04 DIIS/ADIIS/DAMP=1%
   @DF-UKS iter  25:  -224.63275998400636    1.05413e-04   1.22027e-04 DIIS/ADIIS/DAMP=1%
   @DF-UKS iter  26:  -224.63276316079853   -3.17679e-06   1.28344e-04 DIIS/ADIIS/DAMP=1%
   @DF-UKS iter  27:  -224.63272538259758    3.77782e-05   1.36702e-04 DIIS/ADIIS/DAMP=1%
   @DF-UKS iter  28:  -224.63258314178134    1.42241e-04   1.68674e-04 DIIS/ADIIS/DAMP=1%
   @DF-UKS iter  29:  -224.63251156661676    7.15752e-05   1.90924e-04 DIIS/ADIIS/DAMP=1%
   @DF-UKS iter  30:  -224.63241672874994    9.48379e-05   2.14743e-04 DIIS/ADIIS/DAMP=1%
   @DF-UKS iter  31:  -224.63337248468872   -9.55756e-04   9.62273e-05 DIIS/DAMP=1%
   @DF-UKS iter  32:  -224.63309159438421    2.80890e-04   6.95144e-05 DIIS/DAMP=1%
   @DF-UKS iter  33:  -224.63300544528647    8.61491e-05   6.82938e-05 DIIS/DAMP=1%
   @DF-UKS iter  34:  -224.63313042014164   -1.24975e-04   6.53991e-05 DIIS/DAMP=1%
   @DF-UKS iter  35:  -224.63304929700413    8.11231e-05   6.45515e-05 DIIS/DAMP=1%
   @DF-UKS iter  36:  -224.63289750069438    1.51796e-04   8.30324e-05 DIIS/DAMP=1%
   @DF-UKS iter  37:  -224.63292978466956   -3.22840e-05   8.51421e-05 DIIS/DAMP=1%
   @DF-UKS iter  38:  -224.63292540520183    4.37947e-06   8.47761e-05 DIIS/DAMP=1%
   @DF-UKS iter  39:  -224.63297570785858   -5.03027e-05   7.47350e-05 DIIS/DAMP=1%
   @DF-UKS iter  40:  -224.63303789079785   -6.21829e-05   6.51325e-05 DIIS/DAMP=1%
   @DF-UKS iter  41:  -224.63306687877540   -2.89880e-05   6.07121e-05 DIIS/DAMP=1%
   @DF-UKS iter  42:  -224.63309700943066   -3.01307e-05   5.87959e-05 DIIS/DAMP=1%
   @DF-UKS iter  43:  -224.63308248500275    1.45244e-05   5.80471e-05 DIIS/DAMP=1%
   @DF-UKS iter  44:  -224.63305050449276    3.19805e-05   5.91317e-05 DIIS/DAMP=1%
   @DF-UKS iter  45:  -224.63319726918107   -1.46765e-04   6.30125e-05 DIIS/DAMP=1%
   @DF-UKS iter  46:  -224.63306843579093    1.28833e-04   5.65328e-05 DIIS/DAMP=1%
   @DF-UKS iter  47:  -224.63301779576361    5.06400e-05   6.49659e-05 DIIS/DAMP=1%
   @DF-UKS iter  48:  -224.63302445494418   -6.65918e-06   6.72485e-05 DIIS/DAMP=1%
   @DF-UKS iter  49:  -224.63300316613132    2.12888e-05   6.60137e-05 DIIS/DAMP=1%
   @DF-UKS iter  50:  -224.63254855397480    4.54612e-04   1.63778e-04 DIIS/ADIIS/DAMP=1%
   @DF-UKS iter  51:  -224.63346423499468   -9.15681e-04   9.66816e-05 DIIS/DAMP=1%
   @DF-UKS iter  52:  -224.63325144728026    2.12788e-04   6.90839e-05 DIIS/DAMP=1%
   @DF-UKS iter  53:  -224.63323794801997    1.34993e-05   6.78254e-05 DIIS/DAMP=1%
   @DF-UKS iter  54:  -224.63322942238449    8.52564e-06   6.72252e-05 DIIS/DAMP=1%
   @DF-UKS iter  55:  -224.63322670438930    2.71800e-06   6.61306e-05 DIIS/DAMP=1%
   @DF-UKS iter  56:  -224.63308679431321    1.39910e-04   5.67587e-05 DIIS/DAMP=1%
   @DF-UKS iter  57:  -224.63310347595109   -1.66816e-05   5.84671e-05 DIIS/DAMP=1%
   @DF-UKS iter  58:  -224.63309857308241    4.90287e-06   5.72327e-05 DIIS/DAMP=1%
   @DF-UKS iter  59:  -224.63307733925566    2.12338e-05   5.76018e-05 DIIS/DAMP=1%
   @DF-UKS iter  60:  -224.63311881609647   -4.14768e-05   5.97916e-05 DIIS/DAMP=1%
   @DF-UKS iter  61:  -224.63312316068723   -4.34459e-06   5.73809e-05 DIIS/DAMP=1%
   @DF-UKS iter  62:  -224.63328283652922   -1.59676e-04   7.56583e-05 DIIS/DAMP=1%
   @DF-UKS iter  63:  -224.63326602274054    1.68138e-05   7.08260e-05 DIIS/DAMP=1%
   @DF-UKS iter  64:  -224.63318648964423    7.95331e-05   5.94433e-05 DIIS/DAMP=1%
   @DF-UKS iter  65:  -224.63319355636827   -7.06672e-06   6.09502e-05 DIIS/DAMP=1%
   @DF-UKS iter  66:  -224.63317366619151    1.98902e-05   6.14294e-05 DIIS/DAMP=1%
   @DF-UKS iter  67:  -224.63320323643583   -2.95702e-05   6.30150e-05 DIIS/DAMP=1%
   @DF-UKS iter  68:  -224.63323064527668   -2.74088e-05   6.65864e-05 DIIS/DAMP=1%
   @DF-UKS iter  69:  -224.63322032949100    1.03158e-05   6.31229e-05 DIIS/DAMP=1%
   @DF-UKS iter  70:  -224.63318325327387    3.70762e-05   6.12972e-05 DIIS/DAMP=1%
   @DF-UKS iter  71:  -224.63320975022395   -2.64970e-05   6.40089e-05 DIIS/DAMP=1%
   @DF-UKS iter  72:  -224.63316477268859    4.49775e-05   5.89047e-05 DIIS/DAMP=1%
   @DF-UKS iter  73:  -224.63328646325627   -1.21691e-04   7.26938e-05 DIIS/DAMP=1%
   @DF-UKS iter  74:  -224.63318083539525    1.05628e-04   5.87635e-05 DIIS/DAMP=1%
   @DF-UKS iter  75:  -224.63300920559180    1.71630e-04   6.89847e-05 DIIS/DAMP=1%
   @DF-UKS iter  76:  -224.63300953369125   -3.28099e-07   7.46841e-05 DIIS/DAMP=1%
   @DF-UKS iter  77:  -224.63309932145407   -8.97878e-05   7.35201e-05 DIIS/DAMP=1%
   @DF-UKS iter  78:  -224.63301564559441    8.36759e-05   7.09707e-05 DIIS/DAMP=1%
   @DF-UKS iter  79:  -224.63312736120554   -1.11716e-04   7.16316e-05 DIIS/DAMP=1%
   @DF-UKS iter  80:  -224.63312405094715    3.31026e-06   7.41295e-05 DIIS/DAMP=1%
   @DF-UKS iter  81:  -224.63304272130262    8.13296e-05   7.56828e-05 DIIS/DAMP=1%
   @DF-UKS iter  82:  -224.63316980012428   -1.27079e-04   8.57394e-05 DIIS/DAMP=1%
   @DF-UKS iter  83:  -224.63313581560675    3.39845e-05   7.86205e-05 DIIS/DAMP=1%
   @DF-UKS iter  84:  -224.63304806556752    8.77500e-05   5.97173e-05 DIIS/DAMP=1%
   @DF-UKS iter  85:  -224.63311338403850   -6.53185e-05   5.92801e-05 DIIS/DAMP=1%
   @DF-UKS iter  86:  -224.63309218465281    2.11994e-05   5.80620e-05 DIIS/DAMP=1%
   @DF-UKS iter  87:  -224.63309871492396   -6.53027e-06   5.84091e-05 DIIS/DAMP=1%
   @DF-UKS iter  88:  -224.63311275076546   -1.40358e-05   6.03483e-05 DIIS/DAMP=1%
   @DF-UKS iter  89:  -224.63311022407231    2.52669e-06   5.84922e-05 DIIS/DAMP=1%
   @DF-UKS iter  90:  -224.63311092941262   -7.05340e-07   5.80686e-05 DIIS/DAMP=1%
   @DF-UKS iter  91:  -224.63307697781215    3.39516e-05   5.83126e-05 DIIS/DAMP=1%
   @DF-UKS iter  92:  -224.63307571561384    1.26220e-06   5.94911e-05 DIIS/DAMP=1%
   @DF-UKS iter  93:  -224.63274281974390    3.32896e-04   1.00733e-04 DIIS/ADIIS/DAMP=1%
   @DF-UKS iter  94:  -224.63277324724615   -3.04275e-05   1.17626e-04 DIIS/ADIIS/DAMP=1%
   @DF-UKS iter  95:  -224.63305308734581   -2.79840e-04   7.26911e-05 DIIS/DAMP=1%
   @DF-UKS iter  96:  -224.63305501571509   -1.92837e-06   7.54532e-05 DIIS/DAMP=1%
   @DF-UKS iter  97:  -224.63307548637499   -2.04707e-05   6.59555e-05 DIIS/DAMP=1%
   @DF-UKS iter  98:  -224.63317393078020   -9.84444e-05   6.57369e-05 DIIS/DAMP=1%
   @DF-UKS iter  99:  -224.63274753427223    4.26397e-04   1.04736e-04 DIIS/ADIIS/DAMP=1%
   @DF-UKS iter 100:  -224.63283534907038   -8.78148e-05   1.09405e-04 DIIS/ADIIS/DAMP=1%
   @DF-UKS iter 101:  -224.63320056585826   -3.65217e-04   6.38460e-05 DIIS/DAMP=1%
   @DF-UKS iter 102:  -224.63312941973618    7.11461e-05   5.92536e-05 DIIS/DAMP=1%
   @DF-UKS iter 103:  -224.63307446265932    5.49571e-05   5.78859e-05 DIIS/DAMP=1%
   @DF-UKS iter 104:  -224.63298492610002    8.95366e-05   6.42240e-05 DIIS/DAMP=1%
   @DF-UKS iter 105:  -224.63297043183383    1.44943e-05   6.90171e-05 DIIS/DAMP=1%
   @DF-UKS iter 106:  -224.63299181933166   -2.13875e-05   6.81462e-05 DIIS/DAMP=1%
   @DF-UKS iter 107:  -224.63295404207415    3.77773e-05   7.09902e-05 DIIS/DAMP=1%
   @DF-UKS iter 108:  -224.63301969716380   -6.56551e-05   6.58984e-05 DIIS/DAMP=1%
   @DF-UKS iter 109:  -224.63300905011428    1.06470e-05   6.48250e-05 DIIS/DAMP=1%
   @DF-UKS iter 110:  -224.63277784935894    2.31201e-04   9.80961e-05 DIIS/DAMP=1%
   @DF-UKS iter 111:  -224.63285383151521   -7.59822e-05   9.63392e-05 DIIS/DAMP=1%
   @DF-UKS iter 112:  -224.63322455900541   -3.70727e-04   6.73061e-05 DIIS/DAMP=1%
   @DF-UKS iter 113:  -224.63318448524038    4.00738e-05   6.27621e-05 DIIS/DAMP=1%
   @DF-UKS iter 114:  -224.63324297180642   -5.84866e-05   6.80183e-05 DIIS/DAMP=1%
   @DF-UKS iter 115:  -224.63289999814359    3.42974e-04   7.60613e-05 DIIS/DAMP=1%
   @DF-UKS iter 116:  -224.63265626690645    2.43731e-04   1.35508e-04 DIIS/ADIIS/DAMP=1%
   @DF-UKS iter 117:  -224.63276613406001   -1.09867e-04   1.22922e-04 DIIS/ADIIS/DAMP=1%
   @DF-UKS iter 118:  -224.63279346850339   -2.73344e-05   1.15406e-04 DIIS/ADIIS/DAMP=1%
   @DF-UKS iter 119:  -224.63280920334756   -1.57348e-05   1.11591e-04 DIIS/ADIIS/DAMP=1%
   @DF-UKS iter 120:  -224.63266274845893    1.46455e-04   1.38084e-04 DIIS/ADIIS/DAMP=1%
   @DF-UKS iter 121:  -224.63249164021531    1.71108e-04   1.86603e-04 DIIS/ADIIS/DAMP=1%
   @DF-UKS iter 122:  -224.63252136744154   -2.97272e-05   2.01542e-04 DIIS/ADIIS/DAMP=1%
   @DF-UKS iter 123:  -224.63311242282086   -5.91055e-04   7.28573e-05 DIIS/DAMP=1%
   @DF-UKS iter 124:  -224.63370033681736   -5.87914e-04   1.76532e-04 DIIS/ADIIS/DAMP=1%
   @DF-UKS iter 125:  -224.63307010610342    6.30231e-04   6.18867e-05 DIIS/DAMP=1%
   @DF-UKS iter 126:  -224.63311278635808   -4.26803e-05   6.97101e-05 DIIS/DAMP=1%
   @DF-UKS iter 127:  -224.63311577549609   -2.98914e-06   6.98735e-05 DIIS/DAMP=1%
   @DF-UKS iter 128:  -224.63309077327722    2.50022e-05   6.79790e-05 DIIS/DAMP=1%
   @DF-UKS iter 129:  -224.63309167231634   -8.99039e-07   6.63248e-05 DIIS/DAMP=1%
   @DF-UKS iter 130:  -224.63312846465288   -3.67923e-05   6.52288e-05 DIIS/DAMP=1%
   @DF-UKS iter 131:  -224.63310261133503    2.58533e-05   6.31133e-05 DIIS/DAMP=1%
   @DF-UKS iter 132:  -224.63309144624654    1.11651e-05   6.46575e-05 DIIS/DAMP=1%
   @DF-UKS iter 133:  -224.63328093063816   -1.89484e-04   7.82253e-05 DIIS/DAMP=1%
   @DF-UKS iter 134:  -224.63358090660373   -2.99976e-04   1.46090e-04 DIIS/ADIIS/DAMP=1%
   @DF-UKS iter 135:  -224.63348803303700    9.28736e-05   1.17457e-04 DIIS/ADIIS/DAMP=1%
   @DF-UKS iter 136:  -224.63300081678744    4.87216e-04   5.63747e-05 DIIS/DAMP=1%
   @DF-UKS iter 137:  -224.63326015617639   -2.59339e-04   8.11027e-05 DIIS/DAMP=1%
   @DF-UKS iter 138:  -224.63353513171637   -2.74976e-04   1.24700e-04 DIIS/ADIIS/DAMP=1%
   @DF-UKS iter 139:  -224.63298017610356    5.54956e-04   5.55578e-05 DIIS/DAMP=1%
   @DF-UKS iter 140:  -224.63304416251307   -6.39864e-05   5.97023e-05 DIIS/DAMP=1%
   @DF-UKS iter 141:  -224.63276096801386    2.83194e-04   9.86260e-05 DIIS/DAMP=1%
   @DF-UKS iter 142:  -224.63304833903581   -2.87371e-04   6.64469e-05 DIIS/DAMP=1%
   @DF-UKS iter 143:  -224.63314022974347   -9.18907e-05   5.95674e-05 DIIS/DAMP=1%
   @DF-UKS iter 144:  -224.63358147552174   -4.41246e-04   1.58643e-04 DIIS/ADIIS/DAMP=1%
   @DF-UKS iter 145:  -224.63351047273198    7.10028e-05   1.31785e-04 DIIS/ADIIS/DAMP=1%
   @DF-UKS iter 146:  -224.63306316183650    4.47311e-04   5.73976e-05 DIIS/DAMP=1%
   @DF-UKS iter 147:  -224.63315401773474   -9.08559e-05   6.69186e-05 DIIS/DAMP=1%
   @DF-UKS iter 148:  -224.63316457620323   -1.05585e-05   6.45557e-05 DIIS/DAMP=1%
   @DF-UKS iter 149:  -224.63313024129496    3.43349e-05   6.00330e-05 DIIS/DAMP=1%
   @DF-UKS iter 150:  -224.63317896649920   -4.87252e-05   6.29596e-05 DIIS/DAMP=1%
   @DF-UKS iter 151:  -224.63315768347391    2.12830e-05   6.05266e-05 DIIS/DAMP=1%
   @DF-UKS iter 152:  -224.63300527500928    1.52408e-04   6.11219e-05 DIIS/DAMP=1%
   @DF-UKS iter 153:  -224.63299725733205    8.01768e-06   6.80464e-05 DIIS/DAMP=1%
   @DF-UKS iter 154:  -224.63323918717072   -2.41930e-04   7.16546e-05 DIIS/DAMP=1%
   @DF-UKS iter 155:  -224.63337209935486   -1.32912e-04   9.82031e-05 DIIS/DAMP=1%
   @DF-UKS iter 156:  -224.63339796278515   -2.58634e-05   1.09230e-04 DIIS/ADIIS/DAMP=1%
   @DF-UKS iter 157:  -224.63337825094922    1.97118e-05   1.23924e-04 DIIS/ADIIS/DAMP=1%
   @DF-UKS iter 158:  -224.63333515413566    4.30968e-05   1.06401e-04 DIIS/ADIIS/DAMP=1%
   @DF-UKS iter 159:  -224.63345444166720   -1.19288e-04   1.38069e-04 DIIS/ADIIS/DAMP=1%
   @DF-UKS iter 160:  -224.63332704172413    1.27400e-04   9.87328e-05 DIIS/DAMP=1%
   @DF-UKS iter 161:  -224.63331354805240    1.34937e-05   1.08831e-04 DIIS/ADIIS/DAMP=1%
   @DF-UKS iter 162:  -224.63335109841634   -3.75504e-05   1.18783e-04 DIIS/ADIIS/DAMP=1%
[...]
   @DF-UKS iter 303:  -224.63306310343918   -3.49989e-05   7.57013e-05 DIIS/DAMP=1%
   @DF-UKS iter 304:  -224.63310609293822   -4.29895e-05   7.65039e-05 DIIS/DAMP=1%
   @DF-UKS iter 305:  -224.63304893451033    5.71584e-05   7.80784e-05 DIIS/DAMP=1%
   @DF-UKS iter 306:  -224.63312920064268   -8.02661e-05   7.77615e-05 DIIS/DAMP=1%
   @DF-UKS iter 307:  -224.63311343664031    1.57640e-05   8.08416e-05 DIIS/DAMP=1%
   @DF-UKS iter 308:  -224.63295223457041    1.61202e-04   9.25142e-05 DIIS/DAMP=1%
   @DF-UKS iter 309:  -224.63281470188787    1.37533e-04   1.17446e-04 DIIS/ADIIS/DAMP=1%
   @DF-UKS iter 310:  -224.63262540823462    1.89294e-04   1.54854e-04 DIIS/ADIIS/DAMP=1%
   @DF-UKS iter 311:  -224.63266232650315   -3.69183e-05   1.54148e-04 DIIS/ADIIS/DAMP=1%
   @DF-UKS iter 312:  -224.63269877943807   -3.64529e-05   1.49631e-04 DIIS/ADIIS/DAMP=1%
   @DF-UKS iter 313:  -224.63277815962175   -7.93802e-05   1.30714e-04 DIIS/ADIIS/DAMP=1%
   @DF-UKS iter 314:  -224.63276971248823    8.44713e-06   1.28703e-04 DIIS/ADIIS/DAMP=1%
   @DF-UKS iter 315:  -224.63278718417408   -1.74717e-05   1.25042e-04 DIIS/ADIIS/DAMP=1%
   @DF-UKS iter 316:  -224.63273065110758    5.65331e-05   1.34659e-04 DIIS/ADIIS/DAMP=1%
   @DF-UKS iter 317:  -224.63223728626460    4.93365e-04   2.41256e-04 DIIS/ADIIS/DAMP=1%
   @DF-UKS iter 318:  -224.63321370471527   -9.76418e-04   6.80696e-05 DIIS/DAMP=1%
   @DF-UKS iter 319:  -224.63314336025769    7.03445e-05   6.01248e-05 DIIS/DAMP=1%
   @DF-UKS iter 320:  -224.63305354028353    8.98200e-05   5.85345e-05 DIIS/DAMP=1%
   @DF-UKS iter 321:  -224.63299789355227    5.56467e-05   6.37838e-05 DIIS/DAMP=1%
   @DF-UKS iter 322:  -224.63299801641244   -1.22860e-07   6.63107e-05 DIIS/DAMP=1%
   @DF-UKS iter 323:  -224.63301617779192   -1.81614e-05   6.49801e-05 DIIS/DAMP=1%
   @DF-UKS iter 324:  -224.63321373019929   -1.97552e-04   6.44086e-05 DIIS/DAMP=1%
   @DF-UKS iter 325:  -224.63317526363835    3.84666e-05   6.44234e-05 DIIS/DAMP=1%
   @DF-UKS iter 326:  -224.63298222738712    1.93036e-04   8.04542e-05 DIIS/DAMP=1%
   @DF-UKS iter 327:  -224.63282884790399    1.53379e-04   9.78962e-05 DIIS/DAMP=1%
   @DF-UKS iter 328:  -224.63307146406055   -2.42616e-04   7.00321e-05 DIIS/DAMP=1%
   @DF-UKS iter 329:  -224.63274705801936    3.24406e-04   1.31974e-04 DIIS/ADIIS/DAMP=1%
   @DF-UKS iter 330:  -224.63294748174812   -2.00424e-04   9.98122e-05 DIIS/DAMP=1%
   @DF-UKS iter 331:  -224.63285834691752    8.91348e-05   1.13364e-04 DIIS/ADIIS/DAMP=1%
   @DF-UKS iter 332:  -224.63293159993319   -7.32530e-05   1.07553e-04 DIIS/ADIIS/DAMP=1%
   @DF-UKS iter 333:  -224.63295223998924   -2.06401e-05   9.75087e-05 DIIS/DAMP=1%
   @DF-UKS iter 334:  -224.63299694991383   -4.47099e-05   8.68892e-05 DIIS/DAMP=1%
   @DF-UKS iter 335:  -224.63310931024031   -1.12360e-04   7.95401e-05 DIIS/DAMP=1%
   @DF-UKS iter 336:  -224.63317763869915   -6.83285e-05   7.10596e-05 DIIS/DAMP=1%
   @DF-UKS iter 337:  -224.63292860890903    2.49030e-04   8.30630e-05 DIIS/DAMP=1%
   @DF-UKS iter 338:  -224.63293605238556   -7.44348e-06   8.77298e-05 DIIS/DAMP=1%
   @DF-UKS iter 339:  -224.63300787506176   -7.18227e-05   8.22074e-05 DIIS/DAMP=1%
   @DF-UKS iter 340:  -224.63245610211098    5.51773e-04   1.82594e-04 DIIS/ADIIS/DAMP=1%
   @DF-UKS iter 341:  -224.63222614413365    2.29958e-04   2.56154e-04 DIIS/ADIIS/DAMP=1%
   @DF-UKS iter 342:  -224.63213566900470    9.04751e-05   2.95176e-04 DIIS/ADIIS/DAMP=1%
   @DF-UKS iter 343:  -224.63323221626916   -1.09655e-03   7.55861e-05 DIIS/DAMP=1%
   @DF-UKS iter 344:  -224.63288542020433    3.46796e-04   1.09908e-04 DIIS/ADIIS/DAMP=1%
   @DF-UKS iter 345:  -224.63310060739525   -2.15187e-04   8.44184e-05 DIIS/DAMP=1%
   @DF-UKS iter 346:  -224.63291083234611    1.89775e-04   1.04016e-04 DIIS/ADIIS/DAMP=1%
   @DF-UKS iter 347:  -224.63332215106459   -4.11319e-04   8.56536e-05 DIIS/DAMP=1%
   @DF-UKS iter 348:  -224.63301377352622    3.08378e-04   7.88945e-05 DIIS/DAMP=1%
   @DF-UKS iter 349:  -224.63309436079425   -8.05873e-05   8.12733e-05 DIIS/DAMP=1%
   @DF-UKS iter 350:  -224.63321611213655   -1.21751e-04   6.88498e-05 DIIS/DAMP=1%
   @DF-UKS iter 351:  -224.63312901173029    8.71004e-05   7.01611e-05 DIIS/DAMP=1%
   @DF-UKS iter 352:  -224.63293670455579    1.92307e-04   7.62116e-05 DIIS/DAMP=1%
   @DF-UKS iter 353:  -224.63312207767166   -1.85373e-04   6.73145e-05 DIIS/DAMP=1%
   @DF-UKS iter 354:  -224.63311765236850    4.42530e-06   6.44931e-05 DIIS/DAMP=1%
   @DF-UKS iter 355:  -224.63311982217198   -2.16980e-06   6.23605e-05 DIIS/DAMP=1%
   @DF-UKS iter 356:  -224.63312624055118   -6.41838e-06   6.20145e-05 DIIS/DAMP=1%
   @DF-UKS iter 357:  -224.63315170947263   -2.54689e-05   6.25579e-05 DIIS/DAMP=1%
   @DF-UKS iter 358:  -224.63320580774493   -5.40983e-05   6.68017e-05 DIIS/DAMP=1%
   @DF-UKS iter 359:  -224.63290434285094    3.01465e-04   9.07317e-05 DIIS/DAMP=1%
   @DF-UKS iter 360:  -224.63306539335110   -1.61051e-04   8.28350e-05 DIIS/DAMP=1%
   @DF-UKS iter 361:  -224.63300132465349    6.40687e-05   8.14365e-05 DIIS/DAMP=1%
   @DF-UKS iter 362:  -224.63319574768036   -1.94423e-04   6.83879e-05 DIIS/DAMP=1%
   @DF-UKS iter 363:  -224.63300815969293    1.87588e-04   6.97405e-05 DIIS/DAMP=1%
   @DF-UKS iter 364:  -224.63296248745255    4.56722e-05   8.27808e-05 DIIS/DAMP=1%
   @DF-UKS iter 365:  -224.63305927738617   -9.67899e-05   6.53147e-05 DIIS/DAMP=1%
   @DF-UKS iter 366:  -224.63301983093152    3.94465e-05   6.58814e-05 DIIS/DAMP=1%
   @DF-UKS iter 367:  -224.63301709713969    2.73379e-06   6.68702e-05 DIIS/DAMP=1%
   @DF-UKS iter 368:  -224.63302862630709   -1.15292e-05   6.58865e-05 DIIS/DAMP=1%
   @DF-UKS iter 369:  -224.63304128331151   -1.26570e-05   6.47876e-05 DIIS/DAMP=1%
   @DF-UKS iter 370:  -224.63302801749660    1.32658e-05   6.62287e-05 DIIS/DAMP=1%
   @DF-UKS iter 371:  -224.63299471241729    3.33051e-05   6.97214e-05 DIIS/DAMP=1%
   @DF-UKS iter 372:  -224.63301023960707   -1.55272e-05   6.90899e-05 DIIS/DAMP=1%
   @DF-UKS iter 373:  -224.63305618804327   -4.59484e-05   6.33602e-05 DIIS/DAMP=1%
   @DF-UKS iter 374:  -224.63312186652502   -6.56785e-05   5.99737e-05 DIIS/DAMP=1%
   @DF-UKS iter 375:  -224.63305956059259    6.23059e-05   5.90768e-05 DIIS/DAMP=1%
   @DF-UKS iter 376:  -224.63309322073141   -3.36601e-05   5.83467e-05 DIIS/DAMP=1%
   @DF-UKS iter 377:  -224.63306907583870    2.41449e-05   6.02434e-05 DIIS/DAMP=1%
   @DF-UKS iter 378:  -224.63314683212025   -7.77563e-05   6.08942e-05 DIIS/DAMP=1%
   @DF-UKS iter 379:  -224.63307259126611    7.42409e-05   6.09482e-05 DIIS/DAMP=1%
   @DF-UKS iter 380:  -224.63310042273605   -2.78315e-05   6.19943e-05 DIIS/DAMP=1%
   @DF-UKS iter 381:  -224.63310215458904   -1.73185e-06   6.04713e-05 DIIS/DAMP=1%
   @DF-UKS iter 382:  -224.63313998443581   -3.78298e-05   5.93029e-05 DIIS/DAMP=1%
   @DF-UKS iter 383:  -224.63316956560948   -2.95812e-05   6.06135e-05 DIIS/DAMP=1%
   @DF-UKS iter 384:  -224.63256942474237    6.00141e-04   1.26796e-04 DIIS/ADIIS/DAMP=1%
   @DF-UKS iter 385:  -224.63295094924689   -3.81525e-04   8.76444e-05 DIIS/DAMP=1%
   @DF-UKS iter 386:  -224.63300147021357   -5.05210e-05   7.22457e-05 DIIS/DAMP=1%
   @DF-UKS iter 387:  -224.63306430789814   -6.28377e-05   6.28837e-05 DIIS/DAMP=1%
   @DF-UKS iter 388:  -224.63303422994937    3.00779e-05   6.42061e-05 DIIS/DAMP=1%
   @DF-UKS iter 389:  -224.63304704844106   -1.28185e-05   6.38622e-05 DIIS/DAMP=1%
   @DF-UKS iter 390:  -224.63278109703822    2.65951e-04   1.15314e-04 DIIS/ADIIS/DAMP=1%
   @DF-UKS iter 391:  -224.63317054437761   -3.89447e-04   7.06523e-05 DIIS/DAMP=1%
   @DF-UKS iter 392:  -224.63243000568818    7.40539e-04   1.73422e-04 DIIS/ADIIS/DAMP=1%
   @DF-UKS iter 393:  -224.63328330866321   -8.53303e-04   7.04952e-05 DIIS/DAMP=1%
   @DF-UKS iter 394:  -224.63232787287279    9.55436e-04   1.85016e-04 DIIS/ADIIS/DAMP=1%
   @DF-UKS iter 395:  -224.63317345739043   -8.45585e-04   6.72344e-05 DIIS/DAMP=1%
   @DF-UKS iter 396:  -224.63258934932870    5.84108e-04   1.39436e-04 DIIS/ADIIS/DAMP=1%
   @DF-UKS iter 397:  -224.63274659438852   -1.57245e-04   1.37919e-04 DIIS/ADIIS/DAMP=1%
   @DF-UKS iter 398:  -224.63280824486418   -6.16505e-05   1.23099e-04 DIIS/ADIIS/DAMP=1%
   @DF-UKS iter 399:  -224.63314282007079   -3.34575e-04   7.15972e-05 DIIS/DAMP=1%
   @DF-UKS iter 400:  -224.63298371925276    1.59101e-04   7.72345e-05 DIIS/DAMP=1%
   @DF-UKS iter 401:  -224.63322323605854   -2.39517e-04   7.63074e-05 DIIS/DAMP=1%
   @DF-UKS iter 402:  -224.63287707809147    3.46158e-04   8.82176e-05 DIIS/DAMP=1%
   @DF-UKS iter 403:  -224.63282777302697    4.93051e-05   1.11113e-04 DIIS/ADIIS/DAMP=1%
   @DF-UKS iter 404:  -224.63288455824022   -5.67852e-05   1.06016e-04 DIIS/ADIIS/DAMP=1%
   @DF-UKS iter 405:  -224.63284282316914    4.17351e-05   1.12206e-04 DIIS/ADIIS/DAMP=1%
   @DF-UKS iter 406:  -224.63287229537133   -2.94722e-05   1.07712e-04 DIIS/ADIIS/DAMP=1%
   @DF-UKS iter 407:  -224.63277255532105    9.97401e-05   1.26288e-04 DIIS/ADIIS/DAMP=1%
   @DF-UKS iter 408:  -224.63281401924300   -4.14639e-05   1.24130e-04 DIIS/ADIIS/DAMP=1%
   @DF-UKS iter 409:  -224.63270798235567    1.06037e-04   1.44502e-04 DIIS/ADIIS/DAMP=1%
   @DF-UKS iter 410:  -224.63291975576038   -2.11773e-04   1.04565e-04 DIIS/ADIIS/DAMP=1%
   @DF-UKS iter 411:  -224.63275390574074    1.65850e-04   1.26589e-04 DIIS/ADIIS/DAMP=1%
   @DF-UKS iter 412:  -224.63335807013405   -6.04164e-04   8.58815e-05 DIIS/DAMP=1%
   @DF-UKS iter 413:  -224.63258880832424    7.69262e-04   1.29792e-04 DIIS/ADIIS/DAMP=1%
   @DF-UKS iter 414:  -224.63238285636842    2.05952e-04   2.18427e-04 DIIS/ADIIS/DAMP=1%
   @DF-UKS iter 415:  -224.63279818472370   -4.15328e-04   1.48462e-04 DIIS/ADIIS/DAMP=1%
   @DF-UKS iter 416:  -224.63313669219875   -3.38507e-04   8.01380e-05 DIIS/DAMP=1%
   @DF-UKS iter 417:  -224.63314684703073   -1.01548e-05   7.38788e-05 DIIS/DAMP=1%
   @DF-UKS iter 418:  -224.63321194584987   -6.50988e-05   7.36914e-05 DIIS/DAMP=1%
   @DF-UKS iter 419:  -224.63277035980789    4.41586e-04   1.10843e-04 DIIS/ADIIS/DAMP=1%
   @DF-UKS iter 420:  -224.63280043805568   -3.00782e-05   1.16106e-04 DIIS/ADIIS/DAMP=1%
   @DF-UKS iter 421:  -224.63275552537115    4.49127e-05   1.20540e-04 DIIS/ADIIS/DAMP=1%
   @DF-UKS iter 422:  -224.63295063537760   -1.95110e-04   8.43700e-05 DIIS/DAMP=1%
   @DF-UKS iter 423:  -224.63294981604986    8.19328e-07   9.57333e-05 DIIS/DAMP=1%
   @DF-UKS iter 424:  -224.63299695946318   -4.71434e-05   8.22525e-05 DIIS/DAMP=1%
   @DF-UKS iter 425:  -224.63285375691001    1.43203e-04   1.03099e-04 DIIS/ADIIS/DAMP=1%
   @DF-UKS iter 426:  -224.63285939490575   -5.63800e-06   1.07776e-04 DIIS/ADIIS/DAMP=1%
   @DF-UKS iter 427:  -224.63289671964461   -3.73247e-05   1.02834e-04 DIIS/ADIIS/DAMP=1%
   @DF-UKS iter 428:  -224.63297358180088   -7.68622e-05   7.73023e-05 DIIS/DAMP=1%
   @DF-UKS iter 429:  -224.63301730800987   -4.37262e-05   6.75533e-05 DIIS/DAMP=1%
   @DF-UKS iter 430:  -224.63320489148771   -1.87583e-04   6.51448e-05 DIIS/DAMP=1%
   @DF-UKS iter 431:  -224.63296246036657    2.42431e-04   6.33299e-05 DIIS/DAMP=1%
   @DF-UKS iter 432:  -224.63295265502543    9.80534e-06   7.08192e-05 DIIS/DAMP=1%
   @DF-UKS iter 433:  -224.63296293468534   -1.02797e-05   7.27871e-05 DIIS/DAMP=1%
   @DF-UKS iter 434:  -224.63300393963954   -4.10050e-05   6.76758e-05 DIIS/DAMP=1%
   @DF-UKS iter 435:  -224.63295850240496    4.54372e-05   7.12988e-05 DIIS/DAMP=1%
   @DF-UKS iter 436:  -224.63302689039241   -6.83880e-05   7.44661e-05 DIIS/DAMP=1%
   @DF-UKS iter 437:  -224.63303098029706   -4.08990e-06   7.20818e-05 DIIS/DAMP=1%
   @DF-UKS iter 438:  -224.63314641857622   -1.15438e-04   5.93952e-05 DIIS/DAMP=1%
   @DF-UKS iter 439:  -224.63309266774451    5.37508e-05   5.71279e-05 DIIS/DAMP=1%
   @DF-UKS iter 440:  -224.63317762378912   -8.49560e-05   6.96082e-05 DIIS/DAMP=1%
   @DF-UKS iter 441:  -224.63298131375666    1.96310e-04   6.17033e-05 DIIS/DAMP=1%
   @DF-UKS iter 442:  -224.63281336598152    1.67948e-04   9.49936e-05 DIIS/DAMP=1%
   @DF-UKS iter 443:  -224.63283456318680   -2.11972e-05   1.04937e-04 DIIS/ADIIS/DAMP=1%
   @DF-UKS iter 444:  -224.63288392246386   -4.93593e-05   9.77540e-05 DIIS/DAMP=1%
   @DF-UKS iter 445:  -224.63285158754360    3.23349e-05   1.02369e-04 DIIS/ADIIS/DAMP=1%
   @DF-UKS iter 446:  -224.63297866539338   -1.27078e-04   7.84428e-05 DIIS/DAMP=1%
   @DF-UKS iter 447:  -224.63287073233886    1.07933e-04   9.50191e-05 DIIS/DAMP=1%
   @DF-UKS iter 448:  -224.63285852109433    1.22112e-05   1.02639e-04 DIIS/ADIIS/DAMP=1%
   @DF-UKS iter 449:  -224.63298662935455   -1.28108e-04   8.09692e-05 DIIS/DAMP=1%
   @DF-UKS iter 450:  -224.63302822706646   -4.15977e-05   7.09048e-05 DIIS/DAMP=1%
   @DF-UKS iter 451:  -224.63338131626756   -3.53089e-04   9.36170e-05 DIIS/DAMP=1%
   @DF-UKS iter 452:  -224.63275931766560    6.21999e-04   9.63609e-05 DIIS/DAMP=1%
   @DF-UKS iter 453:  -224.63290745062611   -1.48133e-04   9.87975e-05 DIIS/DAMP=1%
   @DF-UKS iter 454:  -224.63290908423781   -1.63361e-06   9.78496e-05 DIIS/DAMP=1%
   @DF-UKS iter 455:  -224.63288374843361    2.53358e-05   1.00447e-04 DIIS/ADIIS/DAMP=1%
   @DF-UKS iter 456:  -224.63287685567400    6.89276e-06   1.05709e-04 DIIS/ADIIS/DAMP=1%
   @DF-UKS iter 457:  -224.63289621725963   -1.93616e-05   1.02243e-04 DIIS/ADIIS/DAMP=1%
   @DF-UKS iter 458:  -224.63287135180025    2.48655e-05   1.01860e-04 DIIS/ADIIS/DAMP=1%
   @DF-UKS iter 459:  -224.63273482621494    1.36526e-04   1.26287e-04 DIIS/ADIIS/DAMP=1%
   @DF-UKS iter 460:  -224.63271741348331    1.74127e-05   1.37407e-04 DIIS/ADIIS/DAMP=1%
   @DF-UKS iter 461:  -224.63295253800999   -2.35125e-04   8.80517e-05 DIIS/DAMP=1%
   @DF-UKS iter 462:  -224.63300754503518   -5.50070e-05   7.10769e-05 DIIS/DAMP=1%
   @DF-UKS iter 463:  -224.63296477794051    4.27671e-05   7.74960e-05 DIIS/DAMP=1%
   @DF-UKS iter 464:  -224.63338898970645   -4.24212e-04   1.03053e-04 DIIS/ADIIS/DAMP=1%
   @DF-UKS iter 465:  -224.63257759214940    8.11398e-04   1.29428e-04 DIIS/ADIIS/DAMP=1%
   @DF-UKS iter 466:  -224.63307945857963   -5.01866e-04   7.53296e-05 DIIS/DAMP=1%
   @DF-UKS iter 467:  -224.63309767638646   -1.82178e-05   6.56060e-05 DIIS/DAMP=1%
   @DF-UKS iter 468:  -224.63319705030065   -9.93739e-05   6.77833e-05 DIIS/DAMP=1%
   @DF-UKS iter 469:  -224.63312965547300    6.73948e-05   6.12845e-05 DIIS/DAMP=1%
   @DF-UKS iter 470:  -224.63309723086059    3.24246e-05   6.15909e-05 DIIS/DAMP=1%
   @DF-UKS iter 471:  -224.63305645971255    4.07711e-05   6.39789e-05 DIIS/DAMP=1%
   @DF-UKS iter 472:  -224.63295101075695    1.05449e-04   7.66611e-05 DIIS/DAMP=1%
   @DF-UKS iter 473:  -224.63302176936989   -7.07586e-05   7.43687e-05 DIIS/DAMP=1%
   @DF-UKS iter 474:  -224.63308780868240   -6.60393e-05   6.96533e-05 DIIS/DAMP=1%
   @DF-UKS iter 475:  -224.63301586053217    7.19482e-05   7.11939e-05 DIIS/DAMP=1%
   @DF-UKS iter 476:  -224.63291368090597    1.02180e-04   8.81761e-05 DIIS/DAMP=1%
   @DF-UKS iter 477:  -224.63306629113131   -1.52610e-04   7.75839e-05 DIIS/DAMP=1%
   @DF-UKS iter 478:  -224.63303997744265    2.63137e-05   7.63097e-05 DIIS/DAMP=1%
   @DF-UKS iter 479:  -224.63299480950349    4.51679e-05   7.82700e-05 DIIS/DAMP=1%
   @DF-UKS iter 480:  -224.63260695567698    3.87854e-04   1.41281e-04 DIIS/ADIIS/DAMP=1%
   @DF-UKS iter 481:  -224.63289612548718   -2.89170e-04   9.72974e-05 DIIS/DAMP=1%
   @DF-UKS iter 482:  -224.63304104623592   -1.44921e-04   6.91433e-05 DIIS/DAMP=1%
   @DF-UKS iter 483:  -224.63294119061135    9.98556e-05   7.31737e-05 DIIS/DAMP=1%
   @DF-UKS iter 484:  -224.63297492067937   -3.37301e-05   7.01950e-05 DIIS/DAMP=1%
   @DF-UKS iter 485:  -224.63298283627307   -7.91559e-06   7.00427e-05 DIIS/DAMP=1%
   @DF-UKS iter 486:  -224.63283358849878    1.49248e-04   9.00752e-05 DIIS/DAMP=1%
   @DF-UKS iter 487:  -224.63271976985166    1.13819e-04   1.16789e-04 DIIS/ADIIS/DAMP=1%
   @DF-UKS iter 488:  -224.63273442034048   -1.46505e-05   1.20452e-04 DIIS/ADIIS/DAMP=1%
   @DF-UKS iter 489:  -224.63269553759974    3.88827e-05   1.28385e-04 DIIS/ADIIS/DAMP=1%
   @DF-UKS iter 490:  -224.63194208199104    7.53456e-04   2.82874e-04 DIIS/ADIIS/DAMP=1%
   @DF-UKS iter 491:  -224.63260780846767   -6.65726e-04   1.78843e-04 DIIS/ADIIS/DAMP=1%
   @DF-UKS iter 492:  -224.63296500242669   -3.57194e-04   9.15566e-05 DIIS/DAMP=1%
   @DF-UKS iter 493:  -224.63326460041185   -2.99598e-04   8.26014e-05 DIIS/DAMP=1%
   @DF-UKS iter 494:  -224.63295929462794    3.05306e-04   7.31599e-05 DIIS/DAMP=1%
   @DF-UKS iter 495:  -224.63302079315073   -6.14985e-05   7.23492e-05 DIIS/DAMP=1%
   @DF-UKS iter 496:  -224.63298756122799    3.32319e-05   7.58726e-05 DIIS/DAMP=1%
   @DF-UKS iter 497:  -224.63305237679373   -6.48156e-05   6.95344e-05 DIIS/DAMP=1%
   @DF-UKS iter 498:  -224.63301767083601    3.47060e-05   7.12043e-05 DIIS/DAMP=1%
   @DF-UKS iter 499:  -224.63306051520101   -4.28444e-05   6.82582e-05 DIIS/DAMP=1%
   @DF-UKS iter 500:  -224.63302941439150    3.11008e-05   6.93636e-05 DIIS/DAMP=1%

PsiException: Could not converge SCF iterations in 500 iterations.

  Failed to converge.

Traceback (most recent call last):
  File "/Users/joseantoniorodriguesromero/anaconda3/bin/psi4", line 387, in <module>
    exec(content)
  File "<string>", line 30, in <module>
  File "/Users/joseantoniorodriguesromero/anaconda3/lib/python3.10/site-packages/psi4/driver/driver.py", line 1245, in optimize
    G, wfn = gradient(lowername, return_wfn=True, molecule=molecule, **kwargs)
  File "/Users/joseantoniorodriguesromero/anaconda3/lib/python3.10/site-packages/psi4/driver/driver.py", line 638, in gradient
    wfn = procedures['gradient'][lowername](lowername, molecule=molecule, **kwargs)
  File "/Users/joseantoniorodriguesromero/anaconda3/lib/python3.10/site-packages/psi4/driver/procrouting/proc.py", line 96, in select_scf_gradient
    return func(name, **kwargs)
  File "/Users/joseantoniorodriguesromero/anaconda3/lib/python3.10/site-packages/psi4/driver/procrouting/proc.py", line 2688, in run_scf_gradient
    ref_wfn = run_scf(name, **kwargs)
  File "/Users/joseantoniorodriguesromero/anaconda3/lib/python3.10/site-packages/psi4/driver/procrouting/proc.py", line 2588, in run_scf
    scf_wfn = scf_helper(name, post_scf=False, **kwargs)
  File "/Users/joseantoniorodriguesromero/anaconda3/lib/python3.10/site-packages/psi4/driver/procrouting/proc.py", line 1887, in scf_helper
    e_scf = scf_wfn.compute_energy()
  File "/Users/joseantoniorodriguesromero/anaconda3/lib/python3.10/site-packages/psi4/driver/procrouting/scf_proc/scf_iterator.py", line 93, in scf_compute_energy
    raise e
  File "/Users/joseantoniorodriguesromero/anaconda3/lib/python3.10/site-packages/psi4/driver/procrouting/scf_proc/scf_iterator.py", line 86, in scf_compute_energy
    self.iterations()
  File "/Users/joseantoniorodriguesromero/anaconda3/lib/python3.10/site-packages/psi4/driver/procrouting/scf_proc/scf_iterator.py", line 548, in scf_iterate
    raise SCFConvergenceError("""SCF iterations""", self.iteration_, self, Ediff, Dnorm)

psi4.driver.p4util.exceptions.SCFConvergenceError: Could not converge SCF iterations in 500 iterations.


Printing out the relevant lines from the Psithon --> Python processed input file:
    core.set_global_option("REFERENCE", "uks")
    core.set_global_option("MAXITER", 500)
    core.set_global_option("GEOM_MAXITER", 500)
    core.set_global_option("DAMPING_PERCENTAGE", 1)
    core.set_global_option("GUESS", "SAP")
--> optimize('b3lyp')

!-------------------------------------------------------!
!                                                       !
!  Could not converge SCF iterations in 500 iterations. !
!                                                       !
!-------------------------------------------------------!

    Psi4 stopped on: Wednesday, 16 July 2025 06:53PM
    Psi4 wall time for execution: 0:00:39.40

*** Psi4 encountered an error. Buy a developer more coffee!
*** Resources and help at github.com/psi4/psi4.
