
    -----------------------------------------------------------------------
          Psi4: An Open-Source Ab Initio Electronic Structure Package
                               Psi4 1.9.1 release

                         Git: Rev {} zzzzzzz 


    D. G. A. Smith, L. A. Burns, A. C. Simmonett, R. M. Parrish,
    M. C. Schieber, R. Galvelis, P. Kraus, H. Kruse, R. Di Remigio,
    A. Alenaizan, A. M. James, S. Lehtola, J. P. Misiewicz, M. Scheurer,
    R. A. Shaw, J. B. Schriber, Y. Xie, Z. L. Glick, D. A. Sirianni,
    J. S. O'Brien, J. M. Waldrop, A. Kumar, E. G. Hohenstein,
    B. P. Pritchard, B. R. Brooks, H. F. Schaefer III, A. Yu. Sokolov,
    K. Patkowski, A. E. DePrince III, U. Bozkaya, R. A. King,
    F. A. Evangelista, J. M. Turney, T. D. Crawford, C. D. Sherrill,
    J. Chem. Phys. 152(18) 184108 (2020). https://doi.org/10.1063/5.0006002

                            Additional Code Authors
    E. T. Seidl, C. L. Janssen, E. F. Valeev, M. L. Leininger,
    J. F. Gonthier, R. M. Richard, H. R. McAlexander, M. Saitow, X. Wang,
    P. Verma, M. H. Lechner, A. Jiang, S. Behnle, A. G. Heide,
    M. F. Herbst, and D. L. Poole

             Previous Authors, Complete List of Code Contributors,
                       and Citations for Specific Modules
    https://github.com/psi4/psi4/blob/master/codemeta.json
    https://github.com/psi4/psi4/graphs/contributors
    http://psicode.org/psi4manual/master/introduction.html#citing-psifour

    -----------------------------------------------------------------------


    Psi4 started on: Wednesday, 16 July 2025 07:23PM

    Process ID: 69071
    Host:       Joses-MacBook-Pro-2.local
    PSIDATADIR: /Users/joseantoniorodriguesromero/anaconda3/share/psi4
    Memory:     500.0 MiB
    Threads:    1
    
  ==> Input File <==

--------------------------------------------------------------------------
molecule { 
0 2
O   0.00000        0.60000        0.00000
Cl   0.00000       -0.60000        0.00000
}

set { 
basis              cc-pvdz
reference          uks
maxiter            500
geom_maxiter       500
DAMPING_PERCENTAGE 1
guess              SAP
}

optimize('b3lyp')
--------------------------------------------------------------------------

Scratch directory: /tmp/
gradient() will perform analytic gradient computation.
   => Libint2 <=

    Primary   basis highest AM E, G, H:  6, 6, 3
    Auxiliary basis highest AM E, G, H:  7, 7, 4
    Onebody   basis highest AM E, G, H:  -, -, -
    Solid Harmonics ordering:            Gaussian

*** tstart() called on Joses-MacBook-Pro-2.local
*** at Wed Jul 16 19:23:12 2025

   => Loading Basis Set <=

    Name: CC-PVDZ
    Role: ORBITAL
    Keyword: BASIS
    atoms 1 entry O          line   198 file /Users/joseantoniorodriguesromero/anaconda3/share/psi4/basis/cc-pvdz.gbs 
    atoms 2 entry CL         line   658 file /Users/joseantoniorodriguesromero/anaconda3/share/psi4/basis/cc-pvdz.gbs 


         ---------------------------------------------------------
                                   SCF
               by Justin Turney, Rob Parrish, Andy Simmonett
                          and Daniel G. A. Smith
                              UKS Reference
                        1 Threads,    500 MiB Core
         ---------------------------------------------------------

  ==> Geometry <==

    Molecular point group: c2v
    Full point group: C_inf_v

    Geometry (in Angstrom), charge = 0, multiplicity = 2:

       Center              X                  Y                   Z               Mass       
    ------------   -----------------  -----------------  -----------------  -----------------
         O            0.000000000000     0.000000000000     0.823381501020    15.994914619570
         CL           0.000000000000     0.000000000000    -0.376618498980    34.968852682000

  Running in c2v symmetry.

  Rotational constants: A = ************  B =      1.06668  C =      1.06668 [cm^-1]
  Rotational constants: A = ************  B =  31978.11954  C =  31978.11954 [MHz]
  Nuclear repulsion =   59.973417209266678

  Charge       = 0
  Multiplicity = 2
  Electrons    = 25
  Nalpha       = 13
  Nbeta        = 12

  ==> Algorithm <==

  SCF Algorithm Type is DF.
  DIIS enabled.
  MOM disabled.
  Fractional occupation disabled.
  Guess Type is SAP.
  Energy threshold   = 1.00e-08
  Density threshold  = 1.00e-08
  Integral threshold = 1.00e-12

  ==> Primary Basis <==

  Basis Set: CC-PVDZ
    Blend: CC-PVDZ
    Number of shells: 14
    Number of basis functions: 32
    Number of Cartesian functions: 34
    Spherical Harmonics?: true
    Max angular momentum: 2

  ==> DFT Potential <==

   => LibXC <=

    Version 6.2.2
    S. Lehtola, C. Steigemann, M. J.T. Oliveira, and M. A.L. Marques.,  SoftwareX 7, 1–5 (2018) (10.1016/j.softx.2017.11.002)

   => Composite Functional: B3LYP <= 

    B3LYP Hyb-GGA Exchange-Correlation Functional

    P. J. Stephens, F. J. Devlin, C. F. Chabalowski, and M. J. Frisch.,  J. Phys. Chem. 98, 11623 (1994) (10.1021/j100096a001)

    Deriv               =              1
    GGA                 =           TRUE
    Meta                =          FALSE

    Exchange Hybrid     =           TRUE
    MP2 Hybrid          =          FALSE

   => Exchange Functionals <=

    0.0800   Slater exchange
    0.7200         Becke 88

   => Exact (HF) Exchange <=

    0.2000               HF 

   => Correlation Functionals <=

    0.1900   Vosko, Wilk & Nusair (VWN5_RPA)
    0.8100   Lee, Yang & Parr

   => LibXC Density Thresholds  <==

    XC_HYB_GGA_XC_B3LYP:  1.00E-15 

   => Molecular Quadrature <=

    Radial Scheme          =       TREUTLER
    Pruning Scheme         =           NONE
    Nuclear Scheme         =       TREUTLER

    Blocking Scheme        =         OCTREE
    BS radius alpha        =              1
    Pruning alpha          =              1
    Radial Points          =             75
    Spherical Points       =            302
    Total Points           =          41228
    Total Blocks           =            367
    Max Points             =            256
    Max Functions          =             32
    Weights Tolerance      =       1.00E-15

   => Loading Basis Set <=

    Name: (CC-PVDZ AUX)
    Role: JKFIT
    Keyword: DF_BASIS_SCF
    atoms 1 entry O          line   221 file /Users/joseantoniorodriguesromero/anaconda3/share/psi4/basis/cc-pvdz-jkfit.gbs 
    atoms 2 entry CL         line   667 file /Users/joseantoniorodriguesromero/anaconda3/share/psi4/basis/cc-pvdz-jkfit.gbs 

  ==> Integral Setup <==

  DFHelper Memory: AOs need 0.002 GiB; user supplied 0.329 GiB. 
  Using in-core AOs.

  ==> MemDFJK: Density-Fitted J/K Matrices <==

    J tasked:                   Yes
    K tasked:                   Yes
    wK tasked:                   No
    OpenMP threads:               1
    Memory [MiB]:               336
    Algorithm:                 Core
    Schwarz Cutoff:           1E-12
    Mask sparsity (%):       0.0000
    Fitting Condition:        1E-10

   => Auxiliary Basis Set <=

  Basis Set: (CC-PVDZ AUX)
    Blend: CC-PVDZ-JKFIT
    Number of shells: 60
    Number of basis functions: 182
    Number of Cartesian functions: 211
    Spherical Harmonics?: true
    Max angular momentum: 3

  Cached 100.0% of DFT collocation blocks in 0.037 [GiB].

  Minimum eigenvalue in the overlap matrix is 1.7692709302E-02.
  Reciprocal condition number of the overlap matrix is 5.8597790701E-03.
    Using symmetric orthogonalization.

  ==> Pre-Iterations <==

  SCF Guess: Superposition of Atomic Potentials (doi:10.1021/acs.jctc.8b01089).

  ==> SAP guess <==

   => Molecular Quadrature <=

    Radial Scheme          =       TREUTLER
    Pruning Scheme         =           NONE
    Nuclear Scheme         =       TREUTLER

    Blocking Scheme        =         OCTREE
    BS radius alpha        =              1
    Pruning alpha          =              1
    Radial Points          =             75
    Spherical Points       =            302
    Total Points           =          41228
    Total Blocks           =            367
    Max Points             =            256
    Max Functions          =             32
    Weights Tolerance      =       1.00E-15

   -------------------------------------------------------
    Irrep   Nso     Nmo     Nalpha   Nbeta   Ndocc  Nsocc
   -------------------------------------------------------
     A1        16      16       7       7       7       0
     A2         2       2       0       0       0       0
     B1         7       7       3       2       2       1
     B2         7       7       3       3       3       0
   -------------------------------------------------------
    Total      32      32      13      12      12       1
   -------------------------------------------------------

  ==> Iterations <==

                           Total Energy        Delta E     RMS |[F,P]|

   @DF-UKS iter   1:  -534.68838985928687   -5.34688e+02   5.35477e-02 DIIS/ADIIS
   @DF-UKS iter   2:  -534.27801070031546    4.10379e-01   7.67616e-02 DIIS/ADIIS/DAMP=1%
   @DF-UKS iter   3:  -535.04837694829985   -7.70366e-01   8.85492e-03 DIIS/ADIIS/DAMP=1%
   @DF-UKS iter   4:  -535.07272748712353   -2.43505e-02   2.10236e-03 DIIS/ADIIS/DAMP=1%
   @DF-UKS iter   5:  -535.08348554404665   -1.07581e-02   5.21391e-04 DIIS/ADIIS/DAMP=1%
   @DF-UKS iter   6:  -535.08149016050447    1.99538e-03   4.60662e-05 DIIS/DAMP=1%
   @DF-UKS iter   7:  -535.08174857943993   -2.58419e-04   7.80011e-06 DIIS/DAMP=1%
   @DF-UKS iter   8:  -535.08172990710182    1.86723e-05   2.51816e-06 DIIS/DAMP=1%
   @DF-UKS iter   9:  -535.08172293765040    6.96945e-06   5.55414e-07 DIIS/DAMP=1%
   @DF-UKS iter  10:  -535.08172366648682   -7.28836e-07   5.11525e-08 DIIS/DAMP=1%
   @DF-UKS iter  11:  -535.08172377504184   -1.08555e-07   4.80899e-09 DIIS/DAMP=1%
   @DF-UKS iter  12:  -535.08172380511974   -3.00779e-08   4.37578e-10 DIIS/DAMP=1%
   @DF-UKS iter  13:  -535.08172380454425    5.75483e-10   3.97850e-11 DIIS/DAMP=1%
  Energy and wave function converged.


  ==> Post-Iterations <==

   Electrons on quadrature grid:
      Nalpha   =   12.9999995284 ; deviation = -4.716e-07
      Nbeta    =   11.9999997617 ; deviation = -2.383e-07
      Ntotal   =   24.9999992900 ; deviation = -7.100e-07 

   @Spin Contamination Metric:   2.289827231E-03
   @S^2 Expected:                7.500000000E-01
   @S^2 Observed:                7.522898272E-01
   @S   Expected:                5.000000000E-01
   @S   Observed:                5.000000000E-01

    Orbital Energies [Eh]
    ---------------------

    Alpha Occupied:                                                       

       1A1  -101.639968     2A1   -19.157331     3A1    -9.566088  
       4A1    -7.329416     1B1    -7.323868     1B2    -7.311520  
       5A1    -1.321370     6A1    -0.720609     2B1    -0.583564  
       2B2    -0.548268     7A1    -0.498552     3B1    -0.248559  
       3B2    -0.209890  

    Alpha Virtual:                                                        

       8A1     0.100582     4B1     0.464088     4B2     0.484246  
       9A1     0.544949    10A1     0.630895     1A2     0.637056  
      11A1     0.641573     5B1     0.775016    12A1     0.778184  
       5B2     0.806693     6B1     0.924366     6B2     0.949703  
      13A1     1.573398    14A1     1.663235     2A2     2.522538  
      15A1     2.522630     7B1     2.870539     7B2     2.902657  
      16A1     3.487110  

    Beta Occupied:                                                        

       1A1  -101.636821     2A1   -19.143400     3A1    -9.563027  
       4A1    -7.327821     1B1    -7.313373     1B2    -7.309720  
       5A1    -1.301047     6A1    -0.683942     2B2    -0.539463  
       2B1    -0.522858     7A1    -0.477759     3B2    -0.197160  

    Beta Virtual:                                                         

       3B1    -0.107011     8A1     0.111104     4B1     0.484392  
       4B2     0.487428     9A1     0.556201    10A1     0.645144  
       1A2     0.664354    11A1     0.665709    12A1     0.785657  
       5B2     0.812104     5B1     0.819737     6B2     0.956967  
       6B1     0.969269    13A1     1.587224    14A1     1.683081  
       2A2     2.563064    15A1     2.565250     7B2     2.908987  
       7B1     2.910453    16A1     3.504276  

    Final Occupation by Irrep:
             A1    A2    B1    B2 
    DOCC [     7,    0,    2,    3 ]
    SOCC [     0,    0,    1,    0 ]
    NA   [     7,    0,    3,    3 ]
    NB   [     7,    0,    2,    3 ]

  @DF-UKS Final Energy:  -535.08172380454425

   => Energetics <=

    Nuclear Repulsion Energy =             59.9734172092666782
    One-Electron Energy =                -856.3368749205114909
    Two-Electron Energy =                 291.1950720169185161
    DFT Exchange-Correlation Energy =     -29.9133381102179428
    Empirical Dispersion Energy =           0.0000000000000000
    VV10 Nonlocal Energy =                  0.0000000000000000
    Total Energy =                       -535.0817238045442537

  UHF NO Occupations:
  HONO-2 :    7 A1 1.9997041
  HONO-1 :    2 B1 1.9993226
  HONO-0 :    3 B1 1.0000000
  LUNO+0 :    4 B1 0.0006774
  LUNO+1 :    8 A1 0.0002959
  LUNO+2 :    9 A1 0.0001309
  LUNO+3 :    4 B2 0.0000231


Computation Completed


Properties will be evaluated at   0.000000,   0.000000,   0.000000 [a0]

Properties computed using the SCF density matrix


 Multipole Moments:

 ------------------------------------------------------------------------------------
     Multipole            Electronic (a.u.)      Nuclear  (a.u.)        Total (a.u.)
 ------------------------------------------------------------------------------------

 L = 1.  Multiply by 2.5417464519 to convert [e a0] to [Debye]
 Dipole X            :          0.0000000            0.0000000            0.0000000
 Dipole Y            :          0.0000000            0.0000000            0.0000000
 Dipole Z            :         -0.7798560            0.3487254           -0.4311306
 Magnitude           :                                                    0.4311306

 ------------------------------------------------------------------------------------

*** tstop() called on Joses-MacBook-Pro-2.local at Wed Jul 16 19:23:13 2025
Module time:
	user time   =       6.28 seconds =       0.10 minutes
	system time =       3.84 seconds =       0.06 minutes
	total time  =          1 seconds =       0.02 minutes
Total time:
	user time   =       6.28 seconds =       0.10 minutes
	system time =       3.84 seconds =       0.06 minutes
	total time  =          1 seconds =       0.02 minutes

*** tstart() called on Joses-MacBook-Pro-2.local
*** at Wed Jul 16 19:23:13 2025


         ------------------------------------------------------------
                                   SCF GRAD                          
                          Rob Parrish, Justin Turney,                
                       Andy Simmonett, and Alex Sokolov              
         ------------------------------------------------------------

  ==> Geometry <==

    Molecular point group: c2v
    Full point group: C_inf_v

    Geometry (in Angstrom), charge = 0, multiplicity = 2:

       Center              X                  Y                   Z               Mass       
    ------------   -----------------  -----------------  -----------------  -----------------
         O            0.000000000000     0.000000000000     0.823381501020    15.994914619570
         CL           0.000000000000     0.000000000000    -0.376618498980    34.968852682000

  Nuclear repulsion =   59.973417209266678

  ==> Basis Set <==

  Basis Set: CC-PVDZ
    Blend: CC-PVDZ
    Number of shells: 14
    Number of basis functions: 32
    Number of Cartesian functions: 34
    Spherical Harmonics?: true
    Max angular momentum: 2

  ==> DFJKGrad: Density-Fitted SCF Gradients <==

    Gradient:                    1
    J tasked:                  Yes
    K tasked:                  Yes
    wK tasked:                  No
    OpenMP threads:              1
    Integrals threads:           1
    Memory [MiB]:              375
    Schwarz Cutoff:          1E-12
    Fitting Condition:       1E-10

   => Auxiliary Basis Set <=

  Basis Set: (CC-PVDZ AUX)
    Blend: CC-PVDZ-JKFIT
    Number of shells: 60
    Number of basis functions: 182
    Number of Cartesian functions: 211
    Spherical Harmonics?: true
    Max angular momentum: 3

  ==> DFT Potential <==

   => LibXC <=

    Version 6.2.2
    S. Lehtola, C. Steigemann, M. J.T. Oliveira, and M. A.L. Marques.,  SoftwareX 7, 1–5 (2018) (10.1016/j.softx.2017.11.002)

   => Composite Functional: B3LYP <= 

    B3LYP Hyb-GGA Exchange-Correlation Functional

    P. J. Stephens, F. J. Devlin, C. F. Chabalowski, and M. J. Frisch.,  J. Phys. Chem. 98, 11623 (1994) (10.1021/j100096a001)

    Deriv               =              1
    GGA                 =           TRUE
    Meta                =          FALSE

    Exchange Hybrid     =           TRUE
    MP2 Hybrid          =          FALSE

   => Exchange Functionals <=

    0.0800   Slater exchange
    0.7200         Becke 88

   => Exact (HF) Exchange <=

    0.2000               HF 

   => Correlation Functionals <=

    0.1900   Vosko, Wilk & Nusair (VWN5_RPA)
    0.8100   Lee, Yang & Parr

   => LibXC Density Thresholds  <==

    XC_HYB_GGA_XC_B3LYP:  1.00E-15 

   => Molecular Quadrature <=

    Radial Scheme          =       TREUTLER
    Pruning Scheme         =           NONE
    Nuclear Scheme         =       TREUTLER

    Blocking Scheme        =         OCTREE
    BS radius alpha        =              1
    Pruning alpha          =              1
    Radial Points          =             75
    Spherical Points       =            302
    Total Points           =          41228
    Total Blocks           =            367
    Max Points             =            256
    Max Functions          =             32
    Weights Tolerance      =       1.00E-15


  -Total Gradient:
     Atom            X                  Y                   Z
    ------   -----------------  -----------------  -----------------
       1        0.000000000000    -0.000000000000    -0.908515248635
       2        0.000000000000     0.000000000000     0.908496667159


*** tstop() called on Joses-MacBook-Pro-2.local at Wed Jul 16 19:23:13 2025
Module time:
	user time   =       0.91 seconds =       0.02 minutes
	system time =       1.51 seconds =       0.03 minutes
	total time  =          0 seconds =       0.00 minutes
Total time:
	user time   =       7.21 seconds =       0.12 minutes
	system time =       5.35 seconds =       0.09 minutes
	total time  =          1 seconds =       0.02 minutes

    			-----------------------------------------

    			 OPTKING 3.0: for geometry optimizations 

    			     By R.A. King, Bethel University     

    			        with contributions from          

    			    A.V. Copan, J. Cayton, A. Heide      

    			-----------------------------------------

    
	                            ===> Fragment 1 <== 

	 Z (Atomic Numbers)          Masses                          Geom                  
	       8.000000            15.994915          0.00000000  0.00000000  1.55596553   
	      17.000000            34.968853          0.00000000  0.00000000 -0.71170582   

	 - Coordinate -           - BOHR/RAD -       - ANG/DEG -
	 R(1,2)           =         2.267671           1.200000


	        --- Internal Coordinate Step in ANG or DEG, aJ/ANG or AJ/DEG ---
	-------------------------------------------------------------------------------
	           Coordinate      Previous         Force          Change          New 
	           ----------      --------        ------          ------        ------
	               R(1,2)       1.20000        7.48493        0.10999       1.30999
	-------------------------------------------------------------------------------

	                                 ==> Convergence Check <==                                  
    
	Measures of convergence in internal coordinates in au.
    
	Criteria marked as inactive (o), active & met (*), and active & unmet ( ).

	----------------------------------------------------------------------------------------------
	   Step    Total Energy     Delta E     Max Force     RMS Force      Max Disp      RMS Disp   
	----------------------------------------------------------------------------------------------
	  Convergence Criteria     1.00e-06 *    3.00e-04 *             o    1.20e-03 *             o
	----------------------------------------------------------------------------------------------
	     1    -535.08172380   -5.35e+02      9.09e-01      9.09e-01 o    2.08e-01      2.08e-01 o  ~
	----------------------------------------------------------------------------------------------

Next Geometry in Ang 
	Fragment 1 (Ang)

	    O   0.0000000000   0.0000000000   0.8783752508
	   Cl   0.0000000000   0.0000000000  -0.4316122488


    Structure for next step:
    Molecular point group: c2v
    Full point group: C_inf_v

    Geometry (in Angstrom), charge = 0, multiplicity = 2:

    O            0.000000000000     0.000000000000     0.898849561421
    CL           0.000000000000     0.000000000000    -0.411137938139


Scratch directory: /tmp/
gradient() will perform analytic gradient computation.
   => Libint2 <=

    Primary   basis highest AM E, G, H:  6, 6, 3
    Auxiliary basis highest AM E, G, H:  7, 7, 4
    Onebody   basis highest AM E, G, H:  -, -, -
    Solid Harmonics ordering:            Gaussian

*** tstart() called on Joses-MacBook-Pro-2.local
*** at Wed Jul 16 19:23:13 2025

   => Loading Basis Set <=

    Name: CC-PVDZ
    Role: ORBITAL
    Keyword: BASIS
    atoms 1 entry O          line   198 file /Users/joseantoniorodriguesromero/anaconda3/share/psi4/basis/cc-pvdz.gbs 
    atoms 2 entry CL         line   658 file /Users/joseantoniorodriguesromero/anaconda3/share/psi4/basis/cc-pvdz.gbs 


         ---------------------------------------------------------
                                   SCF
               by Justin Turney, Rob Parrish, Andy Simmonett
                          and Daniel G. A. Smith
                              UKS Reference
                        1 Threads,    500 MiB Core
         ---------------------------------------------------------

  ==> Geometry <==

    Molecular point group: c2v
    Full point group: C_inf_v

    Geometry (in Angstrom), charge = 0, multiplicity = 2:

       Center              X                  Y                   Z               Mass       
    ------------   -----------------  -----------------  -----------------  -----------------
         O            0.000000000000     0.000000000000     0.898849561421    15.994914619570
         CL           0.000000000000     0.000000000000    -0.411137938139    34.968852682000

  Running in c2v symmetry.

  Rotational constants: A = ************  B =      0.89508  C =      0.89508 [cm^-1]
  Rotational constants: A = ************  B =  26833.73403  C =  26833.73403 [MHz]
  Nuclear repulsion =   54.938005649152892

  Charge       = 0
  Multiplicity = 2
  Electrons    = 25
  Nalpha       = 13
  Nbeta        = 12

  ==> Algorithm <==

  SCF Algorithm Type is DF.
  DIIS enabled.
  MOM disabled.
  Fractional occupation disabled.
  Guess Type is READ.
  Energy threshold   = 1.00e-08
  Density threshold  = 1.00e-08
  Integral threshold = 1.00e-12

  ==> Primary Basis <==

  Basis Set: CC-PVDZ
    Blend: CC-PVDZ
    Number of shells: 14
    Number of basis functions: 32
    Number of Cartesian functions: 34
    Spherical Harmonics?: true
    Max angular momentum: 2

  ==> DFT Potential <==

   => LibXC <=

    Version 6.2.2
    S. Lehtola, C. Steigemann, M. J.T. Oliveira, and M. A.L. Marques.,  SoftwareX 7, 1–5 (2018) (10.1016/j.softx.2017.11.002)

   => Composite Functional: B3LYP <= 

    B3LYP Hyb-GGA Exchange-Correlation Functional

    P. J. Stephens, F. J. Devlin, C. F. Chabalowski, and M. J. Frisch.,  J. Phys. Chem. 98, 11623 (1994) (10.1021/j100096a001)

    Deriv               =              1
    GGA                 =           TRUE
    Meta                =          FALSE

    Exchange Hybrid     =           TRUE
    MP2 Hybrid          =          FALSE

   => Exchange Functionals <=

    0.0800   Slater exchange
    0.7200         Becke 88

   => Exact (HF) Exchange <=

    0.2000               HF 

   => Correlation Functionals <=

    0.1900   Vosko, Wilk & Nusair (VWN5_RPA)
    0.8100   Lee, Yang & Parr

   => LibXC Density Thresholds  <==

    XC_HYB_GGA_XC_B3LYP:  1.00E-15 

   => Molecular Quadrature <=

    Radial Scheme          =       TREUTLER
    Pruning Scheme         =           NONE
    Nuclear Scheme         =       TREUTLER

    Blocking Scheme        =         OCTREE
    BS radius alpha        =              1
    Pruning alpha          =              1
    Radial Points          =             75
    Spherical Points       =            302
    Total Points           =          41255
    Total Blocks           =            369
    Max Points             =            255
    Max Functions          =             32
    Weights Tolerance      =       1.00E-15

   => Loading Basis Set <=

    Name: (CC-PVDZ AUX)
    Role: JKFIT
    Keyword: DF_BASIS_SCF
    atoms 1 entry O          line   221 file /Users/joseantoniorodriguesromero/anaconda3/share/psi4/basis/cc-pvdz-jkfit.gbs 
    atoms 2 entry CL         line   667 file /Users/joseantoniorodriguesromero/anaconda3/share/psi4/basis/cc-pvdz-jkfit.gbs 

   => Loading Basis Set <=

    Name: CC-PVDZ
    Role: ORBITAL
    Keyword: BASIS
    atoms 1 entry O          line   198 file /Users/joseantoniorodriguesromero/anaconda3/share/psi4/basis/cc-pvdz.gbs 
    atoms 2 entry CL         line   658 file /Users/joseantoniorodriguesromero/anaconda3/share/psi4/basis/cc-pvdz.gbs 

  Reading orbitals from file /tmp/doublet_OCl.default.69071.180.npy, no projection.

  ==> Integral Setup <==

  DFHelper Memory: AOs need 0.002 GiB; user supplied 0.329 GiB. 
  Using in-core AOs.

  ==> MemDFJK: Density-Fitted J/K Matrices <==

    J tasked:                   Yes
    K tasked:                   Yes
    wK tasked:                   No
    OpenMP threads:               1
    Memory [MiB]:               336
    Algorithm:                 Core
    Schwarz Cutoff:           1E-12
    Mask sparsity (%):       0.0000
    Fitting Condition:        1E-10

   => Auxiliary Basis Set <=

  Basis Set: (CC-PVDZ AUX)
    Blend: CC-PVDZ-JKFIT
    Number of shells: 60
    Number of basis functions: 182
    Number of Cartesian functions: 211
    Spherical Harmonics?: true
    Max angular momentum: 3

  Cached 100.0% of DFT collocation blocks in 0.037 [GiB].

  Minimum eigenvalue in the overlap matrix is 2.1908552006E-02.
  Reciprocal condition number of the overlap matrix is 7.4484370424E-03.
    Using symmetric orthogonalization.

  ==> Pre-Iterations <==

  SCF Guess: Orbitals guess was supplied from a previous computation.

   -------------------------------------------------------
    Irrep   Nso     Nmo     Nalpha   Nbeta   Ndocc  Nsocc
   -------------------------------------------------------
     A1        16      16       7       7       7       0
     A2         2       2       0       0       0       0
     B1         7       7       3       2       2       1
     B2         7       7       3       3       3       0
   -------------------------------------------------------
    Total      32      32      13      12      12       1
   -------------------------------------------------------

  ==> Iterations <==

                           Total Energy        Delta E     RMS |[F,P]|

   @DF-UKS iter   0:  -535.13208348169610   -5.35132e+02   3.15110e-02 
   @DF-UKS iter   1:  -535.21696231075816   -8.48788e-02   3.03657e-03 DIIS/ADIIS
   @DF-UKS iter   2:  -535.21781942355869   -8.57113e-04   2.55375e-03 DIIS/ADIIS/DAMP=1%
   @DF-UKS iter   3:  -535.21807452327391   -2.55100e-04   1.10643e-03 DIIS/ADIIS/DAMP=1%
   @DF-UKS iter   4:  -535.21898420706566   -9.09684e-04   2.18594e-04 DIIS/ADIIS/DAMP=1%
   @DF-UKS iter   5:  -535.21893102721356    5.31799e-05   3.57215e-05 DIIS/DAMP=1%
   @DF-UKS iter   6:  -535.21883676831351    9.42589e-05   7.34893e-06 DIIS/DAMP=1%
   @DF-UKS iter   7:  -535.21888634801451   -4.95797e-05   1.01336e-06 DIIS/DAMP=1%
   @DF-UKS iter   8:  -535.21887902335413    7.32466e-06   1.04779e-07 DIIS/DAMP=1%
   @DF-UKS iter   9:  -535.21887933414541   -3.10791e-07   3.98153e-08 DIIS/DAMP=1%
   @DF-UKS iter  10:  -535.21887937026418   -3.61188e-08   3.42602e-09 DIIS/DAMP=1%
   @DF-UKS iter  11:  -535.21887935447933    1.57848e-08   4.48461e-10 DIIS/DAMP=1%
   @DF-UKS iter  12:  -535.21887935570317   -1.22384e-09   7.35579e-11 DIIS/DAMP=1%
  Energy and wave function converged.


  ==> Post-Iterations <==

   Electrons on quadrature grid:
      Nalpha   =   12.9999995299 ; deviation = -4.701e-07
      Nbeta    =   11.9999997000 ; deviation = -3.000e-07
      Ntotal   =   24.9999992299 ; deviation = -7.701e-07 

   @Spin Contamination Metric:   2.575976727E-03
   @S^2 Expected:                7.500000000E-01
   @S^2 Observed:                7.525759767E-01
   @S   Expected:                5.000000000E-01
   @S   Observed:                5.000000000E-01

    Orbital Energies [Eh]
    ---------------------

    Alpha Occupied:                                                       

       1A1  -101.636635     2A1   -19.175658     3A1    -9.557316  
       4A1    -7.320383     1B1    -7.315649     1B2    -7.304465  
       5A1    -1.241590     6A1    -0.741437     2B1    -0.541383  
       2B2    -0.505548     7A1    -0.492721     3B1    -0.271922  
       3B2    -0.232728  

    Alpha Virtual:                                                        

       8A1     0.072023     4B1     0.473975     4B2     0.491851  
       9A1     0.538252    10A1     0.585346     1A2     0.646661  
      11A1     0.646835     5B1     0.719013     5B2     0.748913  
      12A1     0.797358     6B1     0.940609     6B2     0.968234  
      13A1     1.360083    14A1     1.625807     2A2     2.527577  
      15A1     2.527627     7B1     2.772524     7B2     2.808125  
      16A1     3.407208  

    Beta Occupied:                                                        

       1A1  -101.633747     2A1   -19.159793     3A1    -9.554518  
       4A1    -7.318987     1B1    -7.305995     1B2    -7.302812  
       5A1    -1.217402     6A1    -0.706292     2B2    -0.496279  
       2B1    -0.476674     7A1    -0.471618     3B2    -0.219465  

    Beta Virtual:                                                         

       3B1    -0.125596     8A1     0.083282     4B1     0.491355  
       4B2     0.494522     9A1     0.546837    10A1     0.593867  
       1A2     0.670851    11A1     0.671886     5B2     0.754189  
       5B1     0.762999    12A1     0.807484     6B2     0.976181  
       6B1     0.989537    13A1     1.375322    14A1     1.645543  
       2A2     2.574643    15A1     2.577667     7B2     2.815473  
       7B1     2.818747    16A1     3.427841  

    Final Occupation by Irrep:
             A1    A2    B1    B2 
    DOCC [     7,    0,    2,    3 ]
    SOCC [     0,    0,    1,    0 ]
    NA   [     7,    0,    3,    3 ]
    NB   [     7,    0,    2,    3 ]

  @DF-UKS Final Energy:  -535.21887935570317

   => Energetics <=

    Nuclear Repulsion Energy =             54.9380056491528919
    One-Electron Energy =                -846.8819556003874141
    Two-Electron Energy =                 286.5389003835109065
    DFT Exchange-Correlation Energy =     -29.8138297879794507
    Empirical Dispersion Energy =           0.0000000000000000
    VV10 Nonlocal Energy =                  0.0000000000000000
    Total Energy =                       -535.2188793557031659

  UHF NO Occupations:
  HONO-2 :    7 A1 1.9997479
  HONO-1 :    2 B1 1.9991804
  HONO-0 :    3 B1 1.0000000
  LUNO+0 :    4 B1 0.0008196
  LUNO+1 :    8 A1 0.0002521
  LUNO+2 :    9 A1 0.0001582
  LUNO+3 :    4 B2 0.0000325


Computation Completed


Properties will be evaluated at   0.000000,   0.000000,   0.000000 [a0]

Properties computed using the SCF density matrix


 Multipole Moments:

 ------------------------------------------------------------------------------------
     Multipole            Electronic (a.u.)      Nuclear  (a.u.)        Total (a.u.)
 ------------------------------------------------------------------------------------

 L = 1.  Multiply by 2.5417464519 to convert [e a0] to [Debye]
 Dipole X            :          0.0000000            0.0000000            0.0000000
 Dipole Y            :          0.0000000            0.0000000            0.0000000
 Dipole Z            :         -0.9357117            0.3806882           -0.5550234
 Magnitude           :                                                    0.5550234

 ------------------------------------------------------------------------------------

*** tstop() called on Joses-MacBook-Pro-2.local at Wed Jul 16 19:23:14 2025
Module time:
	user time   =       3.93 seconds =       0.07 minutes
	system time =       4.72 seconds =       0.08 minutes
	total time  =          1 seconds =       0.02 minutes
Total time:
	user time   =      11.17 seconds =       0.19 minutes
	system time =      10.27 seconds =       0.17 minutes
	total time  =          2 seconds =       0.03 minutes

*** tstart() called on Joses-MacBook-Pro-2.local
*** at Wed Jul 16 19:23:14 2025


         ------------------------------------------------------------
                                   SCF GRAD                          
                          Rob Parrish, Justin Turney,                
                       Andy Simmonett, and Alex Sokolov              
         ------------------------------------------------------------

  ==> Geometry <==

    Molecular point group: c2v
    Full point group: C_inf_v

    Geometry (in Angstrom), charge = 0, multiplicity = 2:

       Center              X                  Y                   Z               Mass       
    ------------   -----------------  -----------------  -----------------  -----------------
         O            0.000000000000     0.000000000000     0.898849561421    15.994914619570
         CL           0.000000000000     0.000000000000    -0.411137938139    34.968852682000

  Nuclear repulsion =   54.938005649152892

  ==> Basis Set <==

  Basis Set: CC-PVDZ
    Blend: CC-PVDZ
    Number of shells: 14
    Number of basis functions: 32
    Number of Cartesian functions: 34
    Spherical Harmonics?: true
    Max angular momentum: 2

  ==> DFJKGrad: Density-Fitted SCF Gradients <==

    Gradient:                    1
    J tasked:                  Yes
    K tasked:                  Yes
    wK tasked:                  No
    OpenMP threads:              1
    Integrals threads:           1
    Memory [MiB]:              375
    Schwarz Cutoff:          1E-12
    Fitting Condition:       1E-10

   => Auxiliary Basis Set <=

  Basis Set: (CC-PVDZ AUX)
    Blend: CC-PVDZ-JKFIT
    Number of shells: 60
    Number of basis functions: 182
    Number of Cartesian functions: 211
    Spherical Harmonics?: true
    Max angular momentum: 3

  ==> DFT Potential <==

   => LibXC <=

    Version 6.2.2
    S. Lehtola, C. Steigemann, M. J.T. Oliveira, and M. A.L. Marques.,  SoftwareX 7, 1–5 (2018) (10.1016/j.softx.2017.11.002)

   => Composite Functional: B3LYP <= 

    B3LYP Hyb-GGA Exchange-Correlation Functional

    P. J. Stephens, F. J. Devlin, C. F. Chabalowski, and M. J. Frisch.,  J. Phys. Chem. 98, 11623 (1994) (10.1021/j100096a001)

    Deriv               =              1
    GGA                 =           TRUE
    Meta                =          FALSE

    Exchange Hybrid     =           TRUE
    MP2 Hybrid          =          FALSE

   => Exchange Functionals <=

    0.0800   Slater exchange
    0.7200         Becke 88

   => Exact (HF) Exchange <=

    0.2000               HF 

   => Correlation Functionals <=

    0.1900   Vosko, Wilk & Nusair (VWN5_RPA)
    0.8100   Lee, Yang & Parr

   => LibXC Density Thresholds  <==

    XC_HYB_GGA_XC_B3LYP:  1.00E-15 

   => Molecular Quadrature <=

    Radial Scheme          =       TREUTLER
    Pruning Scheme         =           NONE
    Nuclear Scheme         =       TREUTLER

    Blocking Scheme        =         OCTREE
    BS radius alpha        =              1
    Pruning alpha          =              1
    Radial Points          =             75
    Spherical Points       =            302
    Total Points           =          41255
    Total Blocks           =            369
    Max Points             =            255
    Max Functions          =             32
    Weights Tolerance      =       1.00E-15


  -Total Gradient:
     Atom            X                  Y                   Z
    ------   -----------------  -----------------  -----------------
       1        0.000000000000    -0.000000000000    -0.456063231022
       2        0.000000000000     0.000000000000     0.456041920166


*** tstop() called on Joses-MacBook-Pro-2.local at Wed Jul 16 19:23:15 2025
Module time:
	user time   =       0.75 seconds =       0.01 minutes
	system time =       1.52 seconds =       0.03 minutes
	total time  =          1 seconds =       0.02 minutes
Total time:
	user time   =      11.92 seconds =       0.20 minutes
	system time =      11.79 seconds =       0.20 minutes
	total time  =          3 seconds =       0.05 minutes

    			-----------------------------------------

    			 OPTKING 3.0: for geometry optimizations 

    			     By R.A. King, Bethel University     

    			        with contributions from          

    			    A.V. Copan, J. Cayton, A. Heide      

    			-----------------------------------------

    
	                            ===> Fragment 1 <== 

	 Z (Atomic Numbers)          Masses                          Geom                  
	       8.000000            15.994915          0.00000000  0.00000000  1.69857950   
	      17.000000            34.968853          0.00000000  0.00000000 -0.77693810   

	 - Coordinate -           - BOHR/RAD -       - ANG/DEG -
	 R(1,2)           =         2.475518           1.309987


	        --- Internal Coordinate Step in ANG or DEG, aJ/ANG or AJ/DEG ---
	-------------------------------------------------------------------------------
	           Coordinate      Previous         Force          Change          New 
	           ----------      --------        ------          ------        ------
	               R(1,2)       1.30999        3.75729        0.10638       1.41637
	-------------------------------------------------------------------------------

	                                 ==> Convergence Check <==                                  
    
	Measures of convergence in internal coordinates in au.
    
	Criteria marked as inactive (o), active & met (*), and active & unmet ( ).

	----------------------------------------------------------------------------------------------
	   Step    Total Energy     Delta E     Max Force     RMS Force      Max Disp      RMS Disp   
	----------------------------------------------------------------------------------------------
	  Convergence Criteria     1.00e-06 *    3.00e-04 *             o    1.20e-03 *             o
	----------------------------------------------------------------------------------------------
	     2    -535.21887936   -1.37e-01      4.56e-01      4.56e-01 o    2.01e-01      2.01e-01 o  ~
	----------------------------------------------------------------------------------------------

Next Geometry in Ang 
	Fragment 1 (Ang)

	    O   0.0000000000   0.0000000000   0.9520405685
	   Cl   0.0000000000   0.0000000000  -0.4643289452


    Structure for next step:
    Molecular point group: c2v
    Full point group: C_inf_v

    Geometry (in Angstrom), charge = 0, multiplicity = 2:

    O            0.000000000000     0.000000000000     0.971843713445
    CL           0.000000000000     0.000000000000    -0.444525800188


Scratch directory: /tmp/
gradient() will perform analytic gradient computation.
   => Libint2 <=

    Primary   basis highest AM E, G, H:  6, 6, 3
    Auxiliary basis highest AM E, G, H:  7, 7, 4
    Onebody   basis highest AM E, G, H:  -, -, -
    Solid Harmonics ordering:            Gaussian

*** tstart() called on Joses-MacBook-Pro-2.local
*** at Wed Jul 16 19:23:15 2025

   => Loading Basis Set <=

    Name: CC-PVDZ
    Role: ORBITAL
    Keyword: BASIS
    atoms 1 entry O          line   198 file /Users/joseantoniorodriguesromero/anaconda3/share/psi4/basis/cc-pvdz.gbs 
    atoms 2 entry CL         line   658 file /Users/joseantoniorodriguesromero/anaconda3/share/psi4/basis/cc-pvdz.gbs 


         ---------------------------------------------------------
                                   SCF
               by Justin Turney, Rob Parrish, Andy Simmonett
                          and Daniel G. A. Smith
                              UKS Reference
                        1 Threads,    500 MiB Core
         ---------------------------------------------------------

  ==> Geometry <==

    Molecular point group: c2v
    Full point group: C_inf_v

    Geometry (in Angstrom), charge = 0, multiplicity = 2:

       Center              X                  Y                   Z               Mass       
    ------------   -----------------  -----------------  -----------------  -----------------
         O            0.000000000000     0.000000000000     0.971843713445    15.994914619570
         CL           0.000000000000     0.000000000000    -0.444525800188    34.968852682000

  Running in c2v symmetry.

  Rotational constants: A = ************  B =      0.76567  C =      0.76567 [cm^-1]
  Rotational constants: A = ************  B =  22954.20591  C =  22954.20591 [MHz]
  Nuclear repulsion =   50.811670230411067

  Charge       = 0
  Multiplicity = 2
  Electrons    = 25
  Nalpha       = 13
  Nbeta        = 12

  ==> Algorithm <==

  SCF Algorithm Type is DF.
  DIIS enabled.
  MOM disabled.
  Fractional occupation disabled.
  Guess Type is READ.
  Energy threshold   = 1.00e-08
  Density threshold  = 1.00e-08
  Integral threshold = 1.00e-12

  ==> Primary Basis <==

  Basis Set: CC-PVDZ
    Blend: CC-PVDZ
    Number of shells: 14
    Number of basis functions: 32
    Number of Cartesian functions: 34
    Spherical Harmonics?: true
    Max angular momentum: 2

  ==> DFT Potential <==

   => LibXC <=

    Version 6.2.2
    S. Lehtola, C. Steigemann, M. J.T. Oliveira, and M. A.L. Marques.,  SoftwareX 7, 1–5 (2018) (10.1016/j.softx.2017.11.002)

   => Composite Functional: B3LYP <= 

    B3LYP Hyb-GGA Exchange-Correlation Functional

    P. J. Stephens, F. J. Devlin, C. F. Chabalowski, and M. J. Frisch.,  J. Phys. Chem. 98, 11623 (1994) (10.1021/j100096a001)

    Deriv               =              1
    GGA                 =           TRUE
    Meta                =          FALSE

    Exchange Hybrid     =           TRUE
    MP2 Hybrid          =          FALSE

   => Exchange Functionals <=

    0.0800   Slater exchange
    0.7200         Becke 88

   => Exact (HF) Exchange <=

    0.2000               HF 

   => Correlation Functionals <=

    0.1900   Vosko, Wilk & Nusair (VWN5_RPA)
    0.8100   Lee, Yang & Parr

   => LibXC Density Thresholds  <==

    XC_HYB_GGA_XC_B3LYP:  1.00E-15 

   => Molecular Quadrature <=

    Radial Scheme          =       TREUTLER
    Pruning Scheme         =           NONE
    Nuclear Scheme         =       TREUTLER

    Blocking Scheme        =         OCTREE
    BS radius alpha        =              1
    Pruning alpha          =              1
    Radial Points          =             75
    Spherical Points       =            302
    Total Points           =          41293
    Total Blocks           =            371
    Max Points             =            255
    Max Functions          =             32
    Weights Tolerance      =       1.00E-15

   => Loading Basis Set <=

    Name: (CC-PVDZ AUX)
    Role: JKFIT
    Keyword: DF_BASIS_SCF
    atoms 1 entry O          line   221 file /Users/joseantoniorodriguesromero/anaconda3/share/psi4/basis/cc-pvdz-jkfit.gbs 
    atoms 2 entry CL         line   667 file /Users/joseantoniorodriguesromero/anaconda3/share/psi4/basis/cc-pvdz-jkfit.gbs 

   => Loading Basis Set <=

    Name: CC-PVDZ
    Role: ORBITAL
    Keyword: BASIS
    atoms 1 entry O          line   198 file /Users/joseantoniorodriguesromero/anaconda3/share/psi4/basis/cc-pvdz.gbs 
    atoms 2 entry CL         line   658 file /Users/joseantoniorodriguesromero/anaconda3/share/psi4/basis/cc-pvdz.gbs 

  Reading orbitals from file /tmp/doublet_OCl.default.69071.180.npy, no projection.

  ==> Integral Setup <==

  DFHelper Memory: AOs need 0.002 GiB; user supplied 0.329 GiB. 
  Using in-core AOs.

  ==> MemDFJK: Density-Fitted J/K Matrices <==

    J tasked:                   Yes
    K tasked:                   Yes
    wK tasked:                   No
    OpenMP threads:               1
    Memory [MiB]:               336
    Algorithm:                 Core
    Schwarz Cutoff:           1E-12
    Mask sparsity (%):       0.0000
    Fitting Condition:        1E-10

   => Auxiliary Basis Set <=

  Basis Set: (CC-PVDZ AUX)
    Blend: CC-PVDZ-JKFIT
    Number of shells: 60
    Number of basis functions: 182
    Number of Cartesian functions: 211
    Spherical Harmonics?: true
    Max angular momentum: 3

  Cached 100.0% of DFT collocation blocks in 0.037 [GiB].

  Minimum eigenvalue in the overlap matrix is 2.6792126294E-02.
  Reciprocal condition number of the overlap matrix is 9.3834791985E-03.
    Using symmetric orthogonalization.

  ==> Pre-Iterations <==

  SCF Guess: Orbitals guess was supplied from a previous computation.

   -------------------------------------------------------
    Irrep   Nso     Nmo     Nalpha   Nbeta   Ndocc  Nsocc
   -------------------------------------------------------
     A1        16      16       7       7       7       0
     A2         2       2       0       0       0       0
     B1         7       7       3       2       2       1
     B2         7       7       3       3       3       0
   -------------------------------------------------------
    Total      32      32      13      12      12       1
   -------------------------------------------------------

  ==> Iterations <==

                           Total Energy        Delta E     RMS |[F,P]|

   @DF-UKS iter   0:  -535.20039073243925   -5.35200e+02   2.32101e-02 
   @DF-UKS iter   1:  -535.28205392291181   -8.16632e-02   3.18165e-03 DIIS/ADIIS
   @DF-UKS iter   2:  -535.28306678445745   -1.01286e-03   2.09865e-03 DIIS/ADIIS/DAMP=1%
   @DF-UKS iter   3:  -535.28268561052005    3.81174e-04   7.77978e-04 DIIS/ADIIS/DAMP=1%
   @DF-UKS iter   4:  -535.28387886458688   -1.19325e-03   2.57186e-04 DIIS/ADIIS/DAMP=1%
   @DF-UKS iter   5:  -535.28388052186779   -1.65728e-06   4.79676e-05 DIIS/DAMP=1%
   @DF-UKS iter   6:  -535.28376201915842    1.18503e-04   1.03403e-05 DIIS/DAMP=1%
   @DF-UKS iter   7:  -535.28380997618888   -4.79570e-05   1.46821e-06 DIIS/DAMP=1%
   @DF-UKS iter   8:  -535.28380456413481    5.41205e-06   3.11365e-07 DIIS/DAMP=1%
   @DF-UKS iter   9:  -535.28380461582447   -5.16897e-08   8.81436e-08 DIIS/DAMP=1%
   @DF-UKS iter  10:  -535.28380470990919   -9.40847e-08   9.01537e-09 DIIS/DAMP=1%
   @DF-UKS iter  11:  -535.28380469921592    1.06933e-08   1.22758e-09 DIIS/DAMP=1%
   @DF-UKS iter  12:  -535.28380469873309    4.82828e-10   1.21768e-10 DIIS/DAMP=1%
  Energy and wave function converged.


  ==> Post-Iterations <==

   Electrons on quadrature grid:
      Nalpha   =   13.0000006290 ; deviation = 6.290e-07
      Nbeta    =   12.0000002962 ; deviation = 2.962e-07
      Ntotal   =   25.0000009251 ; deviation = 9.251e-07 

   @Spin Contamination Metric:   2.742151477E-03
   @S^2 Expected:                7.500000000E-01
   @S^2 Observed:                7.527421515E-01
   @S   Expected:                5.000000000E-01
   @S   Observed:                5.000000000E-01

    Orbital Energies [Eh]
    ---------------------

    Alpha Occupied:                                                       

       1A1  -101.631989     2A1   -19.196867     3A1    -9.550183  
       4A1    -7.313408     1B1    -7.308146     1B2    -7.298294  
       5A1    -1.175200     6A1    -0.761571     2B1    -0.510607  
       7A1    -0.489608     2B2    -0.474394     3B1    -0.293511  
       3B2    -0.253626  

    Alpha Virtual:                                                        

       8A1     0.035071     4B1     0.484798     4B2     0.500366  
       9A1     0.514096    10A1     0.559845     1A2     0.655670  
      11A1     0.655701     5B1     0.678158     5B2     0.705663  
      12A1     0.820743     6B1     0.949986     6B2     0.979988  
      13A1     1.209269    14A1     1.611999    15A1     2.527378  
       2A2     2.527435     7B1     2.688892     7B2     2.727996  
      16A1     3.270344  

    Beta Occupied:                                                        

       1A1  -101.629444     2A1   -19.179194     3A1    -9.547724  
       4A1    -7.312287     1B1    -7.299567     1B2    -7.296838  
       5A1    -1.146750     6A1    -0.727670     7A1    -0.469021  
       2B2    -0.464860     2B1    -0.443261     3B2    -0.239727  

    Beta Virtual:                                                         

       3B1    -0.141429     8A1     0.047510     4B1     0.499403  
       4B2     0.502548     9A1     0.519834    10A1     0.567657  
       1A2     0.676573    11A1     0.677322     5B2     0.710452  
       5B1     0.719284    12A1     0.833142     6B2     0.988732  
       6B1     1.003885    13A1     1.223177    14A1     1.633750  
       2A2     2.580491    15A1     2.584427     7B2     2.736490  
       7B1     2.741768    16A1     3.294188  

    Final Occupation by Irrep:
             A1    A2    B1    B2 
    DOCC [     7,    0,    2,    3 ]
    SOCC [     0,    0,    1,    0 ]
    NA   [     7,    0,    3,    3 ]
    NB   [     7,    0,    2,    3 ]

  @DF-UKS Final Energy:  -535.28380469873309

   => Energetics <=

    Nuclear Repulsion Energy =             50.8116702304110675
    One-Electron Energy =                -838.9965961426519243
    Two-Electron Energy =                 282.6400671121924120
    DFT Exchange-Correlation Energy =     -29.7389458986846513
    Empirical Dispersion Energy =           0.0000000000000000
    VV10 Nonlocal Energy =                  0.0000000000000000
    Total Energy =                       -535.2838046987330927

  UHF NO Occupations:
  HONO-2 :    7 A1 1.9997326
  HONO-1 :    2 B1 1.9991310
  HONO-0 :    3 B1 1.0000000
  LUNO+0 :    4 B1 0.0008690
  LUNO+1 :    8 A1 0.0002674
  LUNO+2 :    9 A1 0.0001495
  LUNO+3 :    4 B2 0.0000413


Computation Completed


Properties will be evaluated at   0.000000,   0.000000,   0.000000 [a0]

Properties computed using the SCF density matrix


 Multipole Moments:

 ------------------------------------------------------------------------------------
     Multipole            Electronic (a.u.)      Nuclear  (a.u.)        Total (a.u.)
 ------------------------------------------------------------------------------------

 L = 1.  Multiply by 2.5417464519 to convert [e a0] to [Debye]
 Dipole X            :          0.0000000            0.0000000            0.0000000
 Dipole Y            :          0.0000000            0.0000000            0.0000000
 Dipole Z            :         -1.0045755            0.4116033           -0.5929722
 Magnitude           :                                                    0.5929722

 ------------------------------------------------------------------------------------

*** tstop() called on Joses-MacBook-Pro-2.local at Wed Jul 16 19:23:15 2025
Module time:
	user time   =       4.64 seconds =       0.08 minutes
	system time =       3.57 seconds =       0.06 minutes
	total time  =          0 seconds =       0.00 minutes
Total time:
	user time   =      16.60 seconds =       0.28 minutes
	system time =      15.58 seconds =       0.26 minutes
	total time  =          3 seconds =       0.05 minutes

*** tstart() called on Joses-MacBook-Pro-2.local
*** at Wed Jul 16 19:23:15 2025


         ------------------------------------------------------------
                                   SCF GRAD                          
                          Rob Parrish, Justin Turney,                
                       Andy Simmonett, and Alex Sokolov              
         ------------------------------------------------------------

  ==> Geometry <==

    Molecular point group: c2v
    Full point group: C_inf_v

    Geometry (in Angstrom), charge = 0, multiplicity = 2:

       Center              X                  Y                   Z               Mass       
    ------------   -----------------  -----------------  -----------------  -----------------
         O            0.000000000000     0.000000000000     0.971843713445    15.994914619570
         CL           0.000000000000     0.000000000000    -0.444525800188    34.968852682000

  Nuclear repulsion =   50.811670230411067

  ==> Basis Set <==

  Basis Set: CC-PVDZ
    Blend: CC-PVDZ
    Number of shells: 14
    Number of basis functions: 32
    Number of Cartesian functions: 34
    Spherical Harmonics?: true
    Max angular momentum: 2

  ==> DFJKGrad: Density-Fitted SCF Gradients <==

    Gradient:                    1
    J tasked:                  Yes
    K tasked:                  Yes
    wK tasked:                  No
    OpenMP threads:              1
    Integrals threads:           1
    Memory [MiB]:              375
    Schwarz Cutoff:          1E-12
    Fitting Condition:       1E-10

   => Auxiliary Basis Set <=

  Basis Set: (CC-PVDZ AUX)
    Blend: CC-PVDZ-JKFIT
    Number of shells: 60
    Number of basis functions: 182
    Number of Cartesian functions: 211
    Spherical Harmonics?: true
    Max angular momentum: 3

  ==> DFT Potential <==

   => LibXC <=

    Version 6.2.2
    S. Lehtola, C. Steigemann, M. J.T. Oliveira, and M. A.L. Marques.,  SoftwareX 7, 1–5 (2018) (10.1016/j.softx.2017.11.002)

   => Composite Functional: B3LYP <= 

    B3LYP Hyb-GGA Exchange-Correlation Functional

    P. J. Stephens, F. J. Devlin, C. F. Chabalowski, and M. J. Frisch.,  J. Phys. Chem. 98, 11623 (1994) (10.1021/j100096a001)

    Deriv               =              1
    GGA                 =           TRUE
    Meta                =          FALSE

    Exchange Hybrid     =           TRUE
    MP2 Hybrid          =          FALSE

   => Exchange Functionals <=

    0.0800   Slater exchange
    0.7200         Becke 88

   => Exact (HF) Exchange <=

    0.2000               HF 

   => Correlation Functionals <=

    0.1900   Vosko, Wilk & Nusair (VWN5_RPA)
    0.8100   Lee, Yang & Parr

   => LibXC Density Thresholds  <==

    XC_HYB_GGA_XC_B3LYP:  1.00E-15 

   => Molecular Quadrature <=

    Radial Scheme          =       TREUTLER
    Pruning Scheme         =           NONE
    Nuclear Scheme         =       TREUTLER

    Blocking Scheme        =         OCTREE
    BS radius alpha        =              1
    Pruning alpha          =              1
    Radial Points          =             75
    Spherical Points       =            302
    Total Points           =          41293
    Total Blocks           =            371
    Max Points             =            255
    Max Functions          =             32
    Weights Tolerance      =       1.00E-15


  -Total Gradient:
     Atom            X                  Y                   Z
    ------   -----------------  -----------------  -----------------
       1        0.000000000000     0.000000000000    -0.213169817088
       2        0.000000000000     0.000000000000     0.213147793542


*** tstop() called on Joses-MacBook-Pro-2.local at Wed Jul 16 19:23:16 2025
Module time:
	user time   =       1.00 seconds =       0.02 minutes
	system time =       1.37 seconds =       0.02 minutes
	total time  =          1 seconds =       0.02 minutes
Total time:
	user time   =      17.60 seconds =       0.29 minutes
	system time =      16.95 seconds =       0.28 minutes
	total time  =          4 seconds =       0.07 minutes

    			-----------------------------------------

    			 OPTKING 3.0: for geometry optimizations 

    			     By R.A. King, Bethel University     

    			        with contributions from          

    			    A.V. Copan, J. Cayton, A. Heide      

    			-----------------------------------------

    
	                            ===> Fragment 1 <== 

	 Z (Atomic Numbers)          Masses                          Geom                  
	       8.000000            15.994915          0.00000000  0.00000000  1.83651846   
	      17.000000            34.968853          0.00000000  0.00000000 -0.84003202   

	 - Coordinate -           - BOHR/RAD -       - ANG/DEG -
	 R(1,2)           =         2.676550           1.416370


	        --- Internal Coordinate Step in ANG or DEG, aJ/ANG or AJ/DEG ---
	-------------------------------------------------------------------------------
	           Coordinate      Previous         Force          Change          New 
	           ----------      --------        ------          ------        ------
	               R(1,2)       1.41637        1.75616        0.06532       1.48169
	-------------------------------------------------------------------------------

	                                 ==> Convergence Check <==                                  
    
	Measures of convergence in internal coordinates in au.
    
	Criteria marked as inactive (o), active & met (*), and active & unmet ( ).

	----------------------------------------------------------------------------------------------
	   Step    Total Energy     Delta E     Max Force     RMS Force      Max Disp      RMS Disp   
	----------------------------------------------------------------------------------------------
	  Convergence Criteria     1.00e-06 *    3.00e-04 *             o    1.20e-03 *             o
	----------------------------------------------------------------------------------------------
	     3    -535.28380470   -6.49e-02      2.13e-01      2.13e-01 o    1.23e-01      1.23e-01 o  ~
	----------------------------------------------------------------------------------------------

Next Geometry in Ang 
	Fragment 1 (Ang)

	    O   0.0000000000   0.0000000000   1.0045024995
	   Cl   0.0000000000   0.0000000000  -0.4771845862


    Structure for next step:
    Molecular point group: c2v
    Full point group: C_inf_v

    Geometry (in Angstrom), charge = 0, multiplicity = 2:

    O            0.000000000000     0.000000000000     1.016661447224
    CL           0.000000000000     0.000000000000    -0.465025638480


Scratch directory: /tmp/
gradient() will perform analytic gradient computation.
   => Libint2 <=

    Primary   basis highest AM E, G, H:  6, 6, 3
    Auxiliary basis highest AM E, G, H:  7, 7, 4
    Onebody   basis highest AM E, G, H:  -, -, -
    Solid Harmonics ordering:            Gaussian

*** tstart() called on Joses-MacBook-Pro-2.local
*** at Wed Jul 16 19:23:16 2025

   => Loading Basis Set <=

    Name: CC-PVDZ
    Role: ORBITAL
    Keyword: BASIS
    atoms 1 entry O          line   198 file /Users/joseantoniorodriguesromero/anaconda3/share/psi4/basis/cc-pvdz.gbs 
    atoms 2 entry CL         line   658 file /Users/joseantoniorodriguesromero/anaconda3/share/psi4/basis/cc-pvdz.gbs 


         ---------------------------------------------------------
                                   SCF
               by Justin Turney, Rob Parrish, Andy Simmonett
                          and Daniel G. A. Smith
                              UKS Reference
                        1 Threads,    500 MiB Core
         ---------------------------------------------------------

  ==> Geometry <==

    Molecular point group: c2v
    Full point group: C_inf_v

    Geometry (in Angstrom), charge = 0, multiplicity = 2:

       Center              X                  Y                   Z               Mass       
    ------------   -----------------  -----------------  -----------------  -----------------
         O            0.000000000000     0.000000000000     1.016661447224    15.994914619570
         CL           0.000000000000     0.000000000000    -0.465025638480    34.968852682000

  Running in c2v symmetry.

  Rotational constants: A = ************  B =      0.69965  C =      0.69965 [cm^-1]
  Rotational constants: A = ************  B =  20975.02188  C =  20975.02188 [MHz]
  Nuclear repulsion =   48.571727016781175

  Charge       = 0
  Multiplicity = 2
  Electrons    = 25
  Nalpha       = 13
  Nbeta        = 12

  ==> Algorithm <==

  SCF Algorithm Type is DF.
  DIIS enabled.
  MOM disabled.
  Fractional occupation disabled.
  Guess Type is READ.
  Energy threshold   = 1.00e-08
  Density threshold  = 1.00e-08
  Integral threshold = 1.00e-12

  ==> Primary Basis <==

  Basis Set: CC-PVDZ
    Blend: CC-PVDZ
    Number of shells: 14
    Number of basis functions: 32
    Number of Cartesian functions: 34
    Spherical Harmonics?: true
    Max angular momentum: 2

  ==> DFT Potential <==

   => LibXC <=

    Version 6.2.2
    S. Lehtola, C. Steigemann, M. J.T. Oliveira, and M. A.L. Marques.,  SoftwareX 7, 1–5 (2018) (10.1016/j.softx.2017.11.002)

   => Composite Functional: B3LYP <= 

    B3LYP Hyb-GGA Exchange-Correlation Functional

    P. J. Stephens, F. J. Devlin, C. F. Chabalowski, and M. J. Frisch.,  J. Phys. Chem. 98, 11623 (1994) (10.1021/j100096a001)

    Deriv               =              1
    GGA                 =           TRUE
    Meta                =          FALSE

    Exchange Hybrid     =           TRUE
    MP2 Hybrid          =          FALSE

   => Exchange Functionals <=

    0.0800   Slater exchange
    0.7200         Becke 88

   => Exact (HF) Exchange <=

    0.2000               HF 

   => Correlation Functionals <=

    0.1900   Vosko, Wilk & Nusair (VWN5_RPA)
    0.8100   Lee, Yang & Parr

   => LibXC Density Thresholds  <==

    XC_HYB_GGA_XC_B3LYP:  1.00E-15 

   => Molecular Quadrature <=

    Radial Scheme          =       TREUTLER
    Pruning Scheme         =           NONE
    Nuclear Scheme         =       TREUTLER

    Blocking Scheme        =         OCTREE
    BS radius alpha        =              1
    Pruning alpha          =              1
    Radial Points          =             75
    Spherical Points       =            302
    Total Points           =          41309
    Total Blocks           =            371
    Max Points             =            256
    Max Functions          =             32
    Weights Tolerance      =       1.00E-15

   => Loading Basis Set <=

    Name: (CC-PVDZ AUX)
    Role: JKFIT
    Keyword: DF_BASIS_SCF
    atoms 1 entry O          line   221 file /Users/joseantoniorodriguesromero/anaconda3/share/psi4/basis/cc-pvdz-jkfit.gbs 
    atoms 2 entry CL         line   667 file /Users/joseantoniorodriguesromero/anaconda3/share/psi4/basis/cc-pvdz-jkfit.gbs 

   => Loading Basis Set <=

    Name: CC-PVDZ
    Role: ORBITAL
    Keyword: BASIS
    atoms 1 entry O          line   198 file /Users/joseantoniorodriguesromero/anaconda3/share/psi4/basis/cc-pvdz.gbs 
    atoms 2 entry CL         line   658 file /Users/joseantoniorodriguesromero/anaconda3/share/psi4/basis/cc-pvdz.gbs 

  Reading orbitals from file /tmp/doublet_OCl.default.69071.180.npy, no projection.

  ==> Integral Setup <==

  DFHelper Memory: AOs need 0.002 GiB; user supplied 0.329 GiB. 
  Using in-core AOs.

  ==> MemDFJK: Density-Fitted J/K Matrices <==

    J tasked:                   Yes
    K tasked:                   Yes
    wK tasked:                   No
    OpenMP threads:               1
    Memory [MiB]:               336
    Algorithm:                 Core
    Schwarz Cutoff:           1E-12
    Mask sparsity (%):       0.0000
    Fitting Condition:        1E-10

   => Auxiliary Basis Set <=

  Basis Set: (CC-PVDZ AUX)
    Blend: CC-PVDZ-JKFIT
    Number of shells: 60
    Number of basis functions: 182
    Number of Cartesian functions: 211
    Spherical Harmonics?: true
    Max angular momentum: 3

  Cached 100.0% of DFT collocation blocks in 0.037 [GiB].

  Minimum eigenvalue in the overlap matrix is 3.0211166042E-02.
  Reciprocal condition number of the overlap matrix is 1.0794638144E-02.
    Using symmetric orthogonalization.

  ==> Pre-Iterations <==

  SCF Guess: Orbitals guess was supplied from a previous computation.

   -------------------------------------------------------
    Irrep   Nso     Nmo     Nalpha   Nbeta   Ndocc  Nsocc
   -------------------------------------------------------
     A1        16      16       7       7       7       0
     A2         2       2       0       0       0       0
     B1         7       7       3       2       2       1
     B2         7       7       3       3       3       0
   -------------------------------------------------------
    Total      32      32      13      12      12       1
   -------------------------------------------------------

  ==> Iterations <==

                           Total Energy        Delta E     RMS |[F,P]|

   @DF-UKS iter   0:  -535.25711621366133   -5.35257e+02   1.19478e-02 
   @DF-UKS iter   1:  -535.30343945050788   -4.63232e-02   2.02133e-03 DIIS/ADIIS
   @DF-UKS iter   2:  -535.30374439288460   -3.04942e-04   1.43102e-03 DIIS/ADIIS/DAMP=1%
   @DF-UKS iter   3:  -535.30335897882071    3.85414e-04   5.98371e-04 DIIS/ADIIS/DAMP=1%
   @DF-UKS iter   4:  -535.30406122905572   -7.02250e-04   7.47756e-05 DIIS/DAMP=1%
   @DF-UKS iter   5:  -535.30412508318045   -6.38541e-05   4.65714e-05 DIIS/DAMP=1%
   @DF-UKS iter   6:  -535.30403998688234    8.50963e-05   8.88391e-06 DIIS/DAMP=1%
   @DF-UKS iter   7:  -535.30406496236651   -2.49755e-05   1.27230e-06 DIIS/DAMP=1%
   @DF-UKS iter   8:  -535.30406055755725    4.40481e-06   1.93198e-07 DIIS/DAMP=1%
   @DF-UKS iter   9:  -535.30406060226846   -4.47112e-08   4.77574e-08 DIIS/DAMP=1%
   @DF-UKS iter  10:  -535.30406068949719   -8.72287e-08   5.69978e-09 DIIS/DAMP=1%
   @DF-UKS iter  11:  -535.30406067495142    1.45458e-08   9.84673e-10 DIIS/DAMP=1%
   @DF-UKS iter  12:  -535.30406067600723   -1.05581e-09   8.85301e-11 DIIS/DAMP=1%
  Energy and wave function converged.


  ==> Post-Iterations <==

   Electrons on quadrature grid:
      Nalpha   =   13.0000017531 ; deviation = 1.753e-06
      Nbeta    =   12.0000008971 ; deviation = 8.971e-07
      Ntotal   =   25.0000026502 ; deviation = 2.650e-06 

   @Spin Contamination Metric:   2.809515861E-03
   @S^2 Expected:                7.500000000E-01
   @S^2 Observed:                7.528095159E-01
   @S   Expected:                5.000000000E-01
   @S   Observed:                5.000000000E-01

    Orbital Energies [Eh]
    ---------------------

    Alpha Occupied:                                                       

       1A1  -101.628990     2A1   -19.210542     3A1    -9.546200  
       4A1    -7.309611     1B1    -7.303744     1B2    -7.294755  
       5A1    -1.140476     6A1    -0.773565     2B1    -0.495624  
       7A1    -0.487622     2B2    -0.459017     3B1    -0.305801  
       3B2    -0.265692  

    Alpha Virtual:                                                        

       8A1     0.008390     4B1     0.491704     9A1     0.494576  
       4B2     0.505887    10A1     0.558602     5B1     0.659307  
       1A2     0.661136    11A1     0.661150     5B2     0.685222  
      12A1     0.832437     6B1     0.952244     6B2     0.983559  
      13A1     1.142263    14A1     1.603550    15A1     2.525270  
       2A2     2.525445     7B1     2.644694     7B2     2.685925  
      16A1     3.177240  

    Beta Occupied:                                                        

       1A1  -101.626688     2A1   -19.191812     3A1    -9.543979  
       4A1    -7.308697     1B1    -7.295897     1B2    -7.293438  
       5A1    -1.109124     6A1    -0.740444     7A1    -0.467640  
       2B2    -0.449365     2B1    -0.426979     3B2    -0.251406  

    Beta Virtual:                                                         

       3B1    -0.150109     8A1     0.021703     9A1     0.499371  
       4B1     0.504747     4B2     0.507787    10A1     0.565371  
       1A2     0.679995    11A1     0.680593     5B2     0.689603  
       5B1     0.698203    12A1     0.846075     6B2     0.992773  
       6B1     1.009118    13A1     1.155234    14A1     1.626626  
       2A2     2.581890    15A1     2.586404     7B2     2.695207  
       7B1     2.701766    16A1     3.202946  

    Final Occupation by Irrep:
             A1    A2    B1    B2 
    DOCC [     7,    0,    2,    3 ]
    SOCC [     0,    0,    1,    0 ]
    NA   [     7,    0,    3,    3 ]
    NB   [     7,    0,    2,    3 ]

  @DF-UKS Final Energy:  -535.30406067600723

   => Energetics <=

    Nuclear Repulsion Energy =             48.5717270167811748
    One-Electron Energy =                -834.6690887347647276
    Two-Electron Energy =                 280.4943687936581114
    DFT Exchange-Correlation Energy =     -29.7010677516818475
    Empirical Dispersion Energy =           0.0000000000000000
    VV10 Nonlocal Energy =                  0.0000000000000000
    Total Energy =                       -535.3040606760072251

  UHF NO Occupations:
  HONO-2 :    7 A1 1.9997006
  HONO-1 :    2 B1 1.9991464
  HONO-0 :    3 B1 1.0000000
  LUNO+0 :    4 B1 0.0008536
  LUNO+1 :    8 A1 0.0002994
  LUNO+2 :    9 A1 0.0001466
  LUNO+3 :   10 A1 0.0000558


Computation Completed


Properties will be evaluated at   0.000000,   0.000000,   0.000000 [a0]

Properties computed using the SCF density matrix


 Multipole Moments:

 ------------------------------------------------------------------------------------
     Multipole            Electronic (a.u.)      Nuclear  (a.u.)        Total (a.u.)
 ------------------------------------------------------------------------------------

 L = 1.  Multiply by 2.5417464519 to convert [e a0] to [Debye]
 Dipole X            :          0.0000000            0.0000000            0.0000000
 Dipole Y            :          0.0000000            0.0000000            0.0000000
 Dipole Z            :         -1.0157395            0.4305849           -0.5851546
 Magnitude           :                                                    0.5851546

 ------------------------------------------------------------------------------------

*** tstop() called on Joses-MacBook-Pro-2.local at Wed Jul 16 19:23:16 2025
Module time:
	user time   =       3.84 seconds =       0.06 minutes
	system time =       4.94 seconds =       0.08 minutes
	total time  =          0 seconds =       0.00 minutes
Total time:
	user time   =      21.47 seconds =       0.36 minutes
	system time =      22.11 seconds =       0.37 minutes
	total time  =          4 seconds =       0.07 minutes

*** tstart() called on Joses-MacBook-Pro-2.local
*** at Wed Jul 16 19:23:16 2025


         ------------------------------------------------------------
                                   SCF GRAD                          
                          Rob Parrish, Justin Turney,                
                       Andy Simmonett, and Alex Sokolov              
         ------------------------------------------------------------

  ==> Geometry <==

    Molecular point group: c2v
    Full point group: C_inf_v

    Geometry (in Angstrom), charge = 0, multiplicity = 2:

       Center              X                  Y                   Z               Mass       
    ------------   -----------------  -----------------  -----------------  -----------------
         O            0.000000000000     0.000000000000     1.016661447224    15.994914619570
         CL           0.000000000000     0.000000000000    -0.465025638480    34.968852682000

  Nuclear repulsion =   48.571727016781175

  ==> Basis Set <==

  Basis Set: CC-PVDZ
    Blend: CC-PVDZ
    Number of shells: 14
    Number of basis functions: 32
    Number of Cartesian functions: 34
    Spherical Harmonics?: true
    Max angular momentum: 2

  ==> DFJKGrad: Density-Fitted SCF Gradients <==

    Gradient:                    1
    J tasked:                  Yes
    K tasked:                  Yes
    wK tasked:                  No
    OpenMP threads:              1
    Integrals threads:           1
    Memory [MiB]:              375
    Schwarz Cutoff:          1E-12
    Fitting Condition:       1E-10

   => Auxiliary Basis Set <=

  Basis Set: (CC-PVDZ AUX)
    Blend: CC-PVDZ-JKFIT
    Number of shells: 60
    Number of basis functions: 182
    Number of Cartesian functions: 211
    Spherical Harmonics?: true
    Max angular momentum: 3

  ==> DFT Potential <==

   => LibXC <=

    Version 6.2.2
    S. Lehtola, C. Steigemann, M. J.T. Oliveira, and M. A.L. Marques.,  SoftwareX 7, 1–5 (2018) (10.1016/j.softx.2017.11.002)

   => Composite Functional: B3LYP <= 

    B3LYP Hyb-GGA Exchange-Correlation Functional

    P. J. Stephens, F. J. Devlin, C. F. Chabalowski, and M. J. Frisch.,  J. Phys. Chem. 98, 11623 (1994) (10.1021/j100096a001)

    Deriv               =              1
    GGA                 =           TRUE
    Meta                =          FALSE

    Exchange Hybrid     =           TRUE
    MP2 Hybrid          =          FALSE

   => Exchange Functionals <=

    0.0800   Slater exchange
    0.7200         Becke 88

   => Exact (HF) Exchange <=

    0.2000               HF 

   => Correlation Functionals <=

    0.1900   Vosko, Wilk & Nusair (VWN5_RPA)
    0.8100   Lee, Yang & Parr

   => LibXC Density Thresholds  <==

    XC_HYB_GGA_XC_B3LYP:  1.00E-15 

   => Molecular Quadrature <=

    Radial Scheme          =       TREUTLER
    Pruning Scheme         =           NONE
    Nuclear Scheme         =       TREUTLER

    Blocking Scheme        =         OCTREE
    BS radius alpha        =              1
    Pruning alpha          =              1
    Radial Points          =             75
    Spherical Points       =            302
    Total Points           =          41309
    Total Blocks           =            371
    Max Points             =            256
    Max Functions          =             32
    Weights Tolerance      =       1.00E-15


  -Total Gradient:
     Atom            X                  Y                   Z
    ------   -----------------  -----------------  -----------------
       1        0.000000000000     0.000000000000    -0.120560379641
       2        0.000000000000    -0.000000000000     0.120530324884


*** tstop() called on Joses-MacBook-Pro-2.local at Wed Jul 16 19:23:17 2025
Module time:
	user time   =       0.98 seconds =       0.02 minutes
	system time =       1.64 seconds =       0.03 minutes
	total time  =          1 seconds =       0.02 minutes
Total time:
	user time   =      22.45 seconds =       0.37 minutes
	system time =      23.75 seconds =       0.40 minutes
	total time  =          5 seconds =       0.08 minutes

    			-----------------------------------------

    			 OPTKING 3.0: for geometry optimizations 

    			     By R.A. King, Bethel University     

    			        with contributions from          

    			    A.V. Copan, J. Cayton, A. Heide      

    			-----------------------------------------

    
	                            ===> Fragment 1 <== 

	 Z (Atomic Numbers)          Masses                          Geom                  
	       8.000000            15.994915          0.00000000  0.00000000  1.92121170   
	      17.000000            34.968853          0.00000000  0.00000000 -0.87877110   

	 - Coordinate -           - BOHR/RAD -       - ANG/DEG -
	 R(1,2)           =         2.799983           1.481687


	        --- Internal Coordinate Step in ANG or DEG, aJ/ANG or AJ/DEG ---
	-------------------------------------------------------------------------------
	           Coordinate      Previous         Force          Change          New 
	           ----------      --------        ------          ------        ------
	               R(1,2)       1.48169        0.99314        0.06087       1.54256
	-------------------------------------------------------------------------------

	                                 ==> Convergence Check <==                                  
    
	Measures of convergence in internal coordinates in au.
    
	Criteria marked as inactive (o), active & met (*), and active & unmet ( ).

	----------------------------------------------------------------------------------------------
	   Step    Total Energy     Delta E     Max Force     RMS Force      Max Disp      RMS Disp   
	----------------------------------------------------------------------------------------------
	  Convergence Criteria     1.00e-06 *    3.00e-04 *             o    1.20e-03 *             o
	----------------------------------------------------------------------------------------------
	     4    -535.30406068   -2.03e-02      1.21e-01      1.21e-01 o    1.15e-01      1.15e-01 o  ~
	----------------------------------------------------------------------------------------------

Next Geometry in Ang 
	Fragment 1 (Ang)

	    O   0.0000000000   0.0000000000   1.0470984868
	   Cl   0.0000000000   0.0000000000  -0.4954626780


    Structure for next step:
    Molecular point group: c2v
    Full point group: C_inf_v

    Geometry (in Angstrom), charge = 0, multiplicity = 2:

    O            0.000000000000     0.000000000000     1.058430272754
    CL           0.000000000000     0.000000000000    -0.484130892066


Scratch directory: /tmp/
gradient() will perform analytic gradient computation.
   => Libint2 <=

    Primary   basis highest AM E, G, H:  6, 6, 3
    Auxiliary basis highest AM E, G, H:  7, 7, 4
    Onebody   basis highest AM E, G, H:  -, -, -
    Solid Harmonics ordering:            Gaussian

*** tstart() called on Joses-MacBook-Pro-2.local
*** at Wed Jul 16 19:23:17 2025

   => Loading Basis Set <=

    Name: CC-PVDZ
    Role: ORBITAL
    Keyword: BASIS
    atoms 1 entry O          line   198 file /Users/joseantoniorodriguesromero/anaconda3/share/psi4/basis/cc-pvdz.gbs 
    atoms 2 entry CL         line   658 file /Users/joseantoniorodriguesromero/anaconda3/share/psi4/basis/cc-pvdz.gbs 


         ---------------------------------------------------------
                                   SCF
               by Justin Turney, Rob Parrish, Andy Simmonett
                          and Daniel G. A. Smith
                              UKS Reference
                        1 Threads,    500 MiB Core
         ---------------------------------------------------------

  ==> Geometry <==

    Molecular point group: c2v
    Full point group: C_inf_v

    Geometry (in Angstrom), charge = 0, multiplicity = 2:

       Center              X                  Y                   Z               Mass       
    ------------   -----------------  -----------------  -----------------  -----------------
         O            0.000000000000     0.000000000000     1.058430272754    15.994914619570
         CL           0.000000000000     0.000000000000    -0.484130892066    34.968852682000

  Running in c2v symmetry.

  Rotational constants: A = ************  B =      0.64552  C =      0.64552 [cm^-1]
  Rotational constants: A = ************  B =  19352.21262  C =  19352.21262 [MHz]
  Nuclear repulsion =   46.654941335512007

  Charge       = 0
  Multiplicity = 2
  Electrons    = 25
  Nalpha       = 13
  Nbeta        = 12

  ==> Algorithm <==

  SCF Algorithm Type is DF.
  DIIS enabled.
  MOM disabled.
  Fractional occupation disabled.
  Guess Type is READ.
  Energy threshold   = 1.00e-08
  Density threshold  = 1.00e-08
  Integral threshold = 1.00e-12

  ==> Primary Basis <==

  Basis Set: CC-PVDZ
    Blend: CC-PVDZ
    Number of shells: 14
[...]
    
	Measures of convergence in internal coordinates in au.
    
	Criteria marked as inactive (o), active & met (*), and active & unmet ( ).

	----------------------------------------------------------------------------------------------
	   Step    Total Energy     Delta E     Max Force     RMS Force      Max Disp      RMS Disp   
	----------------------------------------------------------------------------------------------
	  Convergence Criteria     1.00e-06 *    3.00e-04 *             o    1.20e-03 *             o
	----------------------------------------------------------------------------------------------
	    10    -535.31879789   -8.05e-06      4.87e-04      4.87e-04 o    1.52e-03      1.52e-03 o  ~
	----------------------------------------------------------------------------------------------

Next Geometry in Ang 
	Fragment 1 (Ang)

	    O   0.0000000000   0.0000000000   1.1191340720
	   Cl   0.0000000000   0.0000000000  -0.5121152639


    Structure for next step:
    Molecular point group: c2v
    Full point group: C_inf_v

    Geometry (in Angstrom), charge = 0, multiplicity = 2:

    O            0.000000000000     0.000000000000     1.119283772275
    CL           0.000000000000     0.000000000000    -0.511965563624


Scratch directory: /tmp/
gradient() will perform analytic gradient computation.
   => Libint2 <=

    Primary   basis highest AM E, G, H:  6, 6, 3
    Auxiliary basis highest AM E, G, H:  7, 7, 4
    Onebody   basis highest AM E, G, H:  -, -, -
    Solid Harmonics ordering:            Gaussian

*** tstart() called on Joses-MacBook-Pro-2.local
*** at Wed Jul 16 19:23:24 2025

   => Loading Basis Set <=

    Name: CC-PVDZ
    Role: ORBITAL
    Keyword: BASIS
    atoms 1 entry O          line   198 file /Users/joseantoniorodriguesromero/anaconda3/share/psi4/basis/cc-pvdz.gbs 
    atoms 2 entry CL         line   658 file /Users/joseantoniorodriguesromero/anaconda3/share/psi4/basis/cc-pvdz.gbs 


         ---------------------------------------------------------
                                   SCF
               by Justin Turney, Rob Parrish, Andy Simmonett
                          and Daniel G. A. Smith
                              UKS Reference
                        1 Threads,    500 MiB Core
         ---------------------------------------------------------

  ==> Geometry <==

    Molecular point group: c2v
    Full point group: C_inf_v

    Geometry (in Angstrom), charge = 0, multiplicity = 2:

       Center              X                  Y                   Z               Mass       
    ------------   -----------------  -----------------  -----------------  -----------------
         O            0.000000000000     0.000000000000     1.119283772275    15.994914619570
         CL           0.000000000000     0.000000000000    -0.511965563624    34.968852682000

  Running in c2v symmetry.

  Rotational constants: A = ************  B =      0.57724  C =      0.57724 [cm^-1]
  Rotational constants: A = ************  B =  17305.12410  C =  17305.12410 [MHz]
  Nuclear repulsion =   44.118393839191192

  Charge       = 0
  Multiplicity = 2
  Electrons    = 25
  Nalpha       = 13
  Nbeta        = 12

  ==> Algorithm <==

  SCF Algorithm Type is DF.
  DIIS enabled.
  MOM disabled.
  Fractional occupation disabled.
  Guess Type is READ.
  Energy threshold   = 1.00e-08
  Density threshold  = 1.00e-08
  Integral threshold = 1.00e-12

  ==> Primary Basis <==

  Basis Set: CC-PVDZ
    Blend: CC-PVDZ
    Number of shells: 14
    Number of basis functions: 32
    Number of Cartesian functions: 34
    Spherical Harmonics?: true
    Max angular momentum: 2

  ==> DFT Potential <==

   => LibXC <=

    Version 6.2.2
    S. Lehtola, C. Steigemann, M. J.T. Oliveira, and M. A.L. Marques.,  SoftwareX 7, 1–5 (2018) (10.1016/j.softx.2017.11.002)

   => Composite Functional: B3LYP <= 

    B3LYP Hyb-GGA Exchange-Correlation Functional

    P. J. Stephens, F. J. Devlin, C. F. Chabalowski, and M. J. Frisch.,  J. Phys. Chem. 98, 11623 (1994) (10.1021/j100096a001)

    Deriv               =              1
    GGA                 =           TRUE
    Meta                =          FALSE

    Exchange Hybrid     =           TRUE
    MP2 Hybrid          =          FALSE

   => Exchange Functionals <=

    0.0800   Slater exchange
    0.7200         Becke 88

   => Exact (HF) Exchange <=

    0.2000               HF 

   => Correlation Functionals <=

    0.1900   Vosko, Wilk & Nusair (VWN5_RPA)
    0.8100   Lee, Yang & Parr

   => LibXC Density Thresholds  <==

    XC_HYB_GGA_XC_B3LYP:  1.00E-15 

   => Molecular Quadrature <=

    Radial Scheme          =       TREUTLER
    Pruning Scheme         =           NONE
    Nuclear Scheme         =       TREUTLER

    Blocking Scheme        =         OCTREE
    BS radius alpha        =              1
    Pruning alpha          =              1
    Radial Points          =             75
    Spherical Points       =            302
    Total Points           =          41341
    Total Blocks           =            369
    Max Points             =            253
    Max Functions          =             32
    Weights Tolerance      =       1.00E-15

   => Loading Basis Set <=

    Name: (CC-PVDZ AUX)
    Role: JKFIT
    Keyword: DF_BASIS_SCF
    atoms 1 entry O          line   221 file /Users/joseantoniorodriguesromero/anaconda3/share/psi4/basis/cc-pvdz-jkfit.gbs 
    atoms 2 entry CL         line   667 file /Users/joseantoniorodriguesromero/anaconda3/share/psi4/basis/cc-pvdz-jkfit.gbs 

   => Loading Basis Set <=

    Name: CC-PVDZ
    Role: ORBITAL
    Keyword: BASIS
    atoms 1 entry O          line   198 file /Users/joseantoniorodriguesromero/anaconda3/share/psi4/basis/cc-pvdz.gbs 
    atoms 2 entry CL         line   658 file /Users/joseantoniorodriguesromero/anaconda3/share/psi4/basis/cc-pvdz.gbs 

  Reading orbitals from file /tmp/doublet_OCl.default.69071.180.npy, no projection.

  ==> Integral Setup <==

  DFHelper Memory: AOs need 0.002 GiB; user supplied 0.329 GiB. 
  Using in-core AOs.

  ==> MemDFJK: Density-Fitted J/K Matrices <==

    J tasked:                   Yes
    K tasked:                   Yes
    wK tasked:                   No
    OpenMP threads:               1
    Memory [MiB]:               336
    Algorithm:                 Core
    Schwarz Cutoff:           1E-12
    Mask sparsity (%):       0.0000
    Fitting Condition:        1E-10

   => Auxiliary Basis Set <=

  Basis Set: (CC-PVDZ AUX)
    Blend: CC-PVDZ-JKFIT
    Number of shells: 60
    Number of basis functions: 182
    Number of Cartesian functions: 211
    Spherical Harmonics?: true
    Max angular momentum: 3

  Cached 100.0% of DFT collocation blocks in 0.037 [GiB].

  Minimum eigenvalue in the overlap matrix is 3.9210166554E-02.
  Reciprocal condition number of the overlap matrix is 1.4720307507E-02.
    Using symmetric orthogonalization.

  ==> Pre-Iterations <==

  SCF Guess: Orbitals guess was supplied from a previous computation.

   -------------------------------------------------------
    Irrep   Nso     Nmo     Nalpha   Nbeta   Ndocc  Nsocc
   -------------------------------------------------------
     A1        16      16       7       7       7       0
     A2         2       2       0       0       0       0
     B1         7       7       3       2       2       1
     B2         7       7       3       3       3       0
   -------------------------------------------------------
    Total      32      32      13      12      12       1
   -------------------------------------------------------

  ==> Iterations <==

                           Total Energy        Delta E     RMS |[F,P]|

   @DF-UKS iter   0:  -535.31838745246421   -5.35318e+02   1.04421e-04 
   @DF-UKS iter   1:  -535.31879817747028   -4.10725e-04   2.70867e-05 DIIS
   @DF-UKS iter   2:  -535.31879802427318    1.53197e-07   4.05430e-05 DIIS/DAMP=1%
   @DF-UKS iter   3:  -535.31878970663547    8.31764e-06   1.27815e-05 DIIS/DAMP=1%
   @DF-UKS iter   4:  -535.31879690281164   -7.19618e-06   9.64845e-07 DIIS/DAMP=1%
   @DF-UKS iter   5:  -535.31879892914947   -2.02634e-06   5.41033e-07 DIIS/DAMP=1%
   @DF-UKS iter   6:  -535.31879810083649    8.28313e-07   1.27471e-07 DIIS/DAMP=1%
   @DF-UKS iter   7:  -535.31879835508369   -2.54247e-07   2.83679e-08 DIIS/DAMP=1%
   @DF-UKS iter   8:  -535.31879827873854    7.63451e-08   7.60264e-09 DIIS/DAMP=1%
   @DF-UKS iter   9:  -535.31879828531464   -6.57610e-09   1.09657e-09 DIIS/DAMP=1%
  Energy and wave function converged.


  ==> Post-Iterations <==

   Electrons on quadrature grid:
      Nalpha   =   13.0000034456 ; deviation = 3.446e-06
      Nbeta    =   12.0000018194 ; deviation = 1.819e-06
      Ntotal   =   25.0000052650 ; deviation = 5.265e-06 

   @Spin Contamination Metric:   3.168089372E-03
   @S^2 Expected:                7.500000000E-01
   @S^2 Observed:                7.531680894E-01
   @S   Expected:                5.000000000E-01
   @S   Observed:                5.000000000E-01

    Orbital Energies [Eh]
    ---------------------

    Alpha Occupied:                                                       

       1A1  -101.622910     2A1   -19.240977     3A1    -9.538235  
       4A1    -7.302171     1B1    -7.294634     1B2    -7.287629  
       5A1    -1.078571     6A1    -0.797961     7A1    -0.480690  
       2B1    -0.470756     2B2    -0.431820     3B1    -0.329464  
       3B2    -0.290485  

    Alpha Virtual:                                                        

       8A1    -0.057086     9A1     0.469823     4B1     0.506335  
       4B2     0.517667    10A1     0.565113     5B1     0.632237  
       5B2     0.654398     1A2     0.673191    11A1     0.673196  
      12A1     0.845450     6B1     0.948402     6B2     0.982129  
      13A1     1.034476    14A1     1.582219    15A1     2.516772  
       2A2     2.517446     7B1     2.565263     7B2     2.611115  
      16A1     2.973464  

    Beta Occupied:                                                        

       1A1  -101.621223     2A1   -19.219943     3A1    -9.536612  
       4A1    -7.301871     1B1    -7.288546     1B2    -7.286663  
       5A1    -1.039396     6A1    -0.767573     7A1    -0.462237  
       2B2    -0.421826     2B1    -0.398724     3B2    -0.275513  

    Beta Virtual:                                                         

       3B1    -0.166949     8A1    -0.041678     9A1     0.472711  
       4B1     0.516467     4B2     0.519001    10A1     0.569336  
       5B2     0.657513     5B1     0.665245     1A2     0.687487  
      11A1     0.687818    12A1     0.860976     6B2     0.992291  
       6B1     1.011367    13A1     1.046549    14A1     1.608246  
       2A2     2.580776    15A1     2.586607     7B2     2.622562  
       7B1     2.631988    16A1     3.003169  

    Final Occupation by Irrep:
             A1    A2    B1    B2 
    DOCC [     7,    0,    2,    3 ]
    SOCC [     0,    0,    1,    0 ]
    NA   [     7,    0,    3,    3 ]
    NB   [     7,    0,    2,    3 ]

  @DF-UKS Final Energy:  -535.31879828531464

   => Energetics <=

    Nuclear Repulsion Energy =             44.1183938391911923
    One-Electron Energy =                -825.9779980996357835
    Two-Electron Energy =                 276.1732150788750459
    DFT Exchange-Correlation Energy =     -29.6324091037450934
    Empirical Dispersion Energy =           0.0000000000000000
    VV10 Nonlocal Energy =                  0.0000000000000000
    Total Energy =                       -535.3187982853146423

  UHF NO Occupations:
  HONO-2 :    7 A1 1.9994797
  HONO-1 :    2 B1 1.9992785
  HONO-0 :    3 B1 1.0000000
  LUNO+0 :    4 B1 0.0007215
  LUNO+1 :    8 A1 0.0005203
  LUNO+2 :    9 A1 0.0002298
  LUNO+3 :    4 B2 0.0000559


Computation Completed


Properties will be evaluated at   0.000000,   0.000000,   0.000000 [a0]

Properties computed using the SCF density matrix


 Multipole Moments:

 ------------------------------------------------------------------------------------
     Multipole            Electronic (a.u.)      Nuclear  (a.u.)        Total (a.u.)
 ------------------------------------------------------------------------------------

 L = 1.  Multiply by 2.5417464519 to convert [e a0] to [Debye]
 Dipole X            :          0.0000000            0.0000000            0.0000000
 Dipole Y            :          0.0000000            0.0000000            0.0000000
 Dipole Z            :         -0.9844355            0.4740484           -0.5103872
 Magnitude           :                                                    0.5103872

 ------------------------------------------------------------------------------------

*** tstop() called on Joses-MacBook-Pro-2.local at Wed Jul 16 19:23:26 2025
Module time:
	user time   =       9.32 seconds =       0.16 minutes
	system time =       2.16 seconds =       0.04 minutes
	total time  =          2 seconds =       0.03 minutes
Total time:
	user time   =      73.63 seconds =       1.23 minutes
	system time =      60.52 seconds =       1.01 minutes
	total time  =         14 seconds =       0.23 minutes

*** tstart() called on Joses-MacBook-Pro-2.local
*** at Wed Jul 16 19:23:26 2025


         ------------------------------------------------------------
                                   SCF GRAD                          
                          Rob Parrish, Justin Turney,                
                       Andy Simmonett, and Alex Sokolov              
         ------------------------------------------------------------

  ==> Geometry <==

    Molecular point group: c2v
    Full point group: C_inf_v

    Geometry (in Angstrom), charge = 0, multiplicity = 2:

       Center              X                  Y                   Z               Mass       
    ------------   -----------------  -----------------  -----------------  -----------------
         O            0.000000000000     0.000000000000     1.119283772275    15.994914619570
         CL           0.000000000000     0.000000000000    -0.511965563624    34.968852682000

  Nuclear repulsion =   44.118393839191192

  ==> Basis Set <==

  Basis Set: CC-PVDZ
    Blend: CC-PVDZ
    Number of shells: 14
    Number of basis functions: 32
    Number of Cartesian functions: 34
    Spherical Harmonics?: true
    Max angular momentum: 2

  ==> DFJKGrad: Density-Fitted SCF Gradients <==

    Gradient:                    1
    J tasked:                  Yes
    K tasked:                  Yes
    wK tasked:                  No
    OpenMP threads:              1
    Integrals threads:           1
    Memory [MiB]:              375
    Schwarz Cutoff:          1E-12
    Fitting Condition:       1E-10

   => Auxiliary Basis Set <=

  Basis Set: (CC-PVDZ AUX)
    Blend: CC-PVDZ-JKFIT
    Number of shells: 60
    Number of basis functions: 182
    Number of Cartesian functions: 211
    Spherical Harmonics?: true
    Max angular momentum: 3

  ==> DFT Potential <==

   => LibXC <=

    Version 6.2.2
    S. Lehtola, C. Steigemann, M. J.T. Oliveira, and M. A.L. Marques.,  SoftwareX 7, 1–5 (2018) (10.1016/j.softx.2017.11.002)

   => Composite Functional: B3LYP <= 

    B3LYP Hyb-GGA Exchange-Correlation Functional

    P. J. Stephens, F. J. Devlin, C. F. Chabalowski, and M. J. Frisch.,  J. Phys. Chem. 98, 11623 (1994) (10.1021/j100096a001)

    Deriv               =              1
    GGA                 =           TRUE
    Meta                =          FALSE

    Exchange Hybrid     =           TRUE
    MP2 Hybrid          =          FALSE

   => Exchange Functionals <=

    0.0800   Slater exchange
    0.7200         Becke 88

   => Exact (HF) Exchange <=

    0.2000               HF 

   => Correlation Functionals <=

    0.1900   Vosko, Wilk & Nusair (VWN5_RPA)
    0.8100   Lee, Yang & Parr

   => LibXC Density Thresholds  <==

    XC_HYB_GGA_XC_B3LYP:  1.00E-15 

   => Molecular Quadrature <=

    Radial Scheme          =       TREUTLER
    Pruning Scheme         =           NONE
    Nuclear Scheme         =       TREUTLER

    Blocking Scheme        =         OCTREE
    BS radius alpha        =              1
    Pruning alpha          =              1
    Radial Points          =             75
    Spherical Points       =            302
    Total Points           =          41341
    Total Blocks           =            369
    Max Points             =            253
    Max Functions          =             32
    Weights Tolerance      =       1.00E-15


  -Total Gradient:
     Atom            X                  Y                   Z
    ------   -----------------  -----------------  -----------------
       1        0.000000000000    -0.000000000000    -0.000077867463
       2        0.000000000000     0.000000000000     0.000060976496


*** tstop() called on Joses-MacBook-Pro-2.local at Wed Jul 16 19:23:26 2025
Module time:
	user time   =       1.56 seconds =       0.03 minutes
	system time =       1.55 seconds =       0.03 minutes
	total time  =          0 seconds =       0.00 minutes
Total time:
	user time   =      75.20 seconds =       1.25 minutes
	system time =      62.07 seconds =       1.03 minutes
	total time  =         14 seconds =       0.23 minutes

    			-----------------------------------------

    			 OPTKING 3.0: for geometry optimizations 

    			     By R.A. King, Bethel University     

    			        with contributions from          

    			    A.V. Copan, J. Cayton, A. Heide      

    			-----------------------------------------

    
	                            ===> Fragment 1 <== 

	 Z (Atomic Numbers)          Masses                          Geom                  
	       8.000000            15.994915          0.00000000  0.00000000  2.11513979   
	      17.000000            34.968853          0.00000000  0.00000000 -0.96747470   

	 - Coordinate -           - BOHR/RAD -       - ANG/DEG -
	 R(1,2)           =         3.082614           1.631249


	        --- Internal Coordinate Step in ANG or DEG, aJ/ANG or AJ/DEG ---
	-------------------------------------------------------------------------------
	           Coordinate      Previous         Force          Change          New 
	           ----------      --------        ------          ------        ------
	               R(1,2)       1.63125        0.00057        0.00012       1.63137
	-------------------------------------------------------------------------------

	                                 ==> Convergence Check <==                                  
    
	Measures of convergence in internal coordinates in au.
    
	Criteria marked as inactive (o), active & met (*), and active & unmet ( ).

	----------------------------------------------------------------------------------------------
	   Step    Total Energy     Delta E     Max Force     RMS Force      Max Disp      RMS Disp   
	----------------------------------------------------------------------------------------------
	  Convergence Criteria     1.00e-06 *    3.00e-04 *             o    1.20e-03 *             o
	----------------------------------------------------------------------------------------------
	    11    -535.31879829   -3.99e-07 *    6.94e-05 *    6.94e-05 o    2.36e-04 *    2.36e-04 o  ~
	----------------------------------------------------------------------------------------------

Next Geometry in Ang 
	Fragment 1 (Ang)

	    O   0.0000000000   0.0000000000   1.1193461894
	   Cl   0.0000000000   0.0000000000  -0.5120279807


    Final optimized geometry and variables:
    Molecular point group: c2v
    Full point group: C_inf_v

    Geometry (in Angstrom), charge = 0, multiplicity = 2:

    O            0.000000000000     0.000000000000     1.119283772275
    CL           0.000000000000     0.000000000000    -0.511965563624


    Psi4 stopped on: Wednesday, 16 July 2025 07:23PM
    Psi4 wall time for execution: 0:00:14.32

*** Psi4 exiting successfully. Buy a developer a beer!
