
    -----------------------------------------------------------------------
          Psi4: An Open-Source Ab Initio Electronic Structure Package
                               Psi4 1.9.1 release

                         Git: Rev {} zzzzzzz 


    D. G. A. Smith, L. A. Burns, A. C. Simmonett, R. M. Parrish,
    M. C. Schieber, R. Galvelis, P. Kraus, H. Kruse, R. Di Remigio,
    A. Alenaizan, A. M. James, S. Lehtola, J. P. Misiewicz, M. Scheurer,
    R. A. Shaw, J. B. Schriber, Y. Xie, Z. L. Glick, D. A. Sirianni,
    J. S. O'Brien, J. M. Waldrop, A. Kumar, E. G. Hohenstein,
    B. P. Pritchard, B. R. Brooks, H. F. Schaefer III, A. Yu. Sokolov,
    K. Patkowski, A. E. DePrince III, U. Bozkaya, R. A. King,
    F. A. Evangelista, J. M. Turney, T. D. Crawford, C. D. Sherrill,
    J. Chem. Phys. 152(18) 184108 (2020). https://doi.org/10.1063/5.0006002

                            Additional Code Authors
    E. T. Seidl, C. L. Janssen, E. F. Valeev, M. L. Leininger,
    J. F. Gonthier, R. M. Richard, H. R. McAlexander, M. Saitow, X. Wang,
    P. Verma, M. H. Lechner, A. Jiang, S. Behnle, A. G. Heide,
    M. F. Herbst, and D. L. Poole

             Previous Authors, Complete List of Code Contributors,
                       and Citations for Specific Modules
    https://github.com/psi4/psi4/blob/master/codemeta.json
    https://github.com/psi4/psi4/graphs/contributors
    http://psicode.org/psi4manual/master/introduction.html#citing-psifour

    -----------------------------------------------------------------------


    Psi4 started on: Wednesday, 16 July 2025 06:33PM

    Process ID: 68345
    Host:       Joses-MacBook-Pro-2.local
    PSIDATADIR: /Users/joseantoniorodriguesromero/anaconda3/share/psi4
    Memory:     500.0 MiB
    Threads:    1
    
  ==> Input File <==

--------------------------------------------------------------------------
molecule { 
0 4
Li   0.00000        0.60000        0.00000
Mg   0.00000       -0.60000        0.00000
}

set { 
basis              cc-pvdz
reference          uks
maxiter            500
geom_maxiter       500
DAMPING_PERCENTAGE 1
guess              SAP
}

optimize('b3lyp')
--------------------------------------------------------------------------

Scratch directory: /tmp/
gradient() will perform analytic gradient computation.
   => Libint2 <=

    Primary   basis highest AM E, G, H:  6, 6, 3
    Auxiliary basis highest AM E, G, H:  7, 7, 4
    Onebody   basis highest AM E, G, H:  -, -, -
    Solid Harmonics ordering:            Gaussian

*** tstart() called on Joses-MacBook-Pro-2.local
*** at Wed Jul 16 18:33:10 2025

   => Loading Basis Set <=

    Name: CC-PVDZ
    Role: ORBITAL
    Keyword: BASIS
    atoms 1 entry LI         line    42 file /Users/joseantoniorodriguesromero/anaconda3/share/psi4/basis/cc-pvdz.gbs 
    atoms 2 entry MG         line   353 file /Users/joseantoniorodriguesromero/anaconda3/share/psi4/basis/cc-pvdz.gbs 


         ---------------------------------------------------------
                                   SCF
               by Justin Turney, Rob Parrish, Andy Simmonett
                          and Daniel G. A. Smith
                              UKS Reference
                        1 Threads,    500 MiB Core
         ---------------------------------------------------------

  ==> Geometry <==

    Molecular point group: c2v
    Full point group: C_inf_v

    Geometry (in Angstrom), charge = 0, multiplicity = 4:

       Center              X                  Y                   Z               Mass       
    ------------   -----------------  -----------------  -----------------  -----------------
         LI           0.000000000000     0.000000000000     0.928421926176     7.016003436600
         MG           0.000000000000     0.000000000000    -0.271578073824    23.985041697000

  Running in c2v symmetry.

  Rotational constants: A = ************  B =      2.15665  C =      2.15665 [cm^-1]
  Rotational constants: A = ************  B =  64654.79987  C =  64654.79987 [MHz]
  Nuclear repulsion =   15.875316320100003

  Charge       = 0
  Multiplicity = 4
  Electrons    = 15
  Nalpha       = 9
  Nbeta        = 6

  ==> Algorithm <==

  SCF Algorithm Type is DF.
  DIIS enabled.
  MOM disabled.
  Fractional occupation disabled.
  Guess Type is SAP.
  Energy threshold   = 1.00e-08
  Density threshold  = 1.00e-08
  Integral threshold = 1.00e-12

  ==> Primary Basis <==

  Basis Set: CC-PVDZ
    Blend: CC-PVDZ
    Number of shells: 14
    Number of basis functions: 32
    Number of Cartesian functions: 34
    Spherical Harmonics?: true
    Max angular momentum: 2

  ==> DFT Potential <==

   => LibXC <=

    Version 6.2.2
    S. Lehtola, C. Steigemann, M. J.T. Oliveira, and M. A.L. Marques.,  SoftwareX 7, 1–5 (2018) (10.1016/j.softx.2017.11.002)

   => Composite Functional: B3LYP <= 

    B3LYP Hyb-GGA Exchange-Correlation Functional

    P. J. Stephens, F. J. Devlin, C. F. Chabalowski, and M. J. Frisch.,  J. Phys. Chem. 98, 11623 (1994) (10.1021/j100096a001)

    Deriv               =              1
    GGA                 =           TRUE
    Meta                =          FALSE

    Exchange Hybrid     =           TRUE
    MP2 Hybrid          =          FALSE

   => Exchange Functionals <=

    0.0800   Slater exchange
    0.7200         Becke 88

   => Exact (HF) Exchange <=

    0.2000               HF 

   => Correlation Functionals <=

    0.1900   Vosko, Wilk & Nusair (VWN5_RPA)
    0.8100   Lee, Yang & Parr

   => LibXC Density Thresholds  <==

    XC_HYB_GGA_XC_B3LYP:  1.00E-15 

   => Molecular Quadrature <=

    Radial Scheme          =       TREUTLER
    Pruning Scheme         =           NONE
    Nuclear Scheme         =       TREUTLER

    Blocking Scheme        =         OCTREE
    BS radius alpha        =              1
    Pruning alpha          =              1
    Radial Points          =             75
    Spherical Points       =            302
    Total Points           =          43788
    Total Blocks           =            442
    Max Points             =            254
    Max Functions          =             32
    Weights Tolerance      =       1.00E-15

   => Loading Basis Set <=

    Name: (CC-PVDZ AUX)
    Role: JKFIT
    Keyword: DF_BASIS_SCF
    atoms 1 entry LI         line    54 file /Users/joseantoniorodriguesromero/anaconda3/share/psi4/basis/def2-universal-jkfit.gbs 
    atoms 2 entry MG         line   576 file /Users/joseantoniorodriguesromero/anaconda3/share/psi4/basis/def2-universal-jkfit.gbs 

  ==> Integral Setup <==

  DFHelper Memory: AOs need 0.002 GiB; user supplied 0.325 GiB. 
  Using in-core AOs.

  ==> MemDFJK: Density-Fitted J/K Matrices <==

    J tasked:                   Yes
    K tasked:                   Yes
    wK tasked:                   No
    OpenMP threads:               1
    Memory [MiB]:               333
    Algorithm:                 Core
    Schwarz Cutoff:           1E-12
    Mask sparsity (%):       0.0000
    Fitting Condition:        1E-10

   => Auxiliary Basis Set <=

  Basis Set: (CC-PVDZ AUX)
    Blend: DEF2-UNIVERSAL-JKFIT
    Number of shells: 51
    Number of basis functions: 163
    Number of Cartesian functions: 197
    Spherical Harmonics?: true
    Max angular momentum: 4

  Cached 100.0% of DFT collocation blocks in 0.041 [GiB].

  Minimum eigenvalue in the overlap matrix is 1.5841454795E-03.
  Reciprocal condition number of the overlap matrix is 4.0880588001E-04.
    Using symmetric orthogonalization.

  ==> Pre-Iterations <==

  SCF Guess: Superposition of Atomic Potentials (doi:10.1021/acs.jctc.8b01089).

  ==> SAP guess <==

   => Molecular Quadrature <=

    Radial Scheme          =       TREUTLER
    Pruning Scheme         =           NONE
    Nuclear Scheme         =       TREUTLER

    Blocking Scheme        =         OCTREE
    BS radius alpha        =              1
    Pruning alpha          =              1
    Radial Points          =             75
    Spherical Points       =            302
    Total Points           =          43788
    Total Blocks           =            442
    Max Points             =            254
    Max Functions          =             32
    Weights Tolerance      =       1.00E-15

   -------------------------------------------------------
    Irrep   Nso     Nmo     Nalpha   Nbeta   Ndocc  Nsocc
   -------------------------------------------------------
     A1        16      16       5       4       4       1
     A2         2       2       0       0       0       0
     B1         7       7       2       1       1       1
     B2         7       7       2       1       1       1
   -------------------------------------------------------
    Total      32      32       9       6       6       3
   -------------------------------------------------------

  ==> Iterations <==

                           Total Energy        Delta E     RMS |[F,P]|

   @DF-UKS iter   1:  -207.17271004675590   -2.07173e+02   6.78950e-03 ADIIS/DIIS
   @DF-UKS iter   2:  -207.18848307793266   -1.57730e-02   1.32392e-03 ADIIS/DIIS/DAMP=1%
   @DF-UKS iter   3:  -207.18933666429888   -8.53586e-04   2.56034e-04 ADIIS/DIIS/DAMP=1%
   @DF-UKS iter   4:  -207.18947600434205   -1.39340e-04   1.44432e-05 DIIS/DAMP=1%
   @DF-UKS iter   5:  -207.18953003194338   -5.40276e-05   1.60446e-06 DIIS/DAMP=1%
   @DF-UKS iter   6:  -207.18952051511968    9.51682e-06   1.88437e-07 DIIS/DAMP=1%
   @DF-UKS iter   7:  -207.18952164430058   -1.12918e-06   1.36037e-08 DIIS/DAMP=1%
   @DF-UKS iter   8:  -207.18952156858089    7.57197e-08   1.12207e-09 DIIS/DAMP=1%
   @DF-UKS iter   9:  -207.18952157470750   -6.12661e-09   9.45632e-11 DIIS/DAMP=1%
  Energy and wave function converged.


  ==> Post-Iterations <==

   Electrons on quadrature grid:
      Nalpha   =    8.9999992840 ; deviation = -7.160e-07
      Nbeta    =    5.9999993081 ; deviation = -6.919e-07
      Ntotal   =   14.9999985920 ; deviation = -1.408e-06 

   @Spin Contamination Metric:   7.591079179E-06
   @S^2 Expected:                3.750000000E+00
   @S^2 Observed:                3.750007591E+00
   @S   Expected:                1.500000000E+00
   @S   Observed:                1.500000000E+00

    Orbital Energies [Eh]
    ---------------------

    Alpha Occupied:                                                       

       1A1   -46.938553     2A1    -3.245881     3A1    -2.273513  
       1B2    -1.972106     1B1    -1.972106     4A1    -1.951836  
       5A1    -0.261166     2B2    -0.155662     2B1    -0.155662  

    Alpha Virtual:                                                        

       6A1    -0.073912     7A1     0.007682     3B2     0.031112  
       3B1     0.031112     8A1     0.032472     4B2     0.040593  
       4B1     0.040593     9A1     0.079346    10A1     0.146641  
       1A2     0.146642    11A1     0.167444     5B1     0.193815  
       5B2     0.193815    12A1     0.222860     6B2     0.318158  
       6B1     0.318158    13A1     0.340488    14A1     0.394510  
       2A2     0.394511     7B1     0.544774     7B2     0.544774  
      15A1     0.784682    16A1     1.930706  

    Beta Occupied:                                                        

       1A1   -46.932482     2A1    -3.236642     3A1    -2.264301  
       1B2    -1.961446     1B1    -1.961446     4A1    -1.945824  

    Beta Virtual:                                                         

       5A1    -0.131446     6A1    -0.034782     2B2    -0.027103  
       2B1    -0.027103     7A1     0.034174     8A1     0.046218  
       3B2     0.052753     3B1     0.052753     4B2     0.080686  
       4B1     0.080686     9A1     0.090079    10A1     0.198802  
       5B1     0.233945     5B2     0.233945    11A1     0.237107  
       1A2     0.237158    12A1     0.257690     6B2     0.363435  
       6B1     0.363435    13A1     0.381674    14A1     0.458398  
       2A2     0.458419     7B1     0.588451     7B2     0.588451  
      15A1     0.814192    16A1     1.938993  

    Final Occupation by Irrep:
             A1    A2    B1    B2 
    DOCC [     4,    0,    1,    1 ]
    SOCC [     1,    0,    1,    1 ]
    NA   [     5,    0,    2,    2 ]
    NB   [     4,    0,    1,    1 ]

  @DF-UKS Final Energy:  -207.18952157470750

   => Energetics <=

    Nuclear Repulsion Energy =             15.8753163201000032
    One-Electron Energy =                -318.2543473364130477
    Two-Electron Energy =                 110.0871839347239955
    DFT Exchange-Correlation Energy =     -14.8976744931184850
    Empirical Dispersion Energy =           0.0000000000000000
    VV10 Nonlocal Energy =                  0.0000000000000000
    Total Energy =                       -207.1895215747074985

  UHF NO Occupations:
  HONO-2 :    2 B1 1.0000000
  HONO-1 :    2 B2 1.0000000
  HONO-0 :    5 A1 1.0000000
  LUNO+0 :    6 A1 0.0000020
  LUNO+1 :    7 A1 0.0000005
  LUNO+2 :    3 B1 0.0000005
  LUNO+3 :    3 B2 0.0000005


Computation Completed


Properties will be evaluated at   0.000000,   0.000000,   0.000000 [a0]

Properties computed using the SCF density matrix


 Multipole Moments:

 ------------------------------------------------------------------------------------
     Multipole            Electronic (a.u.)      Nuclear  (a.u.)        Total (a.u.)
 ------------------------------------------------------------------------------------

 L = 1.  Multiply by 2.5417464519 to convert [e a0] to [Debye]
 Dipole X            :          0.0000000            0.0000000            0.0000000
 Dipole Y            :          0.0000000            0.0000000            0.0000000
 Dipole Z            :          0.6124315           -0.8951087           -0.2826772
 Magnitude           :                                                    0.2826772

 ------------------------------------------------------------------------------------

*** tstop() called on Joses-MacBook-Pro-2.local at Wed Jul 16 18:33:11 2025
Module time:
	user time   =       3.76 seconds =       0.06 minutes
	system time =       3.83 seconds =       0.06 minutes
	total time  =          1 seconds =       0.02 minutes
Total time:
	user time   =       3.76 seconds =       0.06 minutes
	system time =       3.83 seconds =       0.06 minutes
	total time  =          1 seconds =       0.02 minutes

*** tstart() called on Joses-MacBook-Pro-2.local
*** at Wed Jul 16 18:33:11 2025


         ------------------------------------------------------------
                                   SCF GRAD                          
                          Rob Parrish, Justin Turney,                
                       Andy Simmonett, and Alex Sokolov              
         ------------------------------------------------------------

  ==> Geometry <==

    Molecular point group: c2v
    Full point group: C_inf_v

    Geometry (in Angstrom), charge = 0, multiplicity = 4:

       Center              X                  Y                   Z               Mass       
    ------------   -----------------  -----------------  -----------------  -----------------
         LI           0.000000000000     0.000000000000     0.928421926176     7.016003436600
         MG           0.000000000000     0.000000000000    -0.271578073824    23.985041697000

  Nuclear repulsion =   15.875316320100003

  ==> Basis Set <==

  Basis Set: CC-PVDZ
    Blend: CC-PVDZ
    Number of shells: 14
    Number of basis functions: 32
    Number of Cartesian functions: 34
    Spherical Harmonics?: true
    Max angular momentum: 2

  ==> DFJKGrad: Density-Fitted SCF Gradients <==

    Gradient:                    1
    J tasked:                  Yes
    K tasked:                  Yes
    wK tasked:                  No
    OpenMP threads:              1
    Integrals threads:           1
    Memory [MiB]:              375
    Schwarz Cutoff:          1E-12
    Fitting Condition:       1E-10

   => Auxiliary Basis Set <=

  Basis Set: (CC-PVDZ AUX)
    Blend: DEF2-UNIVERSAL-JKFIT
    Number of shells: 51
    Number of basis functions: 163
    Number of Cartesian functions: 197
    Spherical Harmonics?: true
    Max angular momentum: 4

  ==> DFT Potential <==

   => LibXC <=

    Version 6.2.2
    S. Lehtola, C. Steigemann, M. J.T. Oliveira, and M. A.L. Marques.,  SoftwareX 7, 1–5 (2018) (10.1016/j.softx.2017.11.002)

   => Composite Functional: B3LYP <= 

    B3LYP Hyb-GGA Exchange-Correlation Functional

    P. J. Stephens, F. J. Devlin, C. F. Chabalowski, and M. J. Frisch.,  J. Phys. Chem. 98, 11623 (1994) (10.1021/j100096a001)

    Deriv               =              1
    GGA                 =           TRUE
    Meta                =          FALSE

    Exchange Hybrid     =           TRUE
    MP2 Hybrid          =          FALSE

   => Exchange Functionals <=

    0.0800   Slater exchange
    0.7200         Becke 88

   => Exact (HF) Exchange <=

    0.2000               HF 

   => Correlation Functionals <=

    0.1900   Vosko, Wilk & Nusair (VWN5_RPA)
    0.8100   Lee, Yang & Parr

   => LibXC Density Thresholds  <==

    XC_HYB_GGA_XC_B3LYP:  1.00E-15 

   => Molecular Quadrature <=

    Radial Scheme          =       TREUTLER
    Pruning Scheme         =           NONE
    Nuclear Scheme         =       TREUTLER

    Blocking Scheme        =         OCTREE
    BS radius alpha        =              1
    Pruning alpha          =              1
    Radial Points          =             75
    Spherical Points       =            302
    Total Points           =          43788
    Total Blocks           =            442
    Max Points             =            254
    Max Functions          =             32
    Weights Tolerance      =       1.00E-15


  -Total Gradient:
     Atom            X                  Y                   Z
    ------   -----------------  -----------------  -----------------
       1       -0.000000000000    -0.000000000000    -0.456796641035
       2        0.000000000000     0.000000000000     0.456807743508


*** tstop() called on Joses-MacBook-Pro-2.local at Wed Jul 16 18:33:11 2025
Module time:
	user time   =       1.04 seconds =       0.02 minutes
	system time =       1.49 seconds =       0.02 minutes
	total time  =          0 seconds =       0.00 minutes
Total time:
	user time   =       4.81 seconds =       0.08 minutes
	system time =       5.32 seconds =       0.09 minutes
	total time  =          1 seconds =       0.02 minutes

    			-----------------------------------------

    			 OPTKING 3.0: for geometry optimizations 

    			     By R.A. King, Bethel University     

    			        with contributions from          

    			    A.V. Copan, J. Cayton, A. Heide      

    			-----------------------------------------

    
	                            ===> Fragment 1 <== 

	 Z (Atomic Numbers)          Masses                          Geom                  
	       3.000000             7.016003          0.00000000  0.00000000  1.75446317   
	      12.000000            23.985042          0.00000000  0.00000000 -0.51320818   

	 - Coordinate -           - BOHR/RAD -       - ANG/DEG -
	 R(1,2)           =         2.267671           1.200000


	        --- Internal Coordinate Step in ANG or DEG, aJ/ANG or AJ/DEG ---
	-------------------------------------------------------------------------------
	           Coordinate      Previous         Force          Change          New 
	           ----------      --------        ------          ------        ------
	               R(1,2)       1.20000        3.76347        0.05713       1.25713
	-------------------------------------------------------------------------------

	                                 ==> Convergence Check <==                                  
    
	Measures of convergence in internal coordinates in au.
    
	Criteria marked as inactive (o), active & met (*), and active & unmet ( ).

	----------------------------------------------------------------------------------------------
	   Step    Total Energy     Delta E     Max Force     RMS Force      Max Disp      RMS Disp   
	----------------------------------------------------------------------------------------------
	  Convergence Criteria     1.00e-06 *    3.00e-04 *             o    1.20e-03 *             o
	----------------------------------------------------------------------------------------------
	     1    -207.18952157   -2.07e+02      4.57e-01      4.57e-01 o    1.08e-01      1.08e-01 o  ~
	----------------------------------------------------------------------------------------------

Next Geometry in Ang 
	Fragment 1 (Ang)

	   Li   0.0000000000   0.0000000000   0.9569847911
	   Mg   0.0000000000   0.0000000000  -0.3001409388


    Structure for next step:
    Molecular point group: c2v
    Full point group: C_inf_v

    Geometry (in Angstrom), charge = 0, multiplicity = 4:

    LI           0.000000000000     0.000000000000     0.972619243025
    MG           0.000000000000     0.000000000000    -0.284506486908


Scratch directory: /tmp/
gradient() will perform analytic gradient computation.
   => Libint2 <=

    Primary   basis highest AM E, G, H:  6, 6, 3
    Auxiliary basis highest AM E, G, H:  7, 7, 4
    Onebody   basis highest AM E, G, H:  -, -, -
    Solid Harmonics ordering:            Gaussian

*** tstart() called on Joses-MacBook-Pro-2.local
*** at Wed Jul 16 18:33:11 2025

   => Loading Basis Set <=

    Name: CC-PVDZ
    Role: ORBITAL
    Keyword: BASIS
    atoms 1 entry LI         line    42 file /Users/joseantoniorodriguesromero/anaconda3/share/psi4/basis/cc-pvdz.gbs 
    atoms 2 entry MG         line   353 file /Users/joseantoniorodriguesromero/anaconda3/share/psi4/basis/cc-pvdz.gbs 


         ---------------------------------------------------------
                                   SCF
               by Justin Turney, Rob Parrish, Andy Simmonett
                          and Daniel G. A. Smith
                              UKS Reference
                        1 Threads,    500 MiB Core
         ---------------------------------------------------------

  ==> Geometry <==

    Molecular point group: c2v
    Full point group: C_inf_v

    Geometry (in Angstrom), charge = 0, multiplicity = 4:

       Center              X                  Y                   Z               Mass       
    ------------   -----------------  -----------------  -----------------  -----------------
         LI           0.000000000000     0.000000000000     0.972619243025     7.016003436600
         MG           0.000000000000     0.000000000000    -0.284506486908    23.985041697000

  Running in c2v symmetry.

  Rotational constants: A = ************  B =      1.96510  C =      1.96510 [cm^-1]
  Rotational constants: A = ************  B =  58912.28031  C =  58912.28031 [MHz]
  Nuclear repulsion =   15.153917488532603

  Charge       = 0
  Multiplicity = 4
  Electrons    = 15
  Nalpha       = 9
  Nbeta        = 6

  ==> Algorithm <==

  SCF Algorithm Type is DF.
  DIIS enabled.
  MOM disabled.
  Fractional occupation disabled.
  Guess Type is READ.
  Energy threshold   = 1.00e-08
  Density threshold  = 1.00e-08
  Integral threshold = 1.00e-12

  ==> Primary Basis <==

  Basis Set: CC-PVDZ
    Blend: CC-PVDZ
    Number of shells: 14
    Number of basis functions: 32
    Number of Cartesian functions: 34
    Spherical Harmonics?: true
    Max angular momentum: 2

  ==> DFT Potential <==

   => LibXC <=

    Version 6.2.2
    S. Lehtola, C. Steigemann, M. J.T. Oliveira, and M. A.L. Marques.,  SoftwareX 7, 1–5 (2018) (10.1016/j.softx.2017.11.002)

   => Composite Functional: B3LYP <= 

    B3LYP Hyb-GGA Exchange-Correlation Functional

    P. J. Stephens, F. J. Devlin, C. F. Chabalowski, and M. J. Frisch.,  J. Phys. Chem. 98, 11623 (1994) (10.1021/j100096a001)

    Deriv               =              1
    GGA                 =           TRUE
    Meta                =          FALSE

    Exchange Hybrid     =           TRUE
    MP2 Hybrid          =          FALSE

   => Exchange Functionals <=

    0.0800   Slater exchange
    0.7200         Becke 88

   => Exact (HF) Exchange <=

    0.2000               HF 

   => Correlation Functionals <=

    0.1900   Vosko, Wilk & Nusair (VWN5_RPA)
    0.8100   Lee, Yang & Parr

   => LibXC Density Thresholds  <==

    XC_HYB_GGA_XC_B3LYP:  1.00E-15 

   => Molecular Quadrature <=

    Radial Scheme          =       TREUTLER
    Pruning Scheme         =           NONE
    Nuclear Scheme         =       TREUTLER

    Blocking Scheme        =         OCTREE
    BS radius alpha        =              1
    Pruning alpha          =              1
    Radial Points          =             75
    Spherical Points       =            302
    Total Points           =          43784
    Total Blocks           =            443
    Max Points             =            252
    Max Functions          =             32
    Weights Tolerance      =       1.00E-15

   => Loading Basis Set <=

    Name: (CC-PVDZ AUX)
    Role: JKFIT
    Keyword: DF_BASIS_SCF
    atoms 1 entry LI         line    54 file /Users/joseantoniorodriguesromero/anaconda3/share/psi4/basis/def2-universal-jkfit.gbs 
    atoms 2 entry MG         line   576 file /Users/joseantoniorodriguesromero/anaconda3/share/psi4/basis/def2-universal-jkfit.gbs 

   => Loading Basis Set <=

    Name: CC-PVDZ
    Role: ORBITAL
    Keyword: BASIS
    atoms 1 entry LI         line    42 file /Users/joseantoniorodriguesromero/anaconda3/share/psi4/basis/cc-pvdz.gbs 
    atoms 2 entry MG         line   353 file /Users/joseantoniorodriguesromero/anaconda3/share/psi4/basis/cc-pvdz.gbs 

  Reading orbitals from file /tmp/quartet_LiMg.default.68345.180.npy, no projection.

  ==> Integral Setup <==

  DFHelper Memory: AOs need 0.002 GiB; user supplied 0.325 GiB. 
  Using in-core AOs.

  ==> MemDFJK: Density-Fitted J/K Matrices <==

    J tasked:                   Yes
    K tasked:                   Yes
    wK tasked:                   No
    OpenMP threads:               1
    Memory [MiB]:               333
    Algorithm:                 Core
    Schwarz Cutoff:           1E-12
    Mask sparsity (%):       0.0000
    Fitting Condition:        1E-10

   => Auxiliary Basis Set <=

  Basis Set: (CC-PVDZ AUX)
    Blend: DEF2-UNIVERSAL-JKFIT
    Number of shells: 51
    Number of basis functions: 163
    Number of Cartesian functions: 197
    Spherical Harmonics?: true
    Max angular momentum: 4

  Cached 100.0% of DFT collocation blocks in 0.041 [GiB].

  Minimum eigenvalue in the overlap matrix is 1.6132247237E-03.
  Reciprocal condition number of the overlap matrix is 4.1641316002E-04.
    Using symmetric orthogonalization.

  ==> Pre-Iterations <==

  SCF Guess: Orbitals guess was supplied from a previous computation.

   -------------------------------------------------------
    Irrep   Nso     Nmo     Nalpha   Nbeta   Ndocc  Nsocc
   -------------------------------------------------------
     A1        16      16       5       4       4       1
     A2         2       2       0       0       0       0
     B1         7       7       2       1       1       1
     B2         7       7       2       1       1       1
   -------------------------------------------------------
    Total      32      32       9       6       6       3
   -------------------------------------------------------

  ==> Iterations <==

                           Total Energy        Delta E     RMS |[F,P]|

   @DF-UKS iter   0:  -207.25503213235754   -2.07255e+02   3.70596e-03 
   @DF-UKS iter   1:  -207.23388295592366    2.11492e-02   4.11748e-04 ADIIS/DIIS
   @DF-UKS iter   2:  -207.23391945181268   -3.64959e-05   9.34041e-05 DIIS/DAMP=1%
   @DF-UKS iter   3:  -207.23395346609564   -3.40143e-05   8.08027e-06 DIIS/DAMP=1%
   @DF-UKS iter   4:  -207.23392505223271    2.84139e-05   7.66570e-07 DIIS/DAMP=1%
   @DF-UKS iter   5:  -207.23392236545192    2.68678e-06   9.37117e-08 DIIS/DAMP=1%
   @DF-UKS iter   6:  -207.23392261816170   -2.52710e-07   8.57023e-09 DIIS/DAMP=1%
   @DF-UKS iter   7:  -207.23392257093090    4.72308e-08   1.37927e-09 DIIS/DAMP=1%
   @DF-UKS iter   8:  -207.23392257557322   -4.64232e-09   1.79491e-10 DIIS/DAMP=1%
  Energy and wave function converged.


  ==> Post-Iterations <==

   Electrons on quadrature grid:
      Nalpha   =    8.9999999633 ; deviation = -3.670e-08
      Nbeta    =    5.9999999542 ; deviation = -4.583e-08
      Ntotal   =   14.9999999175 ; deviation = -8.253e-08 

   @Spin Contamination Metric:   7.891012960E-06
   @S^2 Expected:                3.750000000E+00
   @S^2 Observed:                3.750007891E+00
   @S   Expected:                1.500000000E+00
   @S   Observed:                1.500000000E+00

    Orbital Energies [Eh]
    ---------------------

    Alpha Occupied:                                                       

       1A1   -46.930810     2A1    -3.231567     3A1    -2.240780  
       1B1    -1.961437     1B2    -1.961437     4A1    -1.952100  
       5A1    -0.260905     2B1    -0.153363     2B2    -0.153363  

    Alpha Virtual:                                                        

       6A1    -0.073438     7A1     0.005292     3B1     0.030014  
       3B2     0.030014     8A1     0.032031     4B2     0.040831  
       4B1     0.040831     9A1     0.078430    10A1     0.148709  
       1A2     0.148710    11A1     0.162840     5B2     0.192507  
       5B1     0.192507    12A1     0.222335     6B2     0.312135  
       6B1     0.312135    13A1     0.332582     2A2     0.390296  
      14A1     0.390297     7B2     0.547592     7B1     0.547592  
      15A1     0.743613    16A1     1.908633  

    Beta Occupied:                                                        

       1A1   -46.924751     2A1    -3.222244     3A1    -2.231561  
       1B1    -1.950914     1B2    -1.950914     4A1    -1.946219  

    Beta Virtual:                                                         

       5A1    -0.131772     6A1    -0.035189     2B1    -0.026288  
       2B2    -0.026288     7A1     0.033293     8A1     0.046282  
       3B1     0.052818     3B2     0.052818     4B2     0.080285  
       4B1     0.080285     9A1     0.087981    10A1     0.194087  
       5B2     0.232242     5B1     0.232242    11A1     0.238065  
       1A2     0.238179    12A1     0.257126     6B2     0.357026  
       6B1     0.357026    13A1     0.373112    14A1     0.453754  
       2A2     0.453819     7B2     0.591678     7B1     0.591678  
      15A1     0.772873    16A1     1.916165  

    Final Occupation by Irrep:
             A1    A2    B1    B2 
    DOCC [     4,    0,    1,    1 ]
    SOCC [     1,    0,    1,    1 ]
    NA   [     5,    0,    2,    2 ]
    NB   [     4,    0,    1,    1 ]

  @DF-UKS Final Energy:  -207.23392257557322

   => Energetics <=

    Nuclear Repulsion Energy =             15.1539174885326027
    One-Electron Energy =                -317.0661309123352680
    Two-Electron Energy =                 109.5623196562701906
    DFT Exchange-Correlation Energy =     -14.8840288080407799
    Empirical Dispersion Energy =           0.0000000000000000
    VV10 Nonlocal Energy =                  0.0000000000000000
    Total Energy =                       -207.2339225755732457

  UHF NO Occupations:
  HONO-2 :    5 A1 1.0000000
  HONO-1 :    2 B2 1.0000000
  HONO-0 :    2 B1 1.0000000
  LUNO+0 :    6 A1 0.0000021
  LUNO+1 :    7 A1 0.0000005
  LUNO+2 :    3 B1 0.0000005
  LUNO+3 :    3 B2 0.0000005


Computation Completed


Properties will be evaluated at   0.000000,   0.000000,   0.000000 [a0]

Properties computed using the SCF density matrix


 Multipole Moments:

 ------------------------------------------------------------------------------------
     Multipole            Electronic (a.u.)      Nuclear  (a.u.)        Total (a.u.)
 ------------------------------------------------------------------------------------

 L = 1.  Multiply by 2.5417464519 to convert [e a0] to [Debye]
 Dipole X            :          0.0000000            0.0000000            0.0000000
 Dipole Y            :          0.0000000            0.0000000            0.0000000
 Dipole Z            :          0.6811736           -0.9377201           -0.2565465
 Magnitude           :                                                    0.2565465

 ------------------------------------------------------------------------------------

*** tstop() called on Joses-MacBook-Pro-2.local at Wed Jul 16 18:33:12 2025
Module time:
	user time   =       3.35 seconds =       0.06 minutes
	system time =       3.28 seconds =       0.05 minutes
	total time  =          1 seconds =       0.02 minutes
Total time:
	user time   =       8.21 seconds =       0.14 minutes
	system time =       8.90 seconds =       0.15 minutes
	total time  =          2 seconds =       0.03 minutes

*** tstart() called on Joses-MacBook-Pro-2.local
*** at Wed Jul 16 18:33:12 2025


         ------------------------------------------------------------
                                   SCF GRAD                          
                          Rob Parrish, Justin Turney,                
                       Andy Simmonett, and Alex Sokolov              
         ------------------------------------------------------------

  ==> Geometry <==

    Molecular point group: c2v
    Full point group: C_inf_v

    Geometry (in Angstrom), charge = 0, multiplicity = 4:

       Center              X                  Y                   Z               Mass       
    ------------   -----------------  -----------------  -----------------  -----------------
         LI           0.000000000000     0.000000000000     0.972619243025     7.016003436600
         MG           0.000000000000     0.000000000000    -0.284506486908    23.985041697000

  Nuclear repulsion =   15.153917488532603

  ==> Basis Set <==

  Basis Set: CC-PVDZ
    Blend: CC-PVDZ
    Number of shells: 14
    Number of basis functions: 32
    Number of Cartesian functions: 34
    Spherical Harmonics?: true
    Max angular momentum: 2

  ==> DFJKGrad: Density-Fitted SCF Gradients <==

    Gradient:                    1
    J tasked:                  Yes
    K tasked:                  Yes
    wK tasked:                  No
    OpenMP threads:              1
    Integrals threads:           1
    Memory [MiB]:              375
    Schwarz Cutoff:          1E-12
    Fitting Condition:       1E-10

   => Auxiliary Basis Set <=

  Basis Set: (CC-PVDZ AUX)
    Blend: DEF2-UNIVERSAL-JKFIT
    Number of shells: 51
    Number of basis functions: 163
    Number of Cartesian functions: 197
    Spherical Harmonics?: true
    Max angular momentum: 4

  ==> DFT Potential <==

   => LibXC <=

    Version 6.2.2
    S. Lehtola, C. Steigemann, M. J.T. Oliveira, and M. A.L. Marques.,  SoftwareX 7, 1–5 (2018) (10.1016/j.softx.2017.11.002)

   => Composite Functional: B3LYP <= 

    B3LYP Hyb-GGA Exchange-Correlation Functional

    P. J. Stephens, F. J. Devlin, C. F. Chabalowski, and M. J. Frisch.,  J. Phys. Chem. 98, 11623 (1994) (10.1021/j100096a001)

    Deriv               =              1
    GGA                 =           TRUE
    Meta                =          FALSE

    Exchange Hybrid     =           TRUE
    MP2 Hybrid          =          FALSE

   => Exchange Functionals <=

    0.0800   Slater exchange
    0.7200         Becke 88

   => Exact (HF) Exchange <=

    0.2000               HF 

   => Correlation Functionals <=

    0.1900   Vosko, Wilk & Nusair (VWN5_RPA)
    0.8100   Lee, Yang & Parr

   => LibXC Density Thresholds  <==

    XC_HYB_GGA_XC_B3LYP:  1.00E-15 

   => Molecular Quadrature <=

    Radial Scheme          =       TREUTLER
    Pruning Scheme         =           NONE
    Nuclear Scheme         =       TREUTLER

    Blocking Scheme        =         OCTREE
    BS radius alpha        =              1
    Pruning alpha          =              1
    Radial Points          =             75
    Spherical Points       =            302
    Total Points           =          43784
    Total Blocks           =            443
    Max Points             =            252
    Max Functions          =             32
    Weights Tolerance      =       1.00E-15


  -Total Gradient:
     Atom            X                  Y                   Z
    ------   -----------------  -----------------  -----------------
       1        0.000000000000     0.000000000000    -0.369903219967
       2       -0.000000000000     0.000000000000     0.369874356783


*** tstop() called on Joses-MacBook-Pro-2.local at Wed Jul 16 18:33:12 2025
Module time:
	user time   =       0.89 seconds =       0.01 minutes
	system time =       1.83 seconds =       0.03 minutes
	total time  =          0 seconds =       0.00 minutes
Total time:
	user time   =       9.10 seconds =       0.15 minutes
	system time =      10.73 seconds =       0.18 minutes
	total time  =          2 seconds =       0.03 minutes

    			-----------------------------------------

    			 OPTKING 3.0: for geometry optimizations 

    			     By R.A. King, Bethel University     

    			        with contributions from          

    			    A.V. Copan, J. Cayton, A. Heide      

    			-----------------------------------------

    
	                            ===> Fragment 1 <== 

	 Z (Atomic Numbers)          Masses                          Geom                  
	       3.000000             7.016003          0.00000000  0.00000000  1.83798399   
	      12.000000            23.985042          0.00000000  0.00000000 -0.53763934   

	 - Coordinate -           - BOHR/RAD -       - ANG/DEG -
	 R(1,2)           =         2.375623           1.257126


	        --- Internal Coordinate Step in ANG or DEG, aJ/ANG or AJ/DEG ---
	-------------------------------------------------------------------------------
	           Coordinate      Previous         Force          Change          New 
	           ----------      --------        ------          ------        ------
	               R(1,2)       1.25713        3.04741        0.09085       1.34797
	-------------------------------------------------------------------------------

	                                 ==> Convergence Check <==                                  
    
	Measures of convergence in internal coordinates in au.
    
	Criteria marked as inactive (o), active & met (*), and active & unmet ( ).

	----------------------------------------------------------------------------------------------
	   Step    Total Energy     Delta E     Max Force     RMS Force      Max Disp      RMS Disp   
	----------------------------------------------------------------------------------------------
	  Convergence Criteria     1.00e-06 *    3.00e-04 *             o    1.20e-03 *             o
	----------------------------------------------------------------------------------------------
	     2    -207.23392258   -4.44e-02      3.70e-01      3.70e-01 o    1.72e-01      1.72e-01 o  ~
	----------------------------------------------------------------------------------------------

Next Geometry in Ang 
	Fragment 1 (Ang)

	   Li   0.0000000000   0.0000000000   1.0180420303
	   Mg   0.0000000000   0.0000000000  -0.3299292742


    Structure for next step:
    Molecular point group: c2v
    Full point group: C_inf_v

    Geometry (in Angstrom), charge = 0, multiplicity = 4:

    LI           0.000000000000     0.000000000000     1.042905095759
    MG           0.000000000000     0.000000000000    -0.305066208695


Scratch directory: /tmp/
gradient() will perform analytic gradient computation.
   => Libint2 <=

    Primary   basis highest AM E, G, H:  6, 6, 3
    Auxiliary basis highest AM E, G, H:  7, 7, 4
    Onebody   basis highest AM E, G, H:  -, -, -
    Solid Harmonics ordering:            Gaussian

*** tstart() called on Joses-MacBook-Pro-2.local
*** at Wed Jul 16 18:33:12 2025

   => Loading Basis Set <=

    Name: CC-PVDZ
    Role: ORBITAL
    Keyword: BASIS
    atoms 1 entry LI         line    42 file /Users/joseantoniorodriguesromero/anaconda3/share/psi4/basis/cc-pvdz.gbs 
    atoms 2 entry MG         line   353 file /Users/joseantoniorodriguesromero/anaconda3/share/psi4/basis/cc-pvdz.gbs 


         ---------------------------------------------------------
                                   SCF
               by Justin Turney, Rob Parrish, Andy Simmonett
                          and Daniel G. A. Smith
                              UKS Reference
                        1 Threads,    500 MiB Core
         ---------------------------------------------------------

  ==> Geometry <==

    Molecular point group: c2v
    Full point group: C_inf_v

    Geometry (in Angstrom), charge = 0, multiplicity = 4:

       Center              X                  Y                   Z               Mass       
    ------------   -----------------  -----------------  -----------------  -----------------
         LI           0.000000000000     0.000000000000     1.042905095759     7.016003436600
         MG           0.000000000000     0.000000000000    -0.305066208695    23.985041697000

  Running in c2v symmetry.

  Rotational constants: A = ************  B =      1.70915  C =      1.70915 [cm^-1]
  Rotational constants: A = ************  B =  51239.15626  C =  51239.15626 [MHz]
  Nuclear repulsion =   14.132629916659614

  Charge       = 0
  Multiplicity = 4
  Electrons    = 15
  Nalpha       = 9
  Nbeta        = 6

  ==> Algorithm <==

  SCF Algorithm Type is DF.
  DIIS enabled.
  MOM disabled.
  Fractional occupation disabled.
  Guess Type is READ.
  Energy threshold   = 1.00e-08
  Density threshold  = 1.00e-08
  Integral threshold = 1.00e-12

  ==> Primary Basis <==

  Basis Set: CC-PVDZ
    Blend: CC-PVDZ
    Number of shells: 14
    Number of basis functions: 32
    Number of Cartesian functions: 34
    Spherical Harmonics?: true
    Max angular momentum: 2

  ==> DFT Potential <==

   => LibXC <=

    Version 6.2.2
    S. Lehtola, C. Steigemann, M. J.T. Oliveira, and M. A.L. Marques.,  SoftwareX 7, 1–5 (2018) (10.1016/j.softx.2017.11.002)

   => Composite Functional: B3LYP <= 

    B3LYP Hyb-GGA Exchange-Correlation Functional

    P. J. Stephens, F. J. Devlin, C. F. Chabalowski, and M. J. Frisch.,  J. Phys. Chem. 98, 11623 (1994) (10.1021/j100096a001)

    Deriv               =              1
    GGA                 =           TRUE
    Meta                =          FALSE

    Exchange Hybrid     =           TRUE
    MP2 Hybrid          =          FALSE

   => Exchange Functionals <=

    0.0800   Slater exchange
    0.7200         Becke 88

   => Exact (HF) Exchange <=

    0.2000               HF 

   => Correlation Functionals <=

    0.1900   Vosko, Wilk & Nusair (VWN5_RPA)
    0.8100   Lee, Yang & Parr

   => LibXC Density Thresholds  <==

    XC_HYB_GGA_XC_B3LYP:  1.00E-15 

   => Molecular Quadrature <=

    Radial Scheme          =       TREUTLER
    Pruning Scheme         =           NONE
    Nuclear Scheme         =       TREUTLER

    Blocking Scheme        =         OCTREE
    BS radius alpha        =              1
    Pruning alpha          =              1
    Radial Points          =             75
    Spherical Points       =            302
    Total Points           =          43787
    Total Blocks           =            444
    Max Points             =            252
    Max Functions          =             32
    Weights Tolerance      =       1.00E-15

   => Loading Basis Set <=

    Name: (CC-PVDZ AUX)
    Role: JKFIT
    Keyword: DF_BASIS_SCF
    atoms 1 entry LI         line    54 file /Users/joseantoniorodriguesromero/anaconda3/share/psi4/basis/def2-universal-jkfit.gbs 
    atoms 2 entry MG         line   576 file /Users/joseantoniorodriguesromero/anaconda3/share/psi4/basis/def2-universal-jkfit.gbs 

   => Loading Basis Set <=

    Name: CC-PVDZ
    Role: ORBITAL
    Keyword: BASIS
    atoms 1 entry LI         line    42 file /Users/joseantoniorodriguesromero/anaconda3/share/psi4/basis/cc-pvdz.gbs 
    atoms 2 entry MG         line   353 file /Users/joseantoniorodriguesromero/anaconda3/share/psi4/basis/cc-pvdz.gbs 

  Reading orbitals from file /tmp/quartet_LiMg.default.68345.180.npy, no projection.

  ==> Integral Setup <==

  DFHelper Memory: AOs need 0.002 GiB; user supplied 0.325 GiB. 
  Using in-core AOs.

  ==> MemDFJK: Density-Fitted J/K Matrices <==

    J tasked:                   Yes
    K tasked:                   Yes
    wK tasked:                   No
    OpenMP threads:               1
    Memory [MiB]:               333
    Algorithm:                 Core
    Schwarz Cutoff:           1E-12
    Mask sparsity (%):       0.0000
    Fitting Condition:        1E-10

   => Auxiliary Basis Set <=

  Basis Set: (CC-PVDZ AUX)
    Blend: DEF2-UNIVERSAL-JKFIT
    Number of shells: 51
    Number of basis functions: 163
    Number of Cartesian functions: 197
    Spherical Harmonics?: true
    Max angular momentum: 4

  Cached 100.0% of DFT collocation blocks in 0.041 [GiB].

  Minimum eigenvalue in the overlap matrix is 1.6352208476E-03.
  Reciprocal condition number of the overlap matrix is 4.2227592034E-04.
    Using symmetric orthogonalization.

  ==> Pre-Iterations <==

  SCF Guess: Orbitals guess was supplied from a previous computation.

   -------------------------------------------------------
    Irrep   Nso     Nmo     Nalpha   Nbeta   Ndocc  Nsocc
   -------------------------------------------------------
     A1        16      16       5       4       4       1
     A2         2       2       0       0       0       0
     B1         7       7       2       1       1       1
     B2         7       7       2       1       1       1
   -------------------------------------------------------
    Total      32      32       9       6       6       3
   -------------------------------------------------------

  ==> Iterations <==

                           Total Energy        Delta E     RMS |[F,P]|

   @DF-UKS iter   0:  -207.31222379364050   -2.07312e+02   5.03697e-03 
   @DF-UKS iter   1:  -207.28842935474864    2.37944e-02   4.73820e-04 ADIIS/DIIS
   @DF-UKS iter   2:  -207.28848234519174   -5.29904e-05   1.14040e-04 ADIIS/DIIS/DAMP=1%
   @DF-UKS iter   3:  -207.28851101537151   -2.86702e-05   1.24412e-05 DIIS/DAMP=1%
   @DF-UKS iter   4:  -207.28849124062705    1.97747e-05   1.33770e-06 DIIS/DAMP=1%
   @DF-UKS iter   5:  -207.28848750379279    3.73683e-06   1.73874e-07 DIIS/DAMP=1%
   @DF-UKS iter   6:  -207.28848804602723   -5.42234e-07   1.77778e-08 DIIS/DAMP=1%
   @DF-UKS iter   7:  -207.28848793275102    1.13276e-07   3.33999e-09 DIIS/DAMP=1%
   @DF-UKS iter   8:  -207.28848794245422   -9.70320e-09   4.66904e-10 DIIS/DAMP=1%
  Energy and wave function converged.


  ==> Post-Iterations <==

   Electrons on quadrature grid:
      Nalpha   =    9.0000010235 ; deviation = 1.023e-06
      Nbeta    =    6.0000009687 ; deviation = 9.687e-07
      Ntotal   =   15.0000019922 ; deviation = 1.992e-06 

   @Spin Contamination Metric:   8.223059051E-06
   @S^2 Expected:                3.750000000E+00
   @S^2 Observed:                3.750008223E+00
   @S   Expected:                1.500000000E+00
   @S   Observed:                1.500000000E+00

    Orbital Energies [Eh]
    ---------------------

    Alpha Occupied:                                                       

       1A1   -46.918350     2A1    -3.212593     3A1    -2.197055  
       4A1    -1.947750     1B1    -1.946267     1B2    -1.946267  
       5A1    -0.261272     2B2    -0.149521     2B1    -0.149521  

    Alpha Virtual:                                                        

       6A1    -0.073034     7A1     0.000880     3B1     0.028004  
       3B2     0.028004     8A1     0.031387     4B2     0.041567  
       4B1     0.041567     9A1     0.077646     1A2     0.152121  
      10A1     0.152122    11A1     0.154557     5B1     0.190236  
       5B2     0.190236    12A1     0.220703     6B1     0.303224  
       6B2     0.303224    13A1     0.320316     2A2     0.383786  
      14A1     0.383789     7B1     0.550733     7B2     0.550733  
      15A1     0.685437    16A1     1.882711  

    Beta Occupied:                                                        

       1A1   -46.912318     2A1    -3.203183     3A1    -2.187856  
       4A1    -1.942015     1B1    -1.935961     1B2    -1.935961  

    Beta Virtual:                                                         

       5A1    -0.132911     6A1    -0.036003     2B2    -0.025003  
       2B1    -0.025003     7A1     0.030338     8A1     0.046102  
       3B1     0.052754     3B2     0.052754     4B2     0.079714  
       4B1     0.079714     9A1     0.085736    10A1     0.185298  
       5B1     0.229291     5B2     0.229291    11A1     0.239408  
       1A2     0.239432    12A1     0.255037     6B1     0.347438  
       6B2     0.347438    13A1     0.359590     2A2     0.446509  
      14A1     0.446511     7B1     0.594878     7B2     0.594878  
      15A1     0.714172    16A1     1.889165  

    Final Occupation by Irrep:
             A1    A2    B1    B2 
    DOCC [     4,    0,    1,    1 ]
    SOCC [     1,    0,    1,    1 ]
    NA   [     5,    0,    2,    2 ]
    NB   [     4,    0,    1,    1 ]

  @DF-UKS Final Energy:  -207.28848794245422

   => Energetics <=

    Nuclear Repulsion Energy =             14.1326299166596137
    One-Electron Energy =                -315.3708970490582146
    Two-Electron Energy =                 108.8170835218947445
    DFT Exchange-Correlation Energy =     -14.8673043319503506
    Empirical Dispersion Energy =           0.0000000000000000
    VV10 Nonlocal Energy =                  0.0000000000000000
    Total Energy =                       -207.2884879424542248

  UHF NO Occupations:
  HONO-2 :    2 B2 1.0000000
  HONO-1 :    2 B1 1.0000000
  HONO-0 :    5 A1 1.0000000
  LUNO+0 :    6 A1 0.0000021
  LUNO+1 :    7 A1 0.0000006
  LUNO+2 :    3 B2 0.0000005
  LUNO+3 :    3 B1 0.0000005


Computation Completed


Properties will be evaluated at   0.000000,   0.000000,   0.000000 [a0]

Properties computed using the SCF density matrix


 Multipole Moments:

 ------------------------------------------------------------------------------------
     Multipole            Electronic (a.u.)      Nuclear  (a.u.)        Total (a.u.)
 ------------------------------------------------------------------------------------

 L = 1.  Multiply by 2.5417464519 to convert [e a0] to [Debye]
 Dipole X            :          0.0000000            0.0000000            0.0000000
 Dipole Y            :          0.0000000            0.0000000            0.0000000
 Dipole Z            :          0.7857527           -1.0054840           -0.2197313
 Magnitude           :                                                    0.2197313

 ------------------------------------------------------------------------------------

*** tstop() called on Joses-MacBook-Pro-2.local at Wed Jul 16 18:33:13 2025
Module time:
	user time   =       3.44 seconds =       0.06 minutes
	system time =       3.16 seconds =       0.05 minutes
	total time  =          1 seconds =       0.02 minutes
Total time:
	user time   =      12.58 seconds =       0.21 minutes
	system time =      14.11 seconds =       0.24 minutes
	total time  =          3 seconds =       0.05 minutes

*** tstart() called on Joses-MacBook-Pro-2.local
*** at Wed Jul 16 18:33:13 2025


         ------------------------------------------------------------
                                   SCF GRAD                          
                          Rob Parrish, Justin Turney,                
                       Andy Simmonett, and Alex Sokolov              
         ------------------------------------------------------------

  ==> Geometry <==

    Molecular point group: c2v
    Full point group: C_inf_v

    Geometry (in Angstrom), charge = 0, multiplicity = 4:

       Center              X                  Y                   Z               Mass       
    ------------   -----------------  -----------------  -----------------  -----------------
         LI           0.000000000000     0.000000000000     1.042905095759     7.016003436600
         MG           0.000000000000     0.000000000000    -0.305066208695    23.985041697000

  Nuclear repulsion =   14.132629916659614

  ==> Basis Set <==

  Basis Set: CC-PVDZ
    Blend: CC-PVDZ
    Number of shells: 14
    Number of basis functions: 32
    Number of Cartesian functions: 34
    Spherical Harmonics?: true
    Max angular momentum: 2

  ==> DFJKGrad: Density-Fitted SCF Gradients <==

    Gradient:                    1
    J tasked:                  Yes
    K tasked:                  Yes
    wK tasked:                  No
    OpenMP threads:              1
    Integrals threads:           1
    Memory [MiB]:              375
    Schwarz Cutoff:          1E-12
    Fitting Condition:       1E-10

   => Auxiliary Basis Set <=

  Basis Set: (CC-PVDZ AUX)
    Blend: DEF2-UNIVERSAL-JKFIT
    Number of shells: 51
    Number of basis functions: 163
    Number of Cartesian functions: 197
    Spherical Harmonics?: true
    Max angular momentum: 4

  ==> DFT Potential <==

   => LibXC <=

    Version 6.2.2
    S. Lehtola, C. Steigemann, M. J.T. Oliveira, and M. A.L. Marques.,  SoftwareX 7, 1–5 (2018) (10.1016/j.softx.2017.11.002)

   => Composite Functional: B3LYP <= 

    B3LYP Hyb-GGA Exchange-Correlation Functional

    P. J. Stephens, F. J. Devlin, C. F. Chabalowski, and M. J. Frisch.,  J. Phys. Chem. 98, 11623 (1994) (10.1021/j100096a001)

    Deriv               =              1
    GGA                 =           TRUE
    Meta                =          FALSE

    Exchange Hybrid     =           TRUE
    MP2 Hybrid          =          FALSE

   => Exchange Functionals <=

    0.0800   Slater exchange
    0.7200         Becke 88

   => Exact (HF) Exchange <=

    0.2000               HF 

   => Correlation Functionals <=

    0.1900   Vosko, Wilk & Nusair (VWN5_RPA)
    0.8100   Lee, Yang & Parr

   => LibXC Density Thresholds  <==

    XC_HYB_GGA_XC_B3LYP:  1.00E-15 

   => Molecular Quadrature <=

    Radial Scheme          =       TREUTLER
    Pruning Scheme         =           NONE
    Nuclear Scheme         =       TREUTLER

    Blocking Scheme        =         OCTREE
    BS radius alpha        =              1
    Pruning alpha          =              1
    Radial Points          =             75
    Spherical Points       =            302
    Total Points           =          43787
    Total Blocks           =            444
    Max Points             =            252
    Max Functions          =             32
    Weights Tolerance      =       1.00E-15


  -Total Gradient:
     Atom            X                  Y                   Z
    ------   -----------------  -----------------  -----------------
       1        0.000000000000    -0.000000000000    -0.272671879544
       2        0.000000000000     0.000000000000     0.272619890635


*** tstop() called on Joses-MacBook-Pro-2.local at Wed Jul 16 18:33:13 2025
Module time:
	user time   =       1.12 seconds =       0.02 minutes
	system time =       1.60 seconds =       0.03 minutes
	total time  =          0 seconds =       0.00 minutes
Total time:
	user time   =      13.72 seconds =       0.23 minutes
	system time =      15.71 seconds =       0.26 minutes
	total time  =          3 seconds =       0.05 minutes

    			-----------------------------------------

    			 OPTKING 3.0: for geometry optimizations 

    			     By R.A. King, Bethel University     

    			        with contributions from          

    			    A.V. Copan, J. Cayton, A. Heide      

    			-----------------------------------------

    
	                            ===> Fragment 1 <== 

	 Z (Atomic Numbers)          Masses                          Geom                  
	       3.000000             7.016003          0.00000000  0.00000000  1.97080501   
	      12.000000            23.985042          0.00000000  0.00000000 -0.57649158   

	 - Coordinate -           - BOHR/RAD -       - ANG/DEG -
	 R(1,2)           =         2.547297           1.347971


	        --- Internal Coordinate Step in ANG or DEG, aJ/ANG or AJ/DEG ---
	-------------------------------------------------------------------------------
	           Coordinate      Previous         Force          Change          New 
	           ----------      --------        ------          ------        ------
	               R(1,2)       1.34797        2.24625        0.19064       1.53861
	-------------------------------------------------------------------------------

	                                 ==> Convergence Check <==                                  
    
	Measures of convergence in internal coordinates in au.
    
	Criteria marked as inactive (o), active & met (*), and active & unmet ( ).

	----------------------------------------------------------------------------------------------
	   Step    Total Energy     Delta E     Max Force     RMS Force      Max Disp      RMS Disp   
	----------------------------------------------------------------------------------------------
	  Convergence Criteria     1.00e-06 *    3.00e-04 *             o    1.20e-03 *             o
	----------------------------------------------------------------------------------------------
	     3    -207.28848794   -5.46e-02      2.73e-01      2.73e-01 o    3.60e-01      3.60e-01 o  ~
	----------------------------------------------------------------------------------------------

Next Geometry in Ang 
	Fragment 1 (Ang)

	   Li   0.0000000000   0.0000000000   1.1382254669
	   Mg   0.0000000000   0.0000000000  -0.4003865798


    Structure for next step:
    Molecular point group: c2v
    Full point group: C_inf_v

    Geometry (in Angstrom), charge = 0, multiplicity = 4:

    LI           0.000000000000     0.000000000000     1.190400966693
    MG           0.000000000000     0.000000000000    -0.348211080004


Scratch directory: /tmp/
gradient() will perform analytic gradient computation.
   => Libint2 <=

    Primary   basis highest AM E, G, H:  6, 6, 3
    Auxiliary basis highest AM E, G, H:  7, 7, 4
    Onebody   basis highest AM E, G, H:  -, -, -
    Solid Harmonics ordering:            Gaussian

*** tstart() called on Joses-MacBook-Pro-2.local
*** at Wed Jul 16 18:33:13 2025

   => Loading Basis Set <=

    Name: CC-PVDZ
    Role: ORBITAL
    Keyword: BASIS
    atoms 1 entry LI         line    42 file /Users/joseantoniorodriguesromero/anaconda3/share/psi4/basis/cc-pvdz.gbs 
    atoms 2 entry MG         line   353 file /Users/joseantoniorodriguesromero/anaconda3/share/psi4/basis/cc-pvdz.gbs 


         ---------------------------------------------------------
                                   SCF
               by Justin Turney, Rob Parrish, Andy Simmonett
                          and Daniel G. A. Smith
                              UKS Reference
                        1 Threads,    500 MiB Core
         ---------------------------------------------------------

  ==> Geometry <==

    Molecular point group: c2v
    Full point group: C_inf_v

    Geometry (in Angstrom), charge = 0, multiplicity = 4:

       Center              X                  Y                   Z               Mass       
    ------------   -----------------  -----------------  -----------------  -----------------
         LI           0.000000000000     0.000000000000     1.190400966693     7.016003436600
         MG           0.000000000000     0.000000000000    -0.348211080004    23.985041697000

  Running in c2v symmetry.

  Rotational constants: A = ************  B =      1.31185  C =      1.31185 [cm^-1]
  Rotational constants: A = ************  B =  39328.28486  C =  39328.28486 [MHz]
  Nuclear repulsion =   12.381535439699135

  Charge       = 0
  Multiplicity = 4
  Electrons    = 15
  Nalpha       = 9
  Nbeta        = 6

  ==> Algorithm <==

  SCF Algorithm Type is DF.
  DIIS enabled.
  MOM disabled.
  Fractional occupation disabled.
  Guess Type is READ.
  Energy threshold   = 1.00e-08
  Density threshold  = 1.00e-08
  Integral threshold = 1.00e-12

  ==> Primary Basis <==

  Basis Set: CC-PVDZ
    Blend: CC-PVDZ
    Number of shells: 14
    Number of basis functions: 32
    Number of Cartesian functions: 34
    Spherical Harmonics?: true
    Max angular momentum: 2

  ==> DFT Potential <==

   => LibXC <=

    Version 6.2.2
    S. Lehtola, C. Steigemann, M. J.T. Oliveira, and M. A.L. Marques.,  SoftwareX 7, 1–5 (2018) (10.1016/j.softx.2017.11.002)

   => Composite Functional: B3LYP <= 

    B3LYP Hyb-GGA Exchange-Correlation Functional

    P. J. Stephens, F. J. Devlin, C. F. Chabalowski, and M. J. Frisch.,  J. Phys. Chem. 98, 11623 (1994) (10.1021/j100096a001)

    Deriv               =              1
    GGA                 =           TRUE
    Meta                =          FALSE

    Exchange Hybrid     =           TRUE
    MP2 Hybrid          =          FALSE

   => Exchange Functionals <=

    0.0800   Slater exchange
    0.7200         Becke 88

   => Exact (HF) Exchange <=

    0.2000               HF 

   => Correlation Functionals <=

    0.1900   Vosko, Wilk & Nusair (VWN5_RPA)
    0.8100   Lee, Yang & Parr

   => LibXC Density Thresholds  <==

    XC_HYB_GGA_XC_B3LYP:  1.00E-15 

   => Molecular Quadrature <=

    Radial Scheme          =       TREUTLER
    Pruning Scheme         =           NONE
    Nuclear Scheme         =       TREUTLER

    Blocking Scheme        =         OCTREE
    BS radius alpha        =              1
    Pruning alpha          =              1
    Radial Points          =             75
    Spherical Points       =            302
    Total Points           =          43801
    Total Blocks           =            441
    Max Points             =            256
    Max Functions          =             32
    Weights Tolerance      =       1.00E-15

   => Loading Basis Set <=

    Name: (CC-PVDZ AUX)
    Role: JKFIT
    Keyword: DF_BASIS_SCF
    atoms 1 entry LI         line    54 file /Users/joseantoniorodriguesromero/anaconda3/share/psi4/basis/def2-universal-jkfit.gbs 
    atoms 2 entry MG         line   576 file /Users/joseantoniorodriguesromero/anaconda3/share/psi4/basis/def2-universal-jkfit.gbs 

   => Loading Basis Set <=

    Name: CC-PVDZ
    Role: ORBITAL
    Keyword: BASIS
    atoms 1 entry LI         line    42 file /Users/joseantoniorodriguesromero/anaconda3/share/psi4/basis/cc-pvdz.gbs 
    atoms 2 entry MG         line   353 file /Users/joseantoniorodriguesromero/anaconda3/share/psi4/basis/cc-pvdz.gbs 

  Reading orbitals from file /tmp/quartet_LiMg.default.68345.180.npy, no projection.

  ==> Integral Setup <==

  DFHelper Memory: AOs need 0.002 GiB; user supplied 0.325 GiB. 
  Using in-core AOs.

  ==> MemDFJK: Density-Fitted J/K Matrices <==

    J tasked:                   Yes
    K tasked:                   Yes
    wK tasked:                   No
    OpenMP threads:               1
    Memory [MiB]:               333
    Algorithm:                 Core
    Schwarz Cutoff:           1E-12
    Mask sparsity (%):       0.0000
    Fitting Condition:        1E-10

   => Auxiliary Basis Set <=

  Basis Set: (CC-PVDZ AUX)
    Blend: DEF2-UNIVERSAL-JKFIT
    Number of shells: 51
    Number of basis functions: 163
    Number of Cartesian functions: 197
    Spherical Harmonics?: true
    Max angular momentum: 4

  Cached 100.0% of DFT collocation blocks in 0.041 [GiB].

  Minimum eigenvalue in the overlap matrix is 1.5967814172E-03.
  Reciprocal condition number of the overlap matrix is 4.1281521589E-04.
    Using symmetric orthogonalization.

  ==> Pre-Iterations <==

  SCF Guess: Orbitals guess was supplied from a previous computation.

   -------------------------------------------------------
    Irrep   Nso     Nmo     Nalpha   Nbeta   Ndocc  Nsocc
   -------------------------------------------------------
     A1        16      16       5       4       4       1
     A2         2       2       0       0       0       0
     B1         7       7       2       1       1       1
     B2         7       7       2       1       1       1
   -------------------------------------------------------
    Total      32      32       9       6       6       3
   -------------------------------------------------------

  ==> Iterations <==

                           Total Energy        Delta E     RMS |[F,P]|

   @DF-UKS iter   0:  -207.38370541888662   -2.07384e+02   8.91546e-03 
   @DF-UKS iter   1:  -207.36338431737707    2.03211e-02   5.95096e-04 ADIIS/DIIS
   @DF-UKS iter   2:  -207.36352068216831   -1.36365e-04   1.69617e-04 ADIIS/DIIS/DAMP=1%
   @DF-UKS iter   3:  -207.36351122522274    9.45695e-06   2.51686e-05 DIIS/DAMP=1%
   @DF-UKS iter   4:  -207.36354127033303   -3.00451e-05   3.12122e-06 DIIS/DAMP=1%
   @DF-UKS iter   5:  -207.36353814560329    3.12473e-06   4.16596e-07 DIIS/DAMP=1%
   @DF-UKS iter   6:  -207.36353806274016    8.28631e-08   7.88236e-08 DIIS/DAMP=1%
   @DF-UKS iter   7:  -207.36353805296699    9.77317e-09   7.95925e-09 DIIS/DAMP=1%
  Energy and wave function converged.


  ==> Post-Iterations <==

   Electrons on quadrature grid:
      Nalpha   =    9.0000006367 ; deviation = 6.367e-07
      Nbeta    =    6.0000006207 ; deviation = 6.207e-07
      Ntotal   =   15.0000012574 ; deviation = 1.257e-06 

   @Spin Contamination Metric:   8.225725593E-06
   @S^2 Expected:                3.750000000E+00
   @S^2 Observed:                3.750008226E+00
   @S   Expected:                1.500000000E+00
   @S   Observed:                1.500000000E+00

    Orbital Energies [Eh]
    ---------------------

    Alpha Occupied:                                                       

       1A1   -46.895005     2A1    -3.183689     3A1    -2.132132  
       4A1    -1.930752     1B2    -1.921444     1B1    -1.921444  
       5A1    -0.263786     2B1    -0.141364     2B2    -0.141364  

    Alpha Virtual:                                                        

       6A1    -0.073838     7A1    -0.009530     3B1     0.023205  
       3B2     0.023205     8A1     0.030130     4B1     0.043873  
       4B2     0.043873     9A1     0.077753    10A1     0.135986  
      11A1     0.159503     1A2     0.159503     5B2     0.184812  
       5B1     0.184812    12A1     0.215625     6B2     0.286802  
       6B1     0.286802    13A1     0.296053    14A1     0.370696  
       2A2     0.370699     7B2     0.549467     7B1     0.549467  
      15A1     0.592723    16A1     1.855712  

    Beta Occupied:                                                        

       1A1   -46.889117     2A1    -3.174345     3A1    -2.123318  
       4A1    -1.925182     1B2    -1.911660     1B1    -1.911660  

    Beta Virtual:                                                         

       5A1    -0.136530     6A1    -0.038336     2B1    -0.022263  
       2B2    -0.022263     7A1     0.020660     8A1     0.045091  
       3B1     0.051382     3B2     0.051382     4B1     0.079437  
       4B2     0.079437     9A1     0.084097    10A1     0.166082  
       5B2     0.222372     5B1     0.222372     1A2     0.241572  
      11A1     0.241579    12A1     0.249071     6B2     0.330040  
       6B1     0.330040    13A1     0.332223    14A1     0.431732  
       2A2     0.431736     7B2     0.592248     7B1     0.592248  
      15A1     0.621069    16A1     1.860557  

    Final Occupation by Irrep:
             A1    A2    B1    B2 
    DOCC [     4,    0,    1,    1 ]
    SOCC [     1,    0,    1,    1 ]
    NA   [     5,    0,    2,    2 ]
    NB   [     4,    0,    1,    1 ]

  @DF-UKS Final Energy:  -207.36353805296699

   => Energetics <=

    Nuclear Repulsion Energy =             12.3815354396991353
    One-Electron Energy =                -312.4151417479674819
    Two-Electron Energy =                 107.5138858867561709
    DFT Exchange-Correlation Energy =     -14.8438176314547725
    Empirical Dispersion Energy =           0.0000000000000000
    VV10 Nonlocal Energy =                  0.0000000000000000
    Total Energy =                       -207.3635380529669874

  UHF NO Occupations:
  HONO-2 :    5 A1 1.0000000
  HONO-1 :    2 B1 1.0000000
  HONO-0 :    2 B2 1.0000000
  LUNO+0 :    6 A1 0.0000020
  LUNO+1 :    7 A1 0.0000007
  LUNO+2 :    3 B1 0.0000005
  LUNO+3 :    3 B2 0.0000005


Computation Completed


Properties will be evaluated at   0.000000,   0.000000,   0.000000 [a0]

Properties computed using the SCF density matrix


 Multipole Moments:

 ------------------------------------------------------------------------------------
     Multipole            Electronic (a.u.)      Nuclear  (a.u.)        Total (a.u.)
 ------------------------------------------------------------------------------------

 L = 1.  Multiply by 2.5417464519 to convert [e a0] to [Debye]
 Dipole X            :          0.0000000            0.0000000            0.0000000
 Dipole Y            :          0.0000000            0.0000000            0.0000000
 Dipole Z            :          1.0016132           -1.1476875           -0.1460743
 Magnitude           :                                                    0.1460743

 ------------------------------------------------------------------------------------

*** tstop() called on Joses-MacBook-Pro-2.local at Wed Jul 16 18:33:14 2025
Module time:
	user time   =       3.10 seconds =       0.05 minutes
	system time =       3.45 seconds =       0.06 minutes
	total time  =          1 seconds =       0.02 minutes
Total time:
	user time   =      16.86 seconds =       0.28 minutes
	system time =      19.39 seconds =       0.32 minutes
	total time  =          4 seconds =       0.07 minutes

*** tstart() called on Joses-MacBook-Pro-2.local
*** at Wed Jul 16 18:33:14 2025


         ------------------------------------------------------------
                                   SCF GRAD                          
                          Rob Parrish, Justin Turney,                
                       Andy Simmonett, and Alex Sokolov              
         ------------------------------------------------------------

  ==> Geometry <==

    Molecular point group: c2v
    Full point group: C_inf_v

    Geometry (in Angstrom), charge = 0, multiplicity = 4:

       Center              X                  Y                   Z               Mass       
    ------------   -----------------  -----------------  -----------------  -----------------
         LI           0.000000000000     0.000000000000     1.190400966693     7.016003436600
         MG           0.000000000000     0.000000000000    -0.348211080004    23.985041697000

  Nuclear repulsion =   12.381535439699135

  ==> Basis Set <==

  Basis Set: CC-PVDZ
    Blend: CC-PVDZ
    Number of shells: 14
    Number of basis functions: 32
    Number of Cartesian functions: 34
    Spherical Harmonics?: true
    Max angular momentum: 2

  ==> DFJKGrad: Density-Fitted SCF Gradients <==

    Gradient:                    1
    J tasked:                  Yes
    K tasked:                  Yes
    wK tasked:                  No
    OpenMP threads:              1
    Integrals threads:           1
    Memory [MiB]:              375
    Schwarz Cutoff:          1E-12
    Fitting Condition:       1E-10

   => Auxiliary Basis Set <=

  Basis Set: (CC-PVDZ AUX)
    Blend: DEF2-UNIVERSAL-JKFIT
    Number of shells: 51
    Number of basis functions: 163
    Number of Cartesian functions: 197
    Spherical Harmonics?: true
    Max angular momentum: 4

  ==> DFT Potential <==

   => LibXC <=

    Version 6.2.2
    S. Lehtola, C. Steigemann, M. J.T. Oliveira, and M. A.L. Marques.,  SoftwareX 7, 1–5 (2018) (10.1016/j.softx.2017.11.002)

   => Composite Functional: B3LYP <= 

    B3LYP Hyb-GGA Exchange-Correlation Functional

    P. J. Stephens, F. J. Devlin, C. F. Chabalowski, and M. J. Frisch.,  J. Phys. Chem. 98, 11623 (1994) (10.1021/j100096a001)

    Deriv               =              1
    GGA                 =           TRUE
    Meta                =          FALSE

    Exchange Hybrid     =           TRUE
    MP2 Hybrid          =          FALSE

   => Exchange Functionals <=

    0.0800   Slater exchange
    0.7200         Becke 88

   => Exact (HF) Exchange <=

    0.2000               HF 

   => Correlation Functionals <=

    0.1900   Vosko, Wilk & Nusair (VWN5_RPA)
    0.8100   Lee, Yang & Parr

   => LibXC Density Thresholds  <==

    XC_HYB_GGA_XC_B3LYP:  1.00E-15 

   => Molecular Quadrature <=

    Radial Scheme          =       TREUTLER
    Pruning Scheme         =           NONE
    Nuclear Scheme         =       TREUTLER

    Blocking Scheme        =         OCTREE
    BS radius alpha        =              1
    Pruning alpha          =              1
    Radial Points          =             75
    Spherical Points       =            302
    Total Points           =          43801
    Total Blocks           =            441
    Max Points             =            256
    Max Functions          =             32
    Weights Tolerance      =       1.00E-15


  -Total Gradient:
     Atom            X                  Y                   Z
    ------   -----------------  -----------------  -----------------
       1        0.000000000000     0.000000000000    -0.157840465486
       2       -0.000000000000     0.000000000000     0.157852924743


*** tstop() called on Joses-MacBook-Pro-2.local at Wed Jul 16 18:33:14 2025
Module time:
	user time   =       0.82 seconds =       0.01 minutes
	system time =       1.96 seconds =       0.03 minutes
	total time  =          0 seconds =       0.00 minutes
Total time:
	user time   =      17.71 seconds =       0.30 minutes
	system time =      21.35 seconds =       0.36 minutes
	total time  =          4 seconds =       0.07 minutes

    			-----------------------------------------

    			 OPTKING 3.0: for geometry optimizations 

    			     By R.A. King, Bethel University     

    			        with contributions from          

    			    A.V. Copan, J. Cayton, A. Heide      

    			-----------------------------------------

    
	                            ===> Fragment 1 <== 

	 Z (Atomic Numbers)          Masses                          Geom                  
	       3.000000             7.016003          0.00000000  0.00000000  2.24953181   
	      12.000000            23.985042          0.00000000  0.00000000 -0.65802358   

	 - Coordinate -           - BOHR/RAD -       - ANG/DEG -
	 R(1,2)           =         2.907555           1.538612


	        --- Internal Coordinate Step in ANG or DEG, aJ/ANG or AJ/DEG ---
	-------------------------------------------------------------------------------
	           Coordinate      Previous         Force          Change          New 
	           ----------      --------        ------          ------        ------
	               R(1,2)       1.53861        1.30046        0.21775       1.75636
	-------------------------------------------------------------------------------

	                                 ==> Convergence Check <==                                  
    
	Measures of convergence in internal coordinates in au.
    
	Criteria marked as inactive (o), active & met (*), and active & unmet ( ).

	----------------------------------------------------------------------------------------------
	   Step    Total Energy     Delta E     Max Force     RMS Force      Max Disp      RMS Disp   
	----------------------------------------------------------------------------------------------
	  Convergence Criteria     1.00e-06 *    3.00e-04 *             o    1.20e-03 *             o
	----------------------------------------------------------------------------------------------
	     4    -207.36353805   -7.51e-02      1.58e-01      1.58e-01 o    4.11e-01      4.11e-01 o  ~
	----------------------------------------------------------------------------------------------

Next Geometry in Ang 
	Fragment 1 (Ang)

	   Li   0.0000000000   0.0000000000   1.2992736155
	   Mg   0.0000000000   0.0000000000  -0.4570837288


    Structure for next step:
    Molecular point group: c2v
    Full point group: C_inf_v

    Geometry (in Angstrom), charge = 0, multiplicity = 4:

    LI           0.000000000000     0.000000000000     1.358867223893
    MG           0.000000000000     0.000000000000    -0.397490120433


Scratch directory: /tmp/
gradient() will perform analytic gradient computation.
   => Libint2 <=

    Primary   basis highest AM E, G, H:  6, 6, 3
    Auxiliary basis highest AM E, G, H:  7, 7, 4
    Onebody   basis highest AM E, G, H:  -, -, -
    Solid Harmonics ordering:            Gaussian

*** tstart() called on Joses-MacBook-Pro-2.local
*** at Wed Jul 16 18:33:14 2025

   => Loading Basis Set <=

    Name: CC-PVDZ
    Role: ORBITAL
    Keyword: BASIS
    atoms 1 entry LI         line    42 file /Users/joseantoniorodriguesromero/anaconda3/share/psi4/basis/cc-pvdz.gbs 
    atoms 2 entry MG         line   353 file /Users/joseantoniorodriguesromero/anaconda3/share/psi4/basis/cc-pvdz.gbs 


         ---------------------------------------------------------
                                   SCF
               by Justin Turney, Rob Parrish, Andy Simmonett
                          and Daniel G. A. Smith
                              UKS Reference
                        1 Threads,    500 MiB Core
         ---------------------------------------------------------

  ==> Geometry <==

    Molecular point group: c2v
    Full point group: C_inf_v

    Geometry (in Angstrom), charge = 0, multiplicity = 4:

       Center              X                  Y                   Z               Mass       
    ------------   -----------------  -----------------  -----------------  -----------------
         LI           0.000000000000     0.000000000000     1.358867223893     7.016003436600
         MG           0.000000000000     0.000000000000    -0.397490120433    23.985041697000

  Running in c2v symmetry.

  Rotational constants: A = ************  B =      1.00674  C =      1.00674 [cm^-1]
  Rotational constants: A = ************  B =  30181.26938  C =  30181.26938 [MHz]
  Nuclear repulsion =   10.846528268102183

  Charge       = 0
  Multiplicity = 4
  Electrons    = 15
  Nalpha       = 9
  Nbeta        = 6

  ==> Algorithm <==

  SCF Algorithm Type is DF.
  DIIS enabled.
  MOM disabled.
  Fractional occupation disabled.
  Guess Type is READ.
  Energy threshold   = 1.00e-08
  Density threshold  = 1.00e-08
  Integral threshold = 1.00e-12

  ==> Primary Basis <==

  Basis Set: CC-PVDZ
    Blend: CC-PVDZ
    Number of shells: 14
    Number of basis functions: 32
    Number of Cartesian functions: 34
    Spherical Harmonics?: true
    Max angular momentum: 2

  ==> DFT Potential <==

   => LibXC <=

    Version 6.2.2
    S. Lehtola, C. Steigemann, M. J.T. Oliveira, and M. A.L. Marques.,  SoftwareX 7, 1–5 (2018) (10.1016/j.softx.2017.11.002)

   => Composite Functional: B3LYP <= 

    B3LYP Hyb-GGA Exchange-Correlation Functional

    P. J. Stephens, F. J. Devlin, C. F. Chabalowski, and M. J. Frisch.,  J. Phys. Chem. 98, 11623 (1994) (10.1021/j100096a001)

    Deriv               =              1
    GGA                 =           TRUE
    Meta                =          FALSE

    Exchange Hybrid     =           TRUE
    MP2 Hybrid          =          FALSE

   => Exchange Functionals <=

    0.0800   Slater exchange
    0.7200         Becke 88

   => Exact (HF) Exchange <=

    0.2000               HF 

   => Correlation Functionals <=

    0.1900   Vosko, Wilk & Nusair (VWN5_RPA)
    0.8100   Lee, Yang & Parr

   => LibXC Density Thresholds  <==

    XC_HYB_GGA_XC_B3LYP:  1.00E-15 

   => Molecular Quadrature <=

    Radial Scheme          =       TREUTLER
    Pruning Scheme         =           NONE
    Nuclear Scheme         =       TREUTLER

    Blocking Scheme        =         OCTREE
    BS radius alpha        =              1
    Pruning alpha          =              1
[...]
	           ----------      --------        ------          ------        ------
	               R(1,2)       2.51807        0.00061        0.00134       2.51941
	-------------------------------------------------------------------------------

	                                 ==> Convergence Check <==                                  
    
	Measures of convergence in internal coordinates in au.
    
	Criteria marked as inactive (o), active & met (*), and active & unmet ( ).

	----------------------------------------------------------------------------------------------
	   Step    Total Energy     Delta E     Max Force     RMS Force      Max Disp      RMS Disp   
	----------------------------------------------------------------------------------------------
	  Convergence Criteria     1.00e-06 *    3.00e-04 *             o    1.20e-03 *             o
	----------------------------------------------------------------------------------------------
	    11    -207.46106470   -3.52e-06      7.37e-05 *    7.37e-05 o    2.53e-03      2.53e-03 o  ~
	----------------------------------------------------------------------------------------------

Next Geometry in Ang 
	Fragment 1 (Ang)

	   Li   0.0000000000   0.0000000000   1.9488632924
	   Mg   0.0000000000   0.0000000000  -0.5705471350


    Structure for next step:
    Molecular point group: c2v
    Full point group: C_inf_v

    Geometry (in Angstrom), charge = 0, multiplicity = 4:

    LI           0.000000000000     0.000000000000     1.949229901482
    MG           0.000000000000     0.000000000000    -0.570180525858


Scratch directory: /tmp/
gradient() will perform analytic gradient computation.
   => Libint2 <=

    Primary   basis highest AM E, G, H:  6, 6, 3
    Auxiliary basis highest AM E, G, H:  7, 7, 4
    Onebody   basis highest AM E, G, H:  -, -, -
    Solid Harmonics ordering:            Gaussian

*** tstart() called on Joses-MacBook-Pro-2.local
*** at Wed Jul 16 18:33:21 2025

   => Loading Basis Set <=

    Name: CC-PVDZ
    Role: ORBITAL
    Keyword: BASIS
    atoms 1 entry LI         line    42 file /Users/joseantoniorodriguesromero/anaconda3/share/psi4/basis/cc-pvdz.gbs 
    atoms 2 entry MG         line   353 file /Users/joseantoniorodriguesromero/anaconda3/share/psi4/basis/cc-pvdz.gbs 


         ---------------------------------------------------------
                                   SCF
               by Justin Turney, Rob Parrish, Andy Simmonett
                          and Daniel G. A. Smith
                              UKS Reference
                        1 Threads,    500 MiB Core
         ---------------------------------------------------------

  ==> Geometry <==

    Molecular point group: c2v
    Full point group: C_inf_v

    Geometry (in Angstrom), charge = 0, multiplicity = 4:

       Center              X                  Y                   Z               Mass       
    ------------   -----------------  -----------------  -----------------  -----------------
         LI           0.000000000000     0.000000000000     1.949229901482     7.016003436600
         MG           0.000000000000     0.000000000000    -0.570180525858    23.985041697000

  Running in c2v symmetry.

  Rotational constants: A = ************  B =      0.48927  C =      0.48927 [cm^-1]
  Rotational constants: A = ************  B =  14667.81484  C =  14667.81484 [MHz]
  Nuclear repulsion =    7.561443493839525

  Charge       = 0
  Multiplicity = 4
  Electrons    = 15
  Nalpha       = 9
  Nbeta        = 6

  ==> Algorithm <==

  SCF Algorithm Type is DF.
  DIIS enabled.
  MOM disabled.
  Fractional occupation disabled.
  Guess Type is READ.
  Energy threshold   = 1.00e-08
  Density threshold  = 1.00e-08
  Integral threshold = 1.00e-12

  ==> Primary Basis <==

  Basis Set: CC-PVDZ
    Blend: CC-PVDZ
    Number of shells: 14
    Number of basis functions: 32
    Number of Cartesian functions: 34
    Spherical Harmonics?: true
    Max angular momentum: 2

  ==> DFT Potential <==

   => LibXC <=

    Version 6.2.2
    S. Lehtola, C. Steigemann, M. J.T. Oliveira, and M. A.L. Marques.,  SoftwareX 7, 1–5 (2018) (10.1016/j.softx.2017.11.002)

   => Composite Functional: B3LYP <= 

    B3LYP Hyb-GGA Exchange-Correlation Functional

    P. J. Stephens, F. J. Devlin, C. F. Chabalowski, and M. J. Frisch.,  J. Phys. Chem. 98, 11623 (1994) (10.1021/j100096a001)

    Deriv               =              1
    GGA                 =           TRUE
    Meta                =          FALSE

    Exchange Hybrid     =           TRUE
    MP2 Hybrid          =          FALSE

   => Exchange Functionals <=

    0.0800   Slater exchange
    0.7200         Becke 88

   => Exact (HF) Exchange <=

    0.2000               HF 

   => Correlation Functionals <=

    0.1900   Vosko, Wilk & Nusair (VWN5_RPA)
    0.8100   Lee, Yang & Parr

   => LibXC Density Thresholds  <==

    XC_HYB_GGA_XC_B3LYP:  1.00E-15 

   => Molecular Quadrature <=

    Radial Scheme          =       TREUTLER
    Pruning Scheme         =           NONE
    Nuclear Scheme         =       TREUTLER

    Blocking Scheme        =         OCTREE
    BS radius alpha        =              1
    Pruning alpha          =              1
    Radial Points          =             75
    Spherical Points       =            302
    Total Points           =          43823
    Total Blocks           =            451
    Max Points             =            254
    Max Functions          =             32
    Weights Tolerance      =       1.00E-15

   => Loading Basis Set <=

    Name: (CC-PVDZ AUX)
    Role: JKFIT
    Keyword: DF_BASIS_SCF
    atoms 1 entry LI         line    54 file /Users/joseantoniorodriguesromero/anaconda3/share/psi4/basis/def2-universal-jkfit.gbs 
    atoms 2 entry MG         line   576 file /Users/joseantoniorodriguesromero/anaconda3/share/psi4/basis/def2-universal-jkfit.gbs 

   => Loading Basis Set <=

    Name: CC-PVDZ
    Role: ORBITAL
    Keyword: BASIS
    atoms 1 entry LI         line    42 file /Users/joseantoniorodriguesromero/anaconda3/share/psi4/basis/cc-pvdz.gbs 
    atoms 2 entry MG         line   353 file /Users/joseantoniorodriguesromero/anaconda3/share/psi4/basis/cc-pvdz.gbs 

  Reading orbitals from file /tmp/quartet_LiMg.default.68345.180.npy, no projection.

  ==> Integral Setup <==

  DFHelper Memory: AOs need 0.002 GiB; user supplied 0.325 GiB. 
  Using in-core AOs.

  ==> MemDFJK: Density-Fitted J/K Matrices <==

    J tasked:                   Yes
    K tasked:                   Yes
    wK tasked:                   No
    OpenMP threads:               1
    Memory [MiB]:               333
    Algorithm:                 Core
    Schwarz Cutoff:           1E-12
    Mask sparsity (%):       0.0000
    Fitting Condition:        1E-10

   => Auxiliary Basis Set <=

  Basis Set: (CC-PVDZ AUX)
    Blend: DEF2-UNIVERSAL-JKFIT
    Number of shells: 51
    Number of basis functions: 163
    Number of Cartesian functions: 197
    Spherical Harmonics?: true
    Max angular momentum: 4

  Cached 100.0% of DFT collocation blocks in 0.041 [GiB].

  Minimum eigenvalue in the overlap matrix is 6.0753730731E-03.
  Reciprocal condition number of the overlap matrix is 1.5934093815E-03.
    Using symmetric orthogonalization.

  ==> Pre-Iterations <==

  SCF Guess: Orbitals guess was supplied from a previous computation.

   -------------------------------------------------------
    Irrep   Nso     Nmo     Nalpha   Nbeta   Ndocc  Nsocc
   -------------------------------------------------------
     A1        16      16       5       4       4       1
     A2         2       2       0       0       0       0
     B1         7       7       2       1       1       1
     B2         7       7       2       1       1       1
   -------------------------------------------------------
    Total      32      32       9       6       6       3
   -------------------------------------------------------

  ==> Iterations <==

                           Total Energy        Delta E     RMS |[F,P]|

   @DF-UKS iter   0:  -207.46102144404699   -2.07461e+02   2.53043e-05 
   @DF-UKS iter   1:  -207.46106479432876   -4.33503e-05   2.63503e-06 DIIS
   @DF-UKS iter   2:  -207.46106480111058   -6.78182e-09   1.60067e-06 DIIS/DAMP=1%
   @DF-UKS iter   3:  -207.46106336046142    1.44065e-06   2.22191e-07 DIIS/DAMP=1%
   @DF-UKS iter   4:  -207.46106478550087   -1.42504e-06   5.20199e-08 DIIS/DAMP=1%
   @DF-UKS iter   5:  -207.46106478885383   -3.35297e-09   5.93009e-09 DIIS/DAMP=1%
  Energy and wave function converged.


  ==> Post-Iterations <==

   Electrons on quadrature grid:
      Nalpha   =    9.0000006131 ; deviation = 6.131e-07
      Nbeta    =    6.0000005821 ; deviation = 5.821e-07
      Ntotal   =   15.0000011952 ; deviation = 1.195e-06 

   @Spin Contamination Metric:   3.807434759E-06
   @S^2 Expected:                3.750000000E+00
   @S^2 Observed:                3.750003807E+00
   @S   Expected:                1.500000000E+00
   @S   Observed:                1.500000000E+00

    Orbital Energies [Eh]
    ---------------------

    Alpha Occupied:                                                       

       1A1   -46.869615     2A1    -3.150144     3A1    -2.067756  
       4A1    -1.895676     1B2    -1.892624     1B1    -1.892624  
       5A1    -0.261227     2B2    -0.114493     2B1    -0.114493  

    Alpha Virtual:                                                        

       6A1    -0.097581     7A1    -0.043039     3B1    -0.006469  
       3B2    -0.006469     8A1     0.024180     4B1     0.054848  
       4B2     0.054848     9A1     0.079922    10A1     0.098014  
       5B2     0.156387     5B1     0.156387    11A1     0.167630  
      12A1     0.188683     1A2     0.188683    13A1     0.209636  
       6B2     0.221073     6B1     0.221073    14A1     0.313285  
       2A2     0.313286    15A1     0.378697     7B1     0.444385  
       7B2     0.444385    16A1     0.697082  

    Beta Occupied:                                                        

       1A1   -46.865208     2A1    -3.143012     3A1    -2.064327  
       4A1    -1.891394     1B2    -1.885359     1B1    -1.885359  

    Beta Virtual:                                                         

       5A1    -0.141593     6A1    -0.061020     2B2    -0.017071  
       2B1    -0.017071     7A1    -0.014890     3B2     0.032225  
       3B1     0.032225     8A1     0.039976     4B1     0.076286  
       4B2     0.076286     9A1     0.082292    10A1     0.130214  
       5B2     0.193949     5B1     0.193949    11A1     0.198569  
      12A1     0.238533     1A2     0.245518    13A1     0.245525  
       6B2     0.266106     6B1     0.266106     2A2     0.375057  
      14A1     0.375067    15A1     0.408145     7B1     0.483784  
       7B2     0.483784    16A1     0.711971  

    Final Occupation by Irrep:
             A1    A2    B1    B2 
    DOCC [     4,    0,    1,    1 ]
    SOCC [     1,    0,    1,    1 ]
    NA   [     5,    0,    2,    2 ]
    NB   [     4,    0,    1,    1 ]

  @DF-UKS Final Energy:  -207.46106478885383

   => Energetics <=

    Nuclear Repulsion Energy =              7.5614434938395245
    One-Electron Energy =                -303.5002452512670743
    Two-Electron Energy =                 103.2414017800130921
    DFT Exchange-Correlation Energy =     -14.7636648114393871
    Empirical Dispersion Energy =           0.0000000000000000
    VV10 Nonlocal Energy =                  0.0000000000000000
    Total Energy =                       -207.4610647888538324

  UHF NO Occupations:
  HONO-2 :    5 A1 1.0000000
  HONO-1 :    2 B1 1.0000000
  HONO-0 :    2 B2 1.0000000
  LUNO+0 :    6 A1 0.0000009
  LUNO+1 :    7 A1 0.0000003
  LUNO+2 :    3 B2 0.0000003
  LUNO+3 :    3 B1 0.0000003


Computation Completed


Properties will be evaluated at   0.000000,   0.000000,   0.000000 [a0]

Properties computed using the SCF density matrix


 Multipole Moments:

 ------------------------------------------------------------------------------------
     Multipole            Electronic (a.u.)      Nuclear  (a.u.)        Total (a.u.)
 ------------------------------------------------------------------------------------

 L = 1.  Multiply by 2.5417464519 to convert [e a0] to [Debye]
 Dipole X            :          0.0000000            0.0000000            0.0000000
 Dipole Y            :          0.0000000            0.0000000            0.0000000
 Dipole Z            :          2.5097983           -1.8792884            0.6305098
 Magnitude           :                                                    0.6305098

 ------------------------------------------------------------------------------------

*** tstop() called on Joses-MacBook-Pro-2.local at Wed Jul 16 18:33:21 2025
Module time:
	user time   =       2.23 seconds =       0.04 minutes
	system time =       2.35 seconds =       0.04 minutes
	total time  =          0 seconds =       0.00 minutes
Total time:
	user time   =      53.34 seconds =       0.89 minutes
	system time =      59.40 seconds =       0.99 minutes
	total time  =         11 seconds =       0.18 minutes

*** tstart() called on Joses-MacBook-Pro-2.local
*** at Wed Jul 16 18:33:21 2025


         ------------------------------------------------------------
                                   SCF GRAD                          
                          Rob Parrish, Justin Turney,                
                       Andy Simmonett, and Alex Sokolov              
         ------------------------------------------------------------

  ==> Geometry <==

    Molecular point group: c2v
    Full point group: C_inf_v

    Geometry (in Angstrom), charge = 0, multiplicity = 4:

       Center              X                  Y                   Z               Mass       
    ------------   -----------------  -----------------  -----------------  -----------------
         LI           0.000000000000     0.000000000000     1.949229901482     7.016003436600
         MG           0.000000000000     0.000000000000    -0.570180525858    23.985041697000

  Nuclear repulsion =    7.561443493839525

  ==> Basis Set <==

  Basis Set: CC-PVDZ
    Blend: CC-PVDZ
    Number of shells: 14
    Number of basis functions: 32
    Number of Cartesian functions: 34
    Spherical Harmonics?: true
    Max angular momentum: 2

  ==> DFJKGrad: Density-Fitted SCF Gradients <==

    Gradient:                    1
    J tasked:                  Yes
    K tasked:                  Yes
    wK tasked:                  No
    OpenMP threads:              1
    Integrals threads:           1
    Memory [MiB]:              375
    Schwarz Cutoff:          1E-12
    Fitting Condition:       1E-10

   => Auxiliary Basis Set <=

  Basis Set: (CC-PVDZ AUX)
    Blend: DEF2-UNIVERSAL-JKFIT
    Number of shells: 51
    Number of basis functions: 163
    Number of Cartesian functions: 197
    Spherical Harmonics?: true
    Max angular momentum: 4

  ==> DFT Potential <==

   => LibXC <=

    Version 6.2.2
    S. Lehtola, C. Steigemann, M. J.T. Oliveira, and M. A.L. Marques.,  SoftwareX 7, 1–5 (2018) (10.1016/j.softx.2017.11.002)

   => Composite Functional: B3LYP <= 

    B3LYP Hyb-GGA Exchange-Correlation Functional

    P. J. Stephens, F. J. Devlin, C. F. Chabalowski, and M. J. Frisch.,  J. Phys. Chem. 98, 11623 (1994) (10.1021/j100096a001)

    Deriv               =              1
    GGA                 =           TRUE
    Meta                =          FALSE

    Exchange Hybrid     =           TRUE
    MP2 Hybrid          =          FALSE

   => Exchange Functionals <=

    0.0800   Slater exchange
    0.7200         Becke 88

   => Exact (HF) Exchange <=

    0.2000               HF 

   => Correlation Functionals <=

    0.1900   Vosko, Wilk & Nusair (VWN5_RPA)
    0.8100   Lee, Yang & Parr

   => LibXC Density Thresholds  <==

    XC_HYB_GGA_XC_B3LYP:  1.00E-15 

   => Molecular Quadrature <=

    Radial Scheme          =       TREUTLER
    Pruning Scheme         =           NONE
    Nuclear Scheme         =       TREUTLER

    Blocking Scheme        =         OCTREE
    BS radius alpha        =              1
    Pruning alpha          =              1
    Radial Points          =             75
    Spherical Points       =            302
    Total Points           =          43823
    Total Blocks           =            451
    Max Points             =            254
    Max Functions          =             32
    Weights Tolerance      =       1.00E-15


  -Total Gradient:
     Atom            X                  Y                   Z
    ------   -----------------  -----------------  -----------------
       1        0.000000000000    -0.000000000000    -0.000018629418
       2        0.000000000000     0.000000000000     0.000007429741


*** tstop() called on Joses-MacBook-Pro-2.local at Wed Jul 16 18:33:21 2025
Module time:
	user time   =       0.96 seconds =       0.02 minutes
	system time =       1.70 seconds =       0.03 minutes
	total time  =          0 seconds =       0.00 minutes
Total time:
	user time   =      54.30 seconds =       0.90 minutes
	system time =      61.11 seconds =       1.02 minutes
	total time  =         11 seconds =       0.18 minutes

    			-----------------------------------------

    			 OPTKING 3.0: for geometry optimizations 

    			     By R.A. King, Bethel University     

    			        with contributions from          

    			    A.V. Copan, J. Cayton, A. Heide      

    			-----------------------------------------

    
	                            ===> Fragment 1 <== 

	 Z (Atomic Numbers)          Masses                          Geom                  
	       3.000000             7.016003          0.00000000  0.00000000  3.68351067   
	      12.000000            23.985042          0.00000000  0.00000000 -1.07748504   

	 - Coordinate -           - BOHR/RAD -       - ANG/DEG -
	 R(1,2)           =         4.760996           2.519410


	        --- Internal Coordinate Step in ANG or DEG, aJ/ANG or AJ/DEG ---
	-------------------------------------------------------------------------------
	           Coordinate      Previous         Force          Change          New 
	           ----------      --------        ------          ------        ------
	               R(1,2)       2.51941        0.00011        0.00024       2.51965
	-------------------------------------------------------------------------------

	                                 ==> Convergence Check <==                                  
    
	Measures of convergence in internal coordinates in au.
    
	Criteria marked as inactive (o), active & met (*), and active & unmet ( ).

	----------------------------------------------------------------------------------------------
	   Step    Total Energy     Delta E     Max Force     RMS Force      Max Disp      RMS Disp   
	----------------------------------------------------------------------------------------------
	  Convergence Criteria     1.00e-06 *    3.00e-04 *             o    1.20e-03 *             o
	----------------------------------------------------------------------------------------------
	    12    -207.46106479   -9.17e-08 *    1.30e-05 *    1.30e-05 o    4.48e-04 *    4.48e-04 o  ~
	----------------------------------------------------------------------------------------------

Next Geometry in Ang 
	Fragment 1 (Ang)

	   Li   0.0000000000   0.0000000000   1.9493484642
	   Mg   0.0000000000   0.0000000000  -0.5702990886


    Final optimized geometry and variables:
    Molecular point group: c2v
    Full point group: C_inf_v

    Geometry (in Angstrom), charge = 0, multiplicity = 4:

    LI           0.000000000000     0.000000000000     1.949229901482
    MG           0.000000000000     0.000000000000    -0.570180525858


    Psi4 stopped on: Wednesday, 16 July 2025 06:33PM
    Psi4 wall time for execution: 0:00:12.03

*** Psi4 exiting successfully. Buy a developer a beer!
