
    -----------------------------------------------------------------------
          Psi4: An Open-Source Ab Initio Electronic Structure Package
                               Psi4 1.9.1 release

                         Git: Rev {} zzzzzzz 


    D. G. A. Smith, L. A. Burns, A. C. Simmonett, R. M. Parrish,
    M. C. Schieber, R. Galvelis, P. Kraus, H. Kruse, R. Di Remigio,
    A. Alenaizan, A. M. James, S. Lehtola, J. P. Misiewicz, M. Scheurer,
    R. A. Shaw, J. B. Schriber, Y. Xie, Z. L. Glick, D. A. Sirianni,
    J. S. O'Brien, J. M. Waldrop, A. Kumar, E. G. Hohenstein,
    B. P. Pritchard, B. R. Brooks, H. F. Schaefer III, A. Yu. Sokolov,
    K. Patkowski, A. E. DePrince III, U. Bozkaya, R. A. King,
    F. A. Evangelista, J. M. Turney, T. D. Crawford, C. D. Sherrill,
    J. Chem. Phys. 152(18) 184108 (2020). https://doi.org/10.1063/5.0006002

                            Additional Code Authors
    E. T. Seidl, C. L. Janssen, E. F. Valeev, M. L. Leininger,
    J. F. Gonthier, R. M. Richard, H. R. McAlexander, M. Saitow, X. Wang,
    P. Verma, M. H. Lechner, A. Jiang, S. Behnle, A. G. Heide,
    M. F. Herbst, and D. L. Poole

             Previous Authors, Complete List of Code Contributors,
                       and Citations for Specific Modules
    https://github.com/psi4/psi4/blob/master/codemeta.json
    https://github.com/psi4/psi4/graphs/contributors
    http://psicode.org/psi4manual/master/introduction.html#citing-psifour

    -----------------------------------------------------------------------


    Psi4 started on: Wednesday, 16 July 2025 06:25PM

    Process ID: 68282
    Host:       Joses-MacBook-Pro-2.local
    PSIDATADIR: /Users/joseantoniorodriguesromero/anaconda3/share/psi4
    Memory:     500.0 MiB
    Threads:    1
    
  ==> Input File <==

--------------------------------------------------------------------------
molecule { 
0 5
He   0.00000        0.60000        0.00000
S   0.00000       -0.60000        0.00000
}

set { 
basis              cc-pvdz
reference          uks
maxiter            500
geom_maxiter       500
DAMPING_PERCENTAGE 1
guess              SAP
}

optimize('b3lyp')
--------------------------------------------------------------------------

Scratch directory: /tmp/
gradient() will perform analytic gradient computation.
   => Libint2 <=

    Primary   basis highest AM E, G, H:  6, 6, 3
    Auxiliary basis highest AM E, G, H:  7, 7, 4
    Onebody   basis highest AM E, G, H:  -, -, -
    Solid Harmonics ordering:            Gaussian

*** tstart() called on Joses-MacBook-Pro-2.local
*** at Wed Jul 16 18:25:52 2025

   => Loading Basis Set <=

    Name: CC-PVDZ
    Role: ORBITAL
    Keyword: BASIS
    atoms 1 entry HE         line    32 file /Users/joseantoniorodriguesromero/anaconda3/share/psi4/basis/cc-pvdz.gbs 
    atoms 2 entry S          line   598 file /Users/joseantoniorodriguesromero/anaconda3/share/psi4/basis/cc-pvdz.gbs 


         ---------------------------------------------------------
                                   SCF
               by Justin Turney, Rob Parrish, Andy Simmonett
                          and Daniel G. A. Smith
                              UKS Reference
                        1 Threads,    500 MiB Core
         ---------------------------------------------------------

  ==> Geometry <==

    Molecular point group: c2v
    Full point group: C_inf_v

    Geometry (in Angstrom), charge = 0, multiplicity = 5:

       Center              X                  Y                   Z               Mass       
    ------------   -----------------  -----------------  -----------------  -----------------
         HE           0.000000000000     0.000000000000     1.066485965995     4.002603254130
         S            0.000000000000     0.000000000000    -0.133514034005    31.972071174400

  Running in c2v symmetry.

  Rotational constants: A = ************  B =      3.29092  C =      3.29092 [cm^-1]
  Rotational constants: A = ************  B =  98659.35327  C =  98659.35327 [MHz]
  Nuclear repulsion =   14.111392284533332

  Charge       = 0
  Multiplicity = 5
  Electrons    = 18
  Nalpha       = 11
  Nbeta        = 7

  ==> Algorithm <==

  SCF Algorithm Type is DF.
  DIIS enabled.
  MOM disabled.
  Fractional occupation disabled.
  Guess Type is SAP.
  Energy threshold   = 1.00e-08
  Density threshold  = 1.00e-08
  Integral threshold = 1.00e-12

  ==> Primary Basis <==

  Basis Set: CC-PVDZ
    Blend: CC-PVDZ
    Number of shells: 11
    Number of basis functions: 23
    Number of Cartesian functions: 24
    Spherical Harmonics?: true
    Max angular momentum: 2

  ==> DFT Potential <==

   => LibXC <=

    Version 6.2.2
    S. Lehtola, C. Steigemann, M. J.T. Oliveira, and M. A.L. Marques.,  SoftwareX 7, 1–5 (2018) (10.1016/j.softx.2017.11.002)

   => Composite Functional: B3LYP <= 

    B3LYP Hyb-GGA Exchange-Correlation Functional

    P. J. Stephens, F. J. Devlin, C. F. Chabalowski, and M. J. Frisch.,  J. Phys. Chem. 98, 11623 (1994) (10.1021/j100096a001)

    Deriv               =              1
    GGA                 =           TRUE
    Meta                =          FALSE

    Exchange Hybrid     =           TRUE
    MP2 Hybrid          =          FALSE

   => Exchange Functionals <=

    0.0800   Slater exchange
    0.7200         Becke 88

   => Exact (HF) Exchange <=

    0.2000               HF 

   => Correlation Functionals <=

    0.1900   Vosko, Wilk & Nusair (VWN5_RPA)
    0.8100   Lee, Yang & Parr

   => LibXC Density Thresholds  <==

    XC_HYB_GGA_XC_B3LYP:  1.00E-15 

   => Molecular Quadrature <=

    Radial Scheme          =       TREUTLER
    Pruning Scheme         =           NONE
    Nuclear Scheme         =       TREUTLER

    Blocking Scheme        =         OCTREE
    BS radius alpha        =              1
    Pruning alpha          =              1
    Radial Points          =             75
    Spherical Points       =            302
    Total Points           =          42308
    Total Blocks           =            375
    Max Points             =            254
    Max Functions          =             23
    Weights Tolerance      =       1.00E-15

   => Loading Basis Set <=

    Name: (CC-PVDZ AUX)
    Role: JKFIT
    Keyword: DF_BASIS_SCF
    atoms 1 entry HE         line    34 file /Users/joseantoniorodriguesromero/anaconda3/share/psi4/basis/def2-universal-jkfit.gbs 
    atoms 2 entry S          line   593 file /Users/joseantoniorodriguesromero/anaconda3/share/psi4/basis/cc-pvdz-jkfit.gbs 

  ==> Integral Setup <==

  DFHelper Memory: AOs need 0.001 GiB; user supplied 0.338 GiB. 
  Using in-core AOs.

  ==> MemDFJK: Density-Fitted J/K Matrices <==

    J tasked:                   Yes
    K tasked:                   Yes
    wK tasked:                   No
    OpenMP threads:               1
    Memory [MiB]:               346
    Algorithm:                 Core
    Schwarz Cutoff:           1E-12
    Mask sparsity (%):       0.0000
    Fitting Condition:        1E-10

   => Auxiliary Basis Set <=

  Basis Set: (CC-PVDZ AUX)
    Blend: CC-PVDZ-JKFIT + DEF2-UNIVERSAL-JKFIT
    Number of shells: 45
    Number of basis functions: 135
    Number of Cartesian functions: 155
    Spherical Harmonics?: true
    Max angular momentum: 3

  Cached 100.0% of DFT collocation blocks in 0.028 [GiB].

  Minimum eigenvalue in the overlap matrix is 5.3717720429E-02.
  Reciprocal condition number of the overlap matrix is 1.8958459069E-02.
    Using symmetric orthogonalization.

  ==> Pre-Iterations <==

  SCF Guess: Superposition of Atomic Potentials (doi:10.1021/acs.jctc.8b01089).

  ==> SAP guess <==

   => Molecular Quadrature <=

    Radial Scheme          =       TREUTLER
    Pruning Scheme         =           NONE
    Nuclear Scheme         =       TREUTLER

    Blocking Scheme        =         OCTREE
    BS radius alpha        =              1
    Pruning alpha          =              1
    Radial Points          =             75
    Spherical Points       =            302
    Total Points           =          42308
    Total Blocks           =            375
    Max Points             =            254
    Max Functions          =             23
    Weights Tolerance      =       1.00E-15

   -------------------------------------------------------
    Irrep   Nso     Nmo     Nalpha   Nbeta   Ndocc  Nsocc
   -------------------------------------------------------
     A1        12      12       7       5       5       2
     A2         1       1       0       0       0       0
     B1         5       5       2       1       1       1
     B2         5       5       2       1       1       1
   -------------------------------------------------------
    Total      23      23      11       7       7       4
   -------------------------------------------------------

  ==> Iterations <==

                           Total Energy        Delta E     RMS |[F,P]|

   @DF-UKS iter   1:  -400.19157607949438   -4.00192e+02   1.67259e-02 ADIIS/DIIS
   @DF-UKS iter   2:  -400.21686605196260   -2.52900e-02   7.26819e-03 ADIIS/DIIS/DAMP=1%
   @DF-UKS iter   3:  -400.22274118019328   -5.87513e-03   9.91547e-04 ADIIS/DIIS/DAMP=1%
   @DF-UKS iter   4:  -400.22351591124811   -7.74731e-04   1.69464e-04 ADIIS/DIIS/DAMP=1%
   @DF-UKS iter   5:  -400.22378135622699   -2.65445e-04   3.78534e-05 DIIS/DAMP=1%
   @DF-UKS iter   6:  -400.22367765460689    1.03702e-04   6.45652e-06 DIIS/DAMP=1%
   @DF-UKS iter   7:  -400.22369474171961   -1.70871e-05   1.24753e-06 DIIS/DAMP=1%
   @DF-UKS iter   8:  -400.22369135772101    3.38400e-06   1.72694e-07 DIIS/DAMP=1%
   @DF-UKS iter   9:  -400.22369170018413   -3.42463e-07   1.73592e-08 DIIS/DAMP=1%
   @DF-UKS iter  10:  -400.22369165766105    4.25231e-08   1.31919e-09 DIIS/DAMP=1%
   @DF-UKS iter  11:  -400.22369166028437   -2.62332e-09   1.61517e-10 DIIS/DAMP=1%
  Energy and wave function converged.


  ==> Post-Iterations <==

   Electrons on quadrature grid:
      Nalpha   =   11.0000005906 ; deviation = 5.906e-07
      Nbeta    =    7.0000004852 ; deviation = 4.852e-07
      Ntotal   =   18.0000010758 ; deviation = 1.076e-06 

   @Spin Contamination Metric:   1.398221225E-04
   @S^2 Expected:                6.000000000E+00
   @S^2 Observed:                6.000139822E+00
   @S   Expected:                2.000000000E+00
   @S   Observed:                2.000000000E+00

    Orbital Energies [Eh]
    ---------------------

    Alpha Occupied:                                                       

       1A1   -88.937788     2A1    -8.015723     1B1    -5.978498  
       1B2    -5.978498     3A1    -5.975225     4A1    -1.084159  
       5A1    -0.654357     2B1    -0.374271     2B2    -0.374271  
       6A1    -0.148807     7A1     0.250083  

    Alpha Virtual:                                                        

       3B2     0.418083     3B1     0.418083     8A1     0.430128  
       4B2     0.464737     4B1     0.464737     1A2     0.489951  
       9A1     0.489952    10A1     0.770635    11A1     1.238623  
       5B2     2.205664     5B1     2.205664    12A1     3.020588  

    Beta Occupied:                                                        

       1A1   -88.916461     2A1    -7.993351     1B1    -5.949968  
       1B2    -5.949968     3A1    -5.942469     4A1    -0.995495  
       5A1    -0.540947  

    Beta Virtual:                                                         

       2B2    -0.191878     2B1    -0.191878     6A1     0.028702  
       7A1     0.412322     8A1     0.478867     3B2     0.491989  
       3B1     0.491989     4B2     0.560367     4B1     0.560367  
       1A2     0.610612     9A1     0.610613    10A1     0.862113  
      11A1     1.305250     5B1     2.249593     5B2     2.249593  
      12A1     3.087811  

    Final Occupation by Irrep:
             A1    A2    B1    B2 
    DOCC [     5,    0,    1,    1 ]
    SOCC [     2,    0,    1,    1 ]
    NA   [     7,    0,    2,    2 ]
    NB   [     5,    0,    1,    1 ]

  @DF-UKS Final Energy:  -400.22369166028437

   => Energetics <=

    Nuclear Repulsion Energy =             14.1113922845333324
    One-Electron Energy =                -579.7171467648971657
    Two-Electron Energy =                 187.0212506799107928
    DFT Exchange-Correlation Energy =     -21.6391878598312815
    Empirical Dispersion Energy =           0.0000000000000000
    VV10 Nonlocal Energy =                  0.0000000000000000
    Total Energy =                       -400.2236916602843735

  UHF NO Occupations:
  HONO-2 :    7 A1 1.0000000
  HONO-1 :    2 B2 1.0000000
  HONO-0 :    2 B1 1.0000000
  LUNO+0 :    8 A1 0.0000525
  LUNO+1 :    9 A1 0.0000167
  LUNO+2 :    3 B2 0.0000003
  LUNO+3 :    3 B1 0.0000003


Computation Completed


Properties will be evaluated at   0.000000,   0.000000,   0.000000 [a0]

Properties computed using the SCF density matrix


 Multipole Moments:

 ------------------------------------------------------------------------------------
     Multipole            Electronic (a.u.)      Nuclear  (a.u.)        Total (a.u.)
 ------------------------------------------------------------------------------------

 L = 1.  Multiply by 2.5417464519 to convert [e a0] to [Debye]
 Dipole X            :          0.0000000            0.0000000            0.0000000
 Dipole Y            :          0.0000000            0.0000000            0.0000000
 Dipole Z            :          0.0699346           -0.0061465            0.0637881
 Magnitude           :                                                    0.0637881

 ------------------------------------------------------------------------------------

*** tstop() called on Joses-MacBook-Pro-2.local at Wed Jul 16 18:25:52 2025
Module time:
	user time   =       5.18 seconds =       0.09 minutes
	system time =       1.83 seconds =       0.03 minutes
	total time  =          0 seconds =       0.00 minutes
Total time:
	user time   =       5.18 seconds =       0.09 minutes
	system time =       1.83 seconds =       0.03 minutes
	total time  =          0 seconds =       0.00 minutes

*** tstart() called on Joses-MacBook-Pro-2.local
*** at Wed Jul 16 18:25:52 2025


         ------------------------------------------------------------
                                   SCF GRAD                          
                          Rob Parrish, Justin Turney,                
                       Andy Simmonett, and Alex Sokolov              
         ------------------------------------------------------------

  ==> Geometry <==

    Molecular point group: c2v
    Full point group: C_inf_v

    Geometry (in Angstrom), charge = 0, multiplicity = 5:

       Center              X                  Y                   Z               Mass       
    ------------   -----------------  -----------------  -----------------  -----------------
         HE           0.000000000000     0.000000000000     1.066485965995     4.002603254130
         S            0.000000000000     0.000000000000    -0.133514034005    31.972071174400

  Nuclear repulsion =   14.111392284533332

  ==> Basis Set <==

  Basis Set: CC-PVDZ
    Blend: CC-PVDZ
    Number of shells: 11
    Number of basis functions: 23
    Number of Cartesian functions: 24
    Spherical Harmonics?: true
    Max angular momentum: 2

  ==> DFJKGrad: Density-Fitted SCF Gradients <==

    Gradient:                    1
    J tasked:                  Yes
    K tasked:                  Yes
    wK tasked:                  No
    OpenMP threads:              1
    Integrals threads:           1
    Memory [MiB]:              375
    Schwarz Cutoff:          1E-12
    Fitting Condition:       1E-10

   => Auxiliary Basis Set <=

  Basis Set: (CC-PVDZ AUX)
    Blend: CC-PVDZ-JKFIT + DEF2-UNIVERSAL-JKFIT
    Number of shells: 45
    Number of basis functions: 135
    Number of Cartesian functions: 155
    Spherical Harmonics?: true
    Max angular momentum: 3

  ==> DFT Potential <==

   => LibXC <=

    Version 6.2.2
    S. Lehtola, C. Steigemann, M. J.T. Oliveira, and M. A.L. Marques.,  SoftwareX 7, 1–5 (2018) (10.1016/j.softx.2017.11.002)

   => Composite Functional: B3LYP <= 

    B3LYP Hyb-GGA Exchange-Correlation Functional

    P. J. Stephens, F. J. Devlin, C. F. Chabalowski, and M. J. Frisch.,  J. Phys. Chem. 98, 11623 (1994) (10.1021/j100096a001)

    Deriv               =              1
    GGA                 =           TRUE
    Meta                =          FALSE

    Exchange Hybrid     =           TRUE
    MP2 Hybrid          =          FALSE

   => Exchange Functionals <=

    0.0800   Slater exchange
    0.7200         Becke 88

   => Exact (HF) Exchange <=

    0.2000               HF 

   => Correlation Functionals <=

    0.1900   Vosko, Wilk & Nusair (VWN5_RPA)
    0.8100   Lee, Yang & Parr

   => LibXC Density Thresholds  <==

    XC_HYB_GGA_XC_B3LYP:  1.00E-15 

   => Molecular Quadrature <=

    Radial Scheme          =       TREUTLER
    Pruning Scheme         =           NONE
    Nuclear Scheme         =       TREUTLER

    Blocking Scheme        =         OCTREE
    BS radius alpha        =              1
    Pruning alpha          =              1
    Radial Points          =             75
    Spherical Points       =            302
    Total Points           =          42308
    Total Blocks           =            375
    Max Points             =            254
    Max Functions          =             23
    Weights Tolerance      =       1.00E-15


  -Total Gradient:
     Atom            X                  Y                   Z
    ------   -----------------  -----------------  -----------------
       1       -0.000000000000    -0.000000000000    -0.393456270035
       2        0.000000000000    -0.000000000000     0.393465211183


*** tstop() called on Joses-MacBook-Pro-2.local at Wed Jul 16 18:25:52 2025
Module time:
	user time   =       0.59 seconds =       0.01 minutes
	system time =       1.12 seconds =       0.02 minutes
	total time  =          0 seconds =       0.00 minutes
Total time:
	user time   =       5.77 seconds =       0.10 minutes
	system time =       2.95 seconds =       0.05 minutes
	total time  =          0 seconds =       0.00 minutes

    			-----------------------------------------

    			 OPTKING 3.0: for geometry optimizations 

    			     By R.A. King, Bethel University     

    			        with contributions from          

    			    A.V. Copan, J. Cayton, A. Heide      

    			-----------------------------------------

    
	                            ===> Fragment 1 <== 

	 Z (Atomic Numbers)          Masses                          Geom                  
	       2.000000             4.002603          0.00000000  0.00000000  2.01536639   
	      16.000000            31.972071          0.00000000  0.00000000 -0.25230496   

	 - Coordinate -           - BOHR/RAD -       - ANG/DEG -
	 R(1,2)           =         2.267671           1.200000


	        --- Internal Coordinate Step in ANG or DEG, aJ/ANG or AJ/DEG ---
	-------------------------------------------------------------------------------
	           Coordinate      Previous         Force          Change          New 
	           ----------      --------        ------          ------        ------
	               R(1,2)       1.20000        3.24161        0.26459       1.46459
	-------------------------------------------------------------------------------

	                                 ==> Convergence Check <==                                  
    
	Measures of convergence in internal coordinates in au.
    
	Criteria marked as inactive (o), active & met (*), and active & unmet ( ).

	----------------------------------------------------------------------------------------------
	   Step    Total Energy     Delta E     Max Force     RMS Force      Max Disp      RMS Disp   
	----------------------------------------------------------------------------------------------
	  Convergence Criteria     1.00e-06 *    3.00e-04 *             o    1.20e-03 *             o
	----------------------------------------------------------------------------------------------
	     1    -400.22369166   -4.00e+02      3.93e-01      3.93e-01 o    5.00e-01      5.00e-01 o  ~
	----------------------------------------------------------------------------------------------

Next Geometry in Ang 
	Fragment 1 (Ang)

	   He   0.0000000000   0.0000000000   1.1987822013
	    S   0.0000000000   0.0000000000  -0.2658102693


    Structure for next step:
    Molecular point group: c2v
    Full point group: C_inf_v

    Geometry (in Angstrom), charge = 0, multiplicity = 5:

    HE           0.000000000000     0.000000000000     1.301639429841
    S            0.000000000000     0.000000000000    -0.162953040770


Scratch directory: /tmp/
gradient() will perform analytic gradient computation.
   => Libint2 <=

    Primary   basis highest AM E, G, H:  6, 6, 3
    Auxiliary basis highest AM E, G, H:  7, 7, 4
    Onebody   basis highest AM E, G, H:  -, -, -
    Solid Harmonics ordering:            Gaussian

*** tstart() called on Joses-MacBook-Pro-2.local
*** at Wed Jul 16 18:25:52 2025

   => Loading Basis Set <=

    Name: CC-PVDZ
    Role: ORBITAL
    Keyword: BASIS
    atoms 1 entry HE         line    32 file /Users/joseantoniorodriguesromero/anaconda3/share/psi4/basis/cc-pvdz.gbs 
    atoms 2 entry S          line   598 file /Users/joseantoniorodriguesromero/anaconda3/share/psi4/basis/cc-pvdz.gbs 


         ---------------------------------------------------------
                                   SCF
               by Justin Turney, Rob Parrish, Andy Simmonett
                          and Daniel G. A. Smith
                              UKS Reference
                        1 Threads,    500 MiB Core
         ---------------------------------------------------------

  ==> Geometry <==

    Molecular point group: c2v
    Full point group: C_inf_v

    Geometry (in Angstrom), charge = 0, multiplicity = 5:

       Center              X                  Y                   Z               Mass       
    ------------   -----------------  -----------------  -----------------  -----------------
         HE           0.000000000000     0.000000000000     1.301639429841     4.002603254130
         S            0.000000000000     0.000000000000    -0.162953040770    31.972071174400

  Running in c2v symmetry.

  Rotational constants: A = ************  B =      2.20926  C =      2.20926 [cm^-1]
  Rotational constants: A = ************  B =  66231.89211  C =  66231.89211 [MHz]
  Nuclear repulsion =   11.562035911855221

  Charge       = 0
  Multiplicity = 5
  Electrons    = 18
  Nalpha       = 11
  Nbeta        = 7

  ==> Algorithm <==

  SCF Algorithm Type is DF.
  DIIS enabled.
  MOM disabled.
  Fractional occupation disabled.
  Guess Type is READ.
  Energy threshold   = 1.00e-08
  Density threshold  = 1.00e-08
  Integral threshold = 1.00e-12

  ==> Primary Basis <==

  Basis Set: CC-PVDZ
    Blend: CC-PVDZ
    Number of shells: 11
    Number of basis functions: 23
    Number of Cartesian functions: 24
    Spherical Harmonics?: true
    Max angular momentum: 2

  ==> DFT Potential <==

   => LibXC <=

    Version 6.2.2
    S. Lehtola, C. Steigemann, M. J.T. Oliveira, and M. A.L. Marques.,  SoftwareX 7, 1–5 (2018) (10.1016/j.softx.2017.11.002)

   => Composite Functional: B3LYP <= 

    B3LYP Hyb-GGA Exchange-Correlation Functional

    P. J. Stephens, F. J. Devlin, C. F. Chabalowski, and M. J. Frisch.,  J. Phys. Chem. 98, 11623 (1994) (10.1021/j100096a001)

    Deriv               =              1
    GGA                 =           TRUE
    Meta                =          FALSE

    Exchange Hybrid     =           TRUE
    MP2 Hybrid          =          FALSE

   => Exchange Functionals <=

    0.0800   Slater exchange
    0.7200         Becke 88

   => Exact (HF) Exchange <=

    0.2000               HF 

   => Correlation Functionals <=

    0.1900   Vosko, Wilk & Nusair (VWN5_RPA)
    0.8100   Lee, Yang & Parr

   => LibXC Density Thresholds  <==

    XC_HYB_GGA_XC_B3LYP:  1.00E-15 

   => Molecular Quadrature <=

    Radial Scheme          =       TREUTLER
    Pruning Scheme         =           NONE
    Nuclear Scheme         =       TREUTLER

    Blocking Scheme        =         OCTREE
    BS radius alpha        =              1
    Pruning alpha          =              1
    Radial Points          =             75
    Spherical Points       =            302
    Total Points           =          42350
    Total Blocks           =            376
    Max Points             =            256
    Max Functions          =             23
    Weights Tolerance      =       1.00E-15

   => Loading Basis Set <=

    Name: (CC-PVDZ AUX)
    Role: JKFIT
    Keyword: DF_BASIS_SCF
    atoms 1 entry HE         line    34 file /Users/joseantoniorodriguesromero/anaconda3/share/psi4/basis/def2-universal-jkfit.gbs 
    atoms 2 entry S          line   593 file /Users/joseantoniorodriguesromero/anaconda3/share/psi4/basis/cc-pvdz-jkfit.gbs 

   => Loading Basis Set <=

    Name: CC-PVDZ
    Role: ORBITAL
    Keyword: BASIS
    atoms 1 entry HE         line    32 file /Users/joseantoniorodriguesromero/anaconda3/share/psi4/basis/cc-pvdz.gbs 
    atoms 2 entry S          line   598 file /Users/joseantoniorodriguesromero/anaconda3/share/psi4/basis/cc-pvdz.gbs 

  Reading orbitals from file /tmp/quintet_HeS.default.68282.180.npy, no projection.

  ==> Integral Setup <==

  DFHelper Memory: AOs need 0.001 GiB; user supplied 0.338 GiB. 
  Using in-core AOs.

  ==> MemDFJK: Density-Fitted J/K Matrices <==

    J tasked:                   Yes
    K tasked:                   Yes
    wK tasked:                   No
    OpenMP threads:               1
    Memory [MiB]:               345
    Algorithm:                 Core
    Schwarz Cutoff:           1E-12
    Mask sparsity (%):       0.0000
    Fitting Condition:        1E-10

   => Auxiliary Basis Set <=

  Basis Set: (CC-PVDZ AUX)
    Blend: CC-PVDZ-JKFIT + DEF2-UNIVERSAL-JKFIT
    Number of shells: 45
    Number of basis functions: 135
    Number of Cartesian functions: 155
    Spherical Harmonics?: true
    Max angular momentum: 3

  Cached 100.0% of DFT collocation blocks in 0.028 [GiB].

  Minimum eigenvalue in the overlap matrix is 7.1656220448E-02.
  Reciprocal condition number of the overlap matrix is 2.7773405723E-02.
    Using symmetric orthogonalization.

  ==> Pre-Iterations <==

  SCF Guess: Orbitals guess was supplied from a previous computation.

   -------------------------------------------------------
    Irrep   Nso     Nmo     Nalpha   Nbeta   Ndocc  Nsocc
   -------------------------------------------------------
     A1        12      12       7       5       5       2
     A2         1       1       0       0       0       0
     B1         5       5       2       1       1       1
     B2         5       5       2       1       1       1
   -------------------------------------------------------
    Total      23      23      11       7       7       4
   -------------------------------------------------------

  ==> Iterations <==

                           Total Energy        Delta E     RMS |[F,P]|

   @DF-UKS iter   0:  -400.39127171079906   -4.00391e+02   7.20146e-02 
   @DF-UKS iter   1:  -400.33704120880685    5.42305e-02   3.58874e-03 ADIIS/DIIS
   @DF-UKS iter   2:  -400.33954796726300   -2.50676e-03   1.32097e-03 ADIIS/DIIS/DAMP=1%
   @DF-UKS iter   3:  -400.34067725655137   -1.12929e-03   3.05696e-04 ADIIS/DIIS/DAMP=1%
   @DF-UKS iter   4:  -400.33974230527042    9.34951e-04   7.57253e-05 DIIS/DAMP=1%
   @DF-UKS iter   5:  -400.33982275765402   -8.04524e-05   2.02081e-05 DIIS/DAMP=1%
   @DF-UKS iter   6:  -400.33983270262542   -9.94497e-06   8.30251e-06 DIIS/DAMP=1%
   @DF-UKS iter   7:  -400.33983138222902    1.32040e-06   2.17419e-06 DIIS/DAMP=1%
   @DF-UKS iter   8:  -400.33983268370866   -1.30148e-06   6.06443e-07 DIIS/DAMP=1%
   @DF-UKS iter   9:  -400.33983247342468    2.10284e-07   3.23497e-08 DIIS/DAMP=1%
   @DF-UKS iter  10:  -400.33983253432575   -6.09011e-08   4.51756e-09 DIIS/DAMP=1%
   @DF-UKS iter  11:  -400.33983254294941   -8.62366e-09   4.30115e-10 DIIS/DAMP=1%
  Energy and wave function converged.


  ==> Post-Iterations <==

   Electrons on quadrature grid:
      Nalpha   =   10.9999988560 ; deviation = -1.144e-06
      Nbeta    =    6.9999990172 ; deviation = -9.828e-07
      Ntotal   =   17.9999978732 ; deviation = -2.127e-06 

   @Spin Contamination Metric:   1.752495456E-04
   @S^2 Expected:                6.000000000E+00
   @S^2 Observed:                6.000175250E+00
   @S   Expected:                2.000000000E+00
   @S   Observed:                2.000000000E+00

    Orbital Energies [Eh]
    ---------------------

    Alpha Occupied:                                                       

       1A1   -88.931109     2A1    -7.999787     1B1    -5.964926  
       1B2    -5.964926     3A1    -5.958076     4A1    -0.908246  
       5A1    -0.668092     2B1    -0.355908     2B2    -0.355908  
       6A1    -0.236134     7A1     0.307304  

    Alpha Virtual:                                                        

       8A1     0.426810     3B2     0.431186     3B1     0.431186  
       4B1     0.497074     4B2     0.497074     1A2     0.504020  
       9A1     0.504021    10A1     0.704906    11A1     1.201294  
       5B1     2.173318     5B2     2.173318    12A1     2.693676  

    Beta Occupied:                                                        

       1A1   -88.909874     2A1    -7.977982     1B2    -5.937145  
       1B1    -5.937145     3A1    -5.922012     4A1    -0.825048  
       5A1    -0.555113  

    Beta Virtual:                                                         

       2B1    -0.175647     2B2    -0.175647     6A1    -0.046174  
       7A1     0.477023     8A1     0.492460     3B1     0.498955  
       3B2     0.498955     4B2     0.609021     4B1     0.609021  
       9A1     0.623852     1A2     0.623853    10A1     0.804115  
      11A1     1.234768     5B1     2.199158     5B2     2.199158  
      12A1     2.741809  

    Final Occupation by Irrep:
             A1    A2    B1    B2 
    DOCC [     5,    0,    1,    1 ]
    SOCC [     2,    0,    1,    1 ]
    NA   [     7,    0,    2,    2 ]
    NB   [     5,    0,    1,    1 ]

  @DF-UKS Final Energy:  -400.33983254294941

   => Energetics <=

    Nuclear Repulsion Energy =             11.5620359118552205
    One-Electron Energy =                -575.3359017672107711
    Two-Electron Energy =                 185.0354535992330511
    DFT Exchange-Correlation Energy =     -21.6014202868269187
    Empirical Dispersion Energy =           0.0000000000000000
    VV10 Nonlocal Energy =                  0.0000000000000000
    Total Energy =                       -400.3398325429494093

  UHF NO Occupations:
  HONO-2 :    2 B2 1.0000000
  HONO-1 :    2 B1 1.0000000
  HONO-0 :    7 A1 1.0000000
  LUNO+0 :    8 A1 0.0000650
  LUNO+1 :    9 A1 0.0000221
  LUNO+2 :   10 A1 0.0000002
  LUNO+3 :    3 B2 0.0000002


Computation Completed


Properties will be evaluated at   0.000000,   0.000000,   0.000000 [a0]

Properties computed using the SCF density matrix


 Multipole Moments:

 ------------------------------------------------------------------------------------
     Multipole            Electronic (a.u.)      Nuclear  (a.u.)        Total (a.u.)
 ------------------------------------------------------------------------------------

 L = 1.  Multiply by 2.5417464519 to convert [e a0] to [Debye]
 Dipole X            :          0.0000000            0.0000000            0.0000000
 Dipole Y            :          0.0000000            0.0000000            0.0000000
 Dipole Z            :          0.1267210           -0.0075018            0.1192191
 Magnitude           :                                                    0.1192191

 ------------------------------------------------------------------------------------

*** tstop() called on Joses-MacBook-Pro-2.local at Wed Jul 16 18:25:53 2025
Module time:
	user time   =       4.10 seconds =       0.07 minutes
	system time =       3.24 seconds =       0.05 minutes
	total time  =          1 seconds =       0.02 minutes
Total time:
	user time   =       9.91 seconds =       0.17 minutes
	system time =       6.40 seconds =       0.11 minutes
	total time  =          1 seconds =       0.02 minutes

*** tstart() called on Joses-MacBook-Pro-2.local
*** at Wed Jul 16 18:25:53 2025


         ------------------------------------------------------------
                                   SCF GRAD                          
                          Rob Parrish, Justin Turney,                
                       Andy Simmonett, and Alex Sokolov              
         ------------------------------------------------------------

  ==> Geometry <==

    Molecular point group: c2v
    Full point group: C_inf_v

    Geometry (in Angstrom), charge = 0, multiplicity = 5:

       Center              X                  Y                   Z               Mass       
    ------------   -----------------  -----------------  -----------------  -----------------
         HE           0.000000000000     0.000000000000     1.301639429841     4.002603254130
         S            0.000000000000     0.000000000000    -0.162953040770    31.972071174400

  Nuclear repulsion =   11.562035911855221

  ==> Basis Set <==

  Basis Set: CC-PVDZ
    Blend: CC-PVDZ
    Number of shells: 11
    Number of basis functions: 23
    Number of Cartesian functions: 24
    Spherical Harmonics?: true
    Max angular momentum: 2

  ==> DFJKGrad: Density-Fitted SCF Gradients <==

    Gradient:                    1
    J tasked:                  Yes
    K tasked:                  Yes
    wK tasked:                  No
    OpenMP threads:              1
    Integrals threads:           1
    Memory [MiB]:              375
    Schwarz Cutoff:          1E-12
    Fitting Condition:       1E-10

   => Auxiliary Basis Set <=

  Basis Set: (CC-PVDZ AUX)
    Blend: CC-PVDZ-JKFIT + DEF2-UNIVERSAL-JKFIT
    Number of shells: 45
    Number of basis functions: 135
    Number of Cartesian functions: 155
    Spherical Harmonics?: true
    Max angular momentum: 3

  ==> DFT Potential <==

   => LibXC <=

    Version 6.2.2
    S. Lehtola, C. Steigemann, M. J.T. Oliveira, and M. A.L. Marques.,  SoftwareX 7, 1–5 (2018) (10.1016/j.softx.2017.11.002)

   => Composite Functional: B3LYP <= 

    B3LYP Hyb-GGA Exchange-Correlation Functional

    P. J. Stephens, F. J. Devlin, C. F. Chabalowski, and M. J. Frisch.,  J. Phys. Chem. 98, 11623 (1994) (10.1021/j100096a001)

    Deriv               =              1
    GGA                 =           TRUE
    Meta                =          FALSE

    Exchange Hybrid     =           TRUE
    MP2 Hybrid          =          FALSE

   => Exchange Functionals <=

    0.0800   Slater exchange
    0.7200         Becke 88

   => Exact (HF) Exchange <=

    0.2000               HF 

   => Correlation Functionals <=

    0.1900   Vosko, Wilk & Nusair (VWN5_RPA)
    0.8100   Lee, Yang & Parr

   => LibXC Density Thresholds  <==

    XC_HYB_GGA_XC_B3LYP:  1.00E-15 

   => Molecular Quadrature <=

    Radial Scheme          =       TREUTLER
    Pruning Scheme         =           NONE
    Nuclear Scheme         =       TREUTLER

    Blocking Scheme        =         OCTREE
    BS radius alpha        =              1
    Pruning alpha          =              1
    Radial Points          =             75
    Spherical Points       =            302
    Total Points           =          42350
    Total Blocks           =            376
    Max Points             =            256
    Max Functions          =             23
    Weights Tolerance      =       1.00E-15


  -Total Gradient:
     Atom            X                  Y                   Z
    ------   -----------------  -----------------  -----------------
       1        0.000000000000    -0.000000000000    -0.121989134299
       2        0.000000000000     0.000000000000     0.121971033301


*** tstop() called on Joses-MacBook-Pro-2.local at Wed Jul 16 18:25:53 2025
Module time:
	user time   =       0.62 seconds =       0.01 minutes
	system time =       1.23 seconds =       0.02 minutes
	total time  =          0 seconds =       0.00 minutes
Total time:
	user time   =      10.54 seconds =       0.18 minutes
	system time =       7.63 seconds =       0.13 minutes
	total time  =          1 seconds =       0.02 minutes

    			-----------------------------------------

    			 OPTKING 3.0: for geometry optimizations 

    			     By R.A. King, Bethel University     

    			        with contributions from          

    			    A.V. Copan, J. Cayton, A. Heide      

    			-----------------------------------------

    
	                            ===> Fragment 1 <== 

	 Z (Atomic Numbers)          Masses                          Geom                  
	       2.000000             4.002603          0.00000000  0.00000000  2.45974204   
	      16.000000            31.972071          0.00000000  0.00000000 -0.30793662   

	 - Coordinate -           - BOHR/RAD -       - ANG/DEG -
	 R(1,2)           =         2.767679           1.464592


	        --- Internal Coordinate Step in ANG or DEG, aJ/ANG or AJ/DEG ---
	-------------------------------------------------------------------------------
	           Coordinate      Previous         Force          Change          New 
	           ----------      --------        ------          ------        ------
	               R(1,2)       1.46459        1.00496        0.11342       1.57802
	-------------------------------------------------------------------------------

	                                 ==> Convergence Check <==                                  
    
	Measures of convergence in internal coordinates in au.
    
	Criteria marked as inactive (o), active & met (*), and active & unmet ( ).

	----------------------------------------------------------------------------------------------
	   Step    Total Energy     Delta E     Max Force     RMS Force      Max Disp      RMS Disp   
	----------------------------------------------------------------------------------------------
	  Convergence Criteria     1.00e-06 *    3.00e-04 *             o    1.20e-03 *             o
	----------------------------------------------------------------------------------------------
	     2    -400.33983254   -1.16e-01      1.22e-01      1.22e-01 o    2.14e-01      2.14e-01 o  ~
	----------------------------------------------------------------------------------------------

Next Geometry in Ang 
	Fragment 1 (Ang)

	   He   0.0000000000   0.0000000000   1.3583511254
	    S   0.0000000000   0.0000000000  -0.2196647364


    Structure for next step:
    Molecular point group: c2v
    Full point group: C_inf_v

    Geometry (in Angstrom), charge = 0, multiplicity = 5:

    HE           0.000000000000     0.000000000000     1.402443142255
    S            0.000000000000     0.000000000000    -0.175572719525


Scratch directory: /tmp/
gradient() will perform analytic gradient computation.
   => Libint2 <=

    Primary   basis highest AM E, G, H:  6, 6, 3
    Auxiliary basis highest AM E, G, H:  7, 7, 4
    Onebody   basis highest AM E, G, H:  -, -, -
    Solid Harmonics ordering:            Gaussian

*** tstart() called on Joses-MacBook-Pro-2.local
*** at Wed Jul 16 18:25:53 2025

   => Loading Basis Set <=

    Name: CC-PVDZ
    Role: ORBITAL
    Keyword: BASIS
    atoms 1 entry HE         line    32 file /Users/joseantoniorodriguesromero/anaconda3/share/psi4/basis/cc-pvdz.gbs 
    atoms 2 entry S          line   598 file /Users/joseantoniorodriguesromero/anaconda3/share/psi4/basis/cc-pvdz.gbs 


         ---------------------------------------------------------
                                   SCF
               by Justin Turney, Rob Parrish, Andy Simmonett
                          and Daniel G. A. Smith
                              UKS Reference
                        1 Threads,    500 MiB Core
         ---------------------------------------------------------

  ==> Geometry <==

    Molecular point group: c2v
    Full point group: C_inf_v

    Geometry (in Angstrom), charge = 0, multiplicity = 5:

       Center              X                  Y                   Z               Mass       
    ------------   -----------------  -----------------  -----------------  -----------------
         HE           0.000000000000     0.000000000000     1.402443142255     4.002603254130
         S            0.000000000000     0.000000000000    -0.175572719525    31.972071174400

  Running in c2v symmetry.

  Rotational constants: A = ************  B =      1.90308  C =      1.90308 [cm^-1]
  Rotational constants: A = ************  B =  57052.93984  C =  57052.93984 [MHz]
  Nuclear repulsion =   10.730988928298014

  Charge       = 0
  Multiplicity = 5
  Electrons    = 18
  Nalpha       = 11
  Nbeta        = 7

  ==> Algorithm <==

  SCF Algorithm Type is DF.
  DIIS enabled.
  MOM disabled.
  Fractional occupation disabled.
  Guess Type is READ.
  Energy threshold   = 1.00e-08
  Density threshold  = 1.00e-08
  Integral threshold = 1.00e-12

  ==> Primary Basis <==

  Basis Set: CC-PVDZ
    Blend: CC-PVDZ
    Number of shells: 11
    Number of basis functions: 23
    Number of Cartesian functions: 24
    Spherical Harmonics?: true
    Max angular momentum: 2

  ==> DFT Potential <==

   => LibXC <=

    Version 6.2.2
    S. Lehtola, C. Steigemann, M. J.T. Oliveira, and M. A.L. Marques.,  SoftwareX 7, 1–5 (2018) (10.1016/j.softx.2017.11.002)

   => Composite Functional: B3LYP <= 

    B3LYP Hyb-GGA Exchange-Correlation Functional

    P. J. Stephens, F. J. Devlin, C. F. Chabalowski, and M. J. Frisch.,  J. Phys. Chem. 98, 11623 (1994) (10.1021/j100096a001)

    Deriv               =              1
    GGA                 =           TRUE
    Meta                =          FALSE

    Exchange Hybrid     =           TRUE
    MP2 Hybrid          =          FALSE

   => Exchange Functionals <=

    0.0800   Slater exchange
    0.7200         Becke 88

   => Exact (HF) Exchange <=

    0.2000               HF 

   => Correlation Functionals <=

    0.1900   Vosko, Wilk & Nusair (VWN5_RPA)
    0.8100   Lee, Yang & Parr

   => LibXC Density Thresholds  <==

    XC_HYB_GGA_XC_B3LYP:  1.00E-15 

   => Molecular Quadrature <=

    Radial Scheme          =       TREUTLER
    Pruning Scheme         =           NONE
    Nuclear Scheme         =       TREUTLER

    Blocking Scheme        =         OCTREE
    BS radius alpha        =              1
    Pruning alpha          =              1
    Radial Points          =             75
    Spherical Points       =            302
    Total Points           =          42356
    Total Blocks           =            376
    Max Points             =            256
    Max Functions          =             23
    Weights Tolerance      =       1.00E-15

   => Loading Basis Set <=

    Name: (CC-PVDZ AUX)
    Role: JKFIT
    Keyword: DF_BASIS_SCF
    atoms 1 entry HE         line    34 file /Users/joseantoniorodriguesromero/anaconda3/share/psi4/basis/def2-universal-jkfit.gbs 
    atoms 2 entry S          line   593 file /Users/joseantoniorodriguesromero/anaconda3/share/psi4/basis/cc-pvdz-jkfit.gbs 

   => Loading Basis Set <=

    Name: CC-PVDZ
    Role: ORBITAL
    Keyword: BASIS
    atoms 1 entry HE         line    32 file /Users/joseantoniorodriguesromero/anaconda3/share/psi4/basis/cc-pvdz.gbs 
    atoms 2 entry S          line   598 file /Users/joseantoniorodriguesromero/anaconda3/share/psi4/basis/cc-pvdz.gbs 

  Reading orbitals from file /tmp/quintet_HeS.default.68282.180.npy, no projection.

  ==> Integral Setup <==

  DFHelper Memory: AOs need 0.001 GiB; user supplied 0.338 GiB. 
  Using in-core AOs.

  ==> MemDFJK: Density-Fitted J/K Matrices <==

    J tasked:                   Yes
    K tasked:                   Yes
    wK tasked:                   No
    OpenMP threads:               1
    Memory [MiB]:               346
    Algorithm:                 Core
    Schwarz Cutoff:           1E-12
    Mask sparsity (%):       0.0000
    Fitting Condition:        1E-10

   => Auxiliary Basis Set <=

  Basis Set: (CC-PVDZ AUX)
    Blend: CC-PVDZ-JKFIT + DEF2-UNIVERSAL-JKFIT
    Number of shells: 45
    Number of basis functions: 135
    Number of Cartesian functions: 155
    Spherical Harmonics?: true
    Max angular momentum: 3

  Cached 100.0% of DFT collocation blocks in 0.028 [GiB].

  Minimum eigenvalue in the overlap matrix is 7.7996747621E-02.
  Reciprocal condition number of the overlap matrix is 3.1591475768E-02.
    Using symmetric orthogonalization.

  ==> Pre-Iterations <==

  SCF Guess: Orbitals guess was supplied from a previous computation.

   -------------------------------------------------------
    Irrep   Nso     Nmo     Nalpha   Nbeta   Ndocc  Nsocc
   -------------------------------------------------------
     A1        12      12       7       5       5       2
     A2         1       1       0       0       0       0
     B1         5       5       2       1       1       1
     B2         5       5       2       1       1       1
   -------------------------------------------------------
    Total      23      23      11       7       7       4
   -------------------------------------------------------

  ==> Iterations <==

                           Total Energy        Delta E     RMS |[F,P]|

   @DF-UKS iter   0:  -400.36314791928930   -4.00363e+02   1.64777e-02 
   @DF-UKS iter   1:  -400.35981606422899    3.33186e-03   1.08272e-03 ADIIS/DIIS
   @DF-UKS iter   2:  -400.36011558127143   -2.99517e-04   3.84762e-04 ADIIS/DIIS/DAMP=1%
   @DF-UKS iter   3:  -400.36031581885459   -2.00238e-04   1.37758e-04 ADIIS/DIIS/DAMP=1%
   @DF-UKS iter   4:  -400.36012115609469    1.94663e-04   3.48640e-05 DIIS/DAMP=1%
   @DF-UKS iter   5:  -400.36015643273799   -3.52766e-05   1.85497e-05 DIIS/DAMP=1%
   @DF-UKS iter   6:  -400.36016364066410   -7.20793e-06   9.48459e-06 DIIS/DAMP=1%
   @DF-UKS iter   7:  -400.36016120751424    2.43315e-06   1.18355e-06 DIIS/DAMP=1%
   @DF-UKS iter   8:  -400.36016308109402   -1.87358e-06   1.85067e-07 DIIS/DAMP=1%
   @DF-UKS iter   9:  -400.36016265635328    4.24741e-07   2.80799e-08 DIIS/DAMP=1%
   @DF-UKS iter  10:  -400.36016270339701   -4.70437e-08   5.58157e-09 DIIS/DAMP=1%
   @DF-UKS iter  11:  -400.36016270123031    2.16670e-09   5.70460e-10 DIIS/DAMP=1%
  Energy and wave function converged.


  ==> Post-Iterations <==

   Electrons on quadrature grid:
      Nalpha   =   10.9999984465 ; deviation = -1.554e-06
      Nbeta    =    6.9999986275 ; deviation = -1.373e-06
      Ntotal   =   17.9999970739 ; deviation = -2.926e-06 

   @Spin Contamination Metric:   1.776919493E-04
   @S^2 Expected:                6.000000000E+00
   @S^2 Observed:                6.000177692E+00
   @S   Expected:                2.000000000E+00
   @S   Observed:                2.000000000E+00

    Orbital Energies [Eh]
    ---------------------

    Alpha Occupied:                                                       

       1A1   -88.932704     2A1    -7.997075     1B2    -5.963007  
       1B1    -5.963007     3A1    -5.955343     4A1    -0.857832  
       5A1    -0.670967     2B1    -0.350953     2B2    -0.350953  
       6A1    -0.262114     7A1     0.328137  

    Alpha Virtual:                                                        

       8A1     0.426800     3B1     0.435013     3B2     0.435013  
       9A1     0.507633     1A2     0.507634     4B2     0.509566  
       4B1     0.509566    10A1     0.674424    11A1     1.211379  
       5B2     2.170457     5B1     2.170457    12A1     2.588564  

    Beta Occupied:                                                        

       1A1   -88.911786     2A1    -7.975692     1B2    -5.935599  
       1B1    -5.935599     3A1    -5.918779     4A1    -0.778305  
       5A1    -0.560712  

    Beta Virtual:                                                         

       2B2    -0.171013     2B1    -0.171013     6A1    -0.067130  
       7A1     0.480955     3B1     0.500991     3B2     0.500991  
       8A1     0.521680     4B2     0.625537     4B1     0.625537  
       9A1     0.627648     1A2     0.627648    10A1     0.773858  
      11A1     1.233997     5B2     2.189610     5B1     2.189610  
      12A1     2.627469  

    Final Occupation by Irrep:
             A1    A2    B1    B2 
    DOCC [     5,    0,    1,    1 ]
    SOCC [     2,    0,    1,    1 ]
    NA   [     7,    0,    2,    2 ]
    NB   [     5,    0,    1,    1 ]

  @DF-UKS Final Energy:  -400.36016270123031

   => Energetics <=

    Nuclear Repulsion Energy =             10.7309889282980144
    One-Electron Energy =                -573.8272518262032236
    Two-Electron Energy =                 184.3296297330179527
    DFT Exchange-Correlation Energy =     -21.5935295363429773
    Empirical Dispersion Energy =           0.0000000000000000
    VV10 Nonlocal Energy =                  0.0000000000000000
    Total Energy =                       -400.3601627012303084

  UHF NO Occupations:
  HONO-2 :    2 B1 1.0000000
  HONO-1 :    2 B2 1.0000000
  HONO-0 :    7 A1 1.0000000
  LUNO+0 :    8 A1 0.0000619
  LUNO+1 :    9 A1 0.0000266
  LUNO+2 :   10 A1 0.0000002
  LUNO+3 :    3 B1 0.0000001


Computation Completed


Properties will be evaluated at   0.000000,   0.000000,   0.000000 [a0]

Properties computed using the SCF density matrix


 Multipole Moments:

 ------------------------------------------------------------------------------------
     Multipole            Electronic (a.u.)      Nuclear  (a.u.)        Total (a.u.)
 ------------------------------------------------------------------------------------

 L = 1.  Multiply by 2.5417464519 to convert [e a0] to [Debye]
 Dipole X            :          0.0000000            0.0000000            0.0000000
 Dipole Y            :          0.0000000            0.0000000            0.0000000
 Dipole Z            :          0.1547403           -0.0080828            0.1466575
 Magnitude           :                                                    0.1466575

 ------------------------------------------------------------------------------------

*** tstop() called on Joses-MacBook-Pro-2.local at Wed Jul 16 18:25:54 2025
Module time:
	user time   =       4.14 seconds =       0.07 minutes
	system time =       3.09 seconds =       0.05 minutes
	total time  =          1 seconds =       0.02 minutes
Total time:
	user time   =      14.72 seconds =       0.25 minutes
	system time =      10.95 seconds =       0.18 minutes
	total time  =          2 seconds =       0.03 minutes

*** tstart() called on Joses-MacBook-Pro-2.local
*** at Wed Jul 16 18:25:54 2025


         ------------------------------------------------------------
                                   SCF GRAD                          
                          Rob Parrish, Justin Turney,                
                       Andy Simmonett, and Alex Sokolov              
         ------------------------------------------------------------

  ==> Geometry <==

    Molecular point group: c2v
    Full point group: C_inf_v

    Geometry (in Angstrom), charge = 0, multiplicity = 5:

       Center              X                  Y                   Z               Mass       
    ------------   -----------------  -----------------  -----------------  -----------------
         HE           0.000000000000     0.000000000000     1.402443142255     4.002603254130
         S            0.000000000000     0.000000000000    -0.175572719525    31.972071174400

  Nuclear repulsion =   10.730988928298014

  ==> Basis Set <==

  Basis Set: CC-PVDZ
    Blend: CC-PVDZ
    Number of shells: 11
    Number of basis functions: 23
    Number of Cartesian functions: 24
    Spherical Harmonics?: true
    Max angular momentum: 2

  ==> DFJKGrad: Density-Fitted SCF Gradients <==

    Gradient:                    1
    J tasked:                  Yes
    K tasked:                  Yes
    wK tasked:                  No
    OpenMP threads:              1
    Integrals threads:           1
    Memory [MiB]:              375
    Schwarz Cutoff:          1E-12
    Fitting Condition:       1E-10

   => Auxiliary Basis Set <=

  Basis Set: (CC-PVDZ AUX)
    Blend: CC-PVDZ-JKFIT + DEF2-UNIVERSAL-JKFIT
    Number of shells: 45
    Number of basis functions: 135
    Number of Cartesian functions: 155
    Spherical Harmonics?: true
    Max angular momentum: 3

  ==> DFT Potential <==

   => LibXC <=

    Version 6.2.2
    S. Lehtola, C. Steigemann, M. J.T. Oliveira, and M. A.L. Marques.,  SoftwareX 7, 1–5 (2018) (10.1016/j.softx.2017.11.002)

   => Composite Functional: B3LYP <= 

    B3LYP Hyb-GGA Exchange-Correlation Functional

    P. J. Stephens, F. J. Devlin, C. F. Chabalowski, and M. J. Frisch.,  J. Phys. Chem. 98, 11623 (1994) (10.1021/j100096a001)

    Deriv               =              1
    GGA                 =           TRUE
    Meta                =          FALSE

    Exchange Hybrid     =           TRUE
    MP2 Hybrid          =          FALSE

   => Exchange Functionals <=

    0.0800   Slater exchange
    0.7200         Becke 88

   => Exact (HF) Exchange <=

    0.2000               HF 

   => Correlation Functionals <=

    0.1900   Vosko, Wilk & Nusair (VWN5_RPA)
    0.8100   Lee, Yang & Parr

   => LibXC Density Thresholds  <==

    XC_HYB_GGA_XC_B3LYP:  1.00E-15 

   => Molecular Quadrature <=

    Radial Scheme          =       TREUTLER
    Pruning Scheme         =           NONE
    Nuclear Scheme         =       TREUTLER

    Blocking Scheme        =         OCTREE
    BS radius alpha        =              1
    Pruning alpha          =              1
    Radial Points          =             75
    Spherical Points       =            302
    Total Points           =          42356
    Total Blocks           =            376
    Max Points             =            256
    Max Functions          =             23
    Weights Tolerance      =       1.00E-15


  -Total Gradient:
     Atom            X                  Y                   Z
    ------   -----------------  -----------------  -----------------
       1        0.000000000000    -0.000000000000    -0.071347406831
       2        0.000000000000     0.000000000000     0.071326924700


*** tstop() called on Joses-MacBook-Pro-2.local at Wed Jul 16 18:25:54 2025
Module time:
	user time   =       0.57 seconds =       0.01 minutes
	system time =       1.18 seconds =       0.02 minutes
	total time  =          0 seconds =       0.00 minutes
Total time:
	user time   =      15.29 seconds =       0.25 minutes
	system time =      12.13 seconds =       0.20 minutes
	total time  =          2 seconds =       0.03 minutes

    			-----------------------------------------

    			 OPTKING 3.0: for geometry optimizations 

    			     By R.A. King, Bethel University     

    			        with contributions from          

    			    A.V. Copan, J. Cayton, A. Heide      

    			-----------------------------------------

    
	                            ===> Fragment 1 <== 

	 Z (Atomic Numbers)          Masses                          Geom                  
	       2.000000             4.002603          0.00000000  0.00000000  2.65023345   
	      16.000000            31.972071          0.00000000  0.00000000 -0.33178436   

	 - Coordinate -           - BOHR/RAD -       - ANG/DEG -
	 R(1,2)           =         2.982018           1.578016


	        --- Internal Coordinate Step in ANG or DEG, aJ/ANG or AJ/DEG ---
	-------------------------------------------------------------------------------
	           Coordinate      Previous         Force          Change          New 
	           ----------      --------        ------          ------        ------
	               R(1,2)       1.57802        0.58773        0.14738       1.72539
	-------------------------------------------------------------------------------

	                                 ==> Convergence Check <==                                  
    
	Measures of convergence in internal coordinates in au.
    
	Criteria marked as inactive (o), active & met (*), and active & unmet ( ).

	----------------------------------------------------------------------------------------------
	   Step    Total Energy     Delta E     Max Force     RMS Force      Max Disp      RMS Disp   
	----------------------------------------------------------------------------------------------
	  Convergence Criteria     1.00e-06 *    3.00e-04 *             o    1.20e-03 *             o
	----------------------------------------------------------------------------------------------
	     3    -400.36016270   -2.03e-02      7.13e-02      7.13e-02 o    2.79e-01      2.79e-01 o  ~
	----------------------------------------------------------------------------------------------

Next Geometry in Ang 
	Fragment 1 (Ang)

	   He   0.0000000000   0.0000000000   1.4761325928
	    S   0.0000000000   0.0000000000  -0.2492621701


    Structure for next step:
    Molecular point group: c2v
    Full point group: C_inf_v

    Geometry (in Angstrom), charge = 0, multiplicity = 5:

    HE           0.000000000000     0.000000000000     1.533424417076
    S            0.000000000000     0.000000000000    -0.191970345877


Scratch directory: /tmp/
gradient() will perform analytic gradient computation.
   => Libint2 <=

    Primary   basis highest AM E, G, H:  6, 6, 3
    Auxiliary basis highest AM E, G, H:  7, 7, 4
    Onebody   basis highest AM E, G, H:  -, -, -
    Solid Harmonics ordering:            Gaussian

*** tstart() called on Joses-MacBook-Pro-2.local
*** at Wed Jul 16 18:25:54 2025

   => Loading Basis Set <=

    Name: CC-PVDZ
    Role: ORBITAL
    Keyword: BASIS
    atoms 1 entry HE         line    32 file /Users/joseantoniorodriguesromero/anaconda3/share/psi4/basis/cc-pvdz.gbs 
    atoms 2 entry S          line   598 file /Users/joseantoniorodriguesromero/anaconda3/share/psi4/basis/cc-pvdz.gbs 


         ---------------------------------------------------------
                                   SCF
               by Justin Turney, Rob Parrish, Andy Simmonett
                          and Daniel G. A. Smith
                              UKS Reference
                        1 Threads,    500 MiB Core
         ---------------------------------------------------------

  ==> Geometry <==

    Molecular point group: c2v
    Full point group: C_inf_v

    Geometry (in Angstrom), charge = 0, multiplicity = 5:

       Center              X                  Y                   Z               Mass       
    ------------   -----------------  -----------------  -----------------  -----------------
         HE           0.000000000000     0.000000000000     1.533424417076     4.002603254130
         S            0.000000000000     0.000000000000    -0.191970345877    31.972071174400

  Running in c2v symmetry.

  Rotational constants: A = ************  B =      1.59185  C =      1.59185 [cm^-1]
  Rotational constants: A = ************  B =  47722.56799  C =  47722.56799 [MHz]
  Nuclear repulsion =    9.814374718777675

  Charge       = 0
  Multiplicity = 5
  Electrons    = 18
  Nalpha       = 11
  Nbeta        = 7

  ==> Algorithm <==

  SCF Algorithm Type is DF.
  DIIS enabled.
  MOM disabled.
  Fractional occupation disabled.
  Guess Type is READ.
  Energy threshold   = 1.00e-08
  Density threshold  = 1.00e-08
  Integral threshold = 1.00e-12

  ==> Primary Basis <==

  Basis Set: CC-PVDZ
    Blend: CC-PVDZ
    Number of shells: 11
    Number of basis functions: 23
    Number of Cartesian functions: 24
    Spherical Harmonics?: true
    Max angular momentum: 2

  ==> DFT Potential <==

   => LibXC <=

    Version 6.2.2
    S. Lehtola, C. Steigemann, M. J.T. Oliveira, and M. A.L. Marques.,  SoftwareX 7, 1–5 (2018) (10.1016/j.softx.2017.11.002)

   => Composite Functional: B3LYP <= 

    B3LYP Hyb-GGA Exchange-Correlation Functional

    P. J. Stephens, F. J. Devlin, C. F. Chabalowski, and M. J. Frisch.,  J. Phys. Chem. 98, 11623 (1994) (10.1021/j100096a001)

    Deriv               =              1
    GGA                 =           TRUE
    Meta                =          FALSE

    Exchange Hybrid     =           TRUE
    MP2 Hybrid          =          FALSE

   => Exchange Functionals <=

    0.0800   Slater exchange
    0.7200         Becke 88

   => Exact (HF) Exchange <=

    0.2000               HF 

   => Correlation Functionals <=

    0.1900   Vosko, Wilk & Nusair (VWN5_RPA)
    0.8100   Lee, Yang & Parr

   => LibXC Density Thresholds  <==

    XC_HYB_GGA_XC_B3LYP:  1.00E-15 

   => Molecular Quadrature <=

    Radial Scheme          =       TREUTLER
    Pruning Scheme         =           NONE
    Nuclear Scheme         =       TREUTLER

    Blocking Scheme        =         OCTREE
    BS radius alpha        =              1
    Pruning alpha          =              1
    Radial Points          =             75
    Spherical Points       =            302
    Total Points           =          42378
    Total Blocks           =            375
    Max Points             =            254
    Max Functions          =             23
    Weights Tolerance      =       1.00E-15

   => Loading Basis Set <=

    Name: (CC-PVDZ AUX)
    Role: JKFIT
    Keyword: DF_BASIS_SCF
    atoms 1 entry HE         line    34 file /Users/joseantoniorodriguesromero/anaconda3/share/psi4/basis/def2-universal-jkfit.gbs 
    atoms 2 entry S          line   593 file /Users/joseantoniorodriguesromero/anaconda3/share/psi4/basis/cc-pvdz-jkfit.gbs 

   => Loading Basis Set <=

    Name: CC-PVDZ
    Role: ORBITAL
    Keyword: BASIS
    atoms 1 entry HE         line    32 file /Users/joseantoniorodriguesromero/anaconda3/share/psi4/basis/cc-pvdz.gbs 
    atoms 2 entry S          line   598 file /Users/joseantoniorodriguesromero/anaconda3/share/psi4/basis/cc-pvdz.gbs 

  Reading orbitals from file /tmp/quintet_HeS.default.68282.180.npy, no projection.

  ==> Integral Setup <==

  DFHelper Memory: AOs need 0.001 GiB; user supplied 0.338 GiB. 
  Using in-core AOs.

  ==> MemDFJK: Density-Fitted J/K Matrices <==

    J tasked:                   Yes
    K tasked:                   Yes
    wK tasked:                   No
    OpenMP threads:               1
    Memory [MiB]:               346
    Algorithm:                 Core
    Schwarz Cutoff:           1E-12
    Mask sparsity (%):       0.0000
    Fitting Condition:        1E-10

   => Auxiliary Basis Set <=

  Basis Set: (CC-PVDZ AUX)
    Blend: CC-PVDZ-JKFIT + DEF2-UNIVERSAL-JKFIT
    Number of shells: 45
    Number of basis functions: 135
    Number of Cartesian functions: 155
    Spherical Harmonics?: true
    Max angular momentum: 3

  Cached 100.0% of DFT collocation blocks in 0.028 [GiB].

  Minimum eigenvalue in the overlap matrix is 8.5420598867E-02.
  Reciprocal condition number of the overlap matrix is 3.6624678598E-02.
    Using symmetric orthogonalization.

  ==> Pre-Iterations <==

  SCF Guess: Orbitals guess was supplied from a previous computation.

   -------------------------------------------------------
    Irrep   Nso     Nmo     Nalpha   Nbeta   Ndocc  Nsocc
   -------------------------------------------------------
     A1        12      12       7       5       5       2
     A2         1       1       0       0       0       0
     B1         5       5       2       1       1       1
     B2         5       5       2       1       1       1
   -------------------------------------------------------
    Total      23      23      11       7       7       4
   -------------------------------------------------------

  ==> Iterations <==

                           Total Energy        Delta E     RMS |[F,P]|

   @DF-UKS iter   0:  -400.38081816808693   -4.00381e+02   1.50359e-02 
   @DF-UKS iter   1:  -400.37315961572409    7.65855e-03   1.05166e-03 ADIIS/DIIS
   @DF-UKS iter   2:  -400.37362337695629   -4.63761e-04   4.40989e-04 ADIIS/DIIS/DAMP=1%
   @DF-UKS iter   3:  -400.37386764208293   -2.44265e-04   1.66279e-04 ADIIS/DIIS/DAMP=1%
   @DF-UKS iter   4:  -400.37371622237873    1.51420e-04   1.13439e-04 ADIIS/DIIS/DAMP=1%
   @DF-UKS iter   5:  -400.37377813596862   -6.19136e-05   9.28835e-05 DIIS/DAMP=1%
   @DF-UKS iter   6:  -400.37384375493031   -6.56190e-05   7.19283e-05 DIIS/DAMP=1%
   @DF-UKS iter   7:  -400.37385684504602   -1.30901e-05   3.77126e-05 DIIS/DAMP=1%
   @DF-UKS iter   8:  -400.37385014263299    6.70241e-06   1.21994e-05 DIIS/DAMP=1%
   @DF-UKS iter   9:  -400.37385459127961   -4.44865e-06   5.94770e-06 DIIS/DAMP=1%
   @DF-UKS iter  10:  -400.37385113073162    3.46055e-06   3.97006e-07 DIIS/DAMP=1%
   @DF-UKS iter  11:  -400.37385189955302   -7.68821e-07   4.92467e-08 DIIS/DAMP=1%
   @DF-UKS iter  12:  -400.37385191131955   -1.17665e-08   1.21842e-08 DIIS/DAMP=1%
   @DF-UKS iter  13:  -400.37385189646091    1.48586e-08   1.62376e-09 DIIS/DAMP=1%
   @DF-UKS iter  14:  -400.37385189940028   -2.93937e-09   1.47577e-10 DIIS/DAMP=1%
  Energy and wave function converged.


  ==> Post-Iterations <==

   Electrons on quadrature grid:
      Nalpha   =   10.9999992416 ; deviation = -7.584e-07
      Nbeta    =    6.9999993122 ; deviation = -6.878e-07
      Ntotal   =   17.9999985538 ; deviation = -1.446e-06 

   @Spin Contamination Metric:   2.180255398E-04
   @S^2 Expected:                6.000000000E+00
   @S^2 Observed:                6.000218026E+00
   @S   Expected:                2.000000000E+00
   @S   Observed:                2.000000000E+00

    Orbital Energies [Eh]
    ---------------------

    Alpha Occupied:                                                       

       1A1   -88.934659     2A1    -7.994743     1B1    -5.961443  
       1B2    -5.961443     3A1    -5.953912     4A1    -0.813087  
       5A1    -0.672963     2B2    -0.347257     2B1    -0.347257  
       6A1    -0.286913     7A1     0.349814  

    Alpha Virtual:                                                        

       8A1     0.428145     3B2     0.438617     3B1     0.438617  
       9A1     0.509331     1A2     0.509332     4B1     0.522188  
       4B2     0.522188    10A1     0.635362    11A1     1.225846  
       5B2     2.168674     5B1     2.168674    12A1     2.477875  

    Beta Occupied:                                                        

       1A1   -88.914248     2A1    -7.973975     1B1    -5.934520  
       1B2    -5.934520     3A1    -5.916453     4A1    -0.737331  
       5A1    -0.567291  

    Beta Virtual:                                                         

       2B2    -0.167910     2B1    -0.167910     6A1    -0.085712  
       7A1     0.487485     3B2     0.502328     3B1     0.502328  
       8A1     0.552032     9A1     0.629624     1A2     0.629624  
       4B1     0.641220     4B2     0.641220    10A1     0.733448  
      11A1     1.239841     5B1     2.181200     5B2     2.181200  
      12A1     2.505372  

    Final Occupation by Irrep:
             A1    A2    B1    B2 
    DOCC [     5,    0,    1,    1 ]
    SOCC [     2,    0,    1,    1 ]
    NA   [     7,    0,    2,    2 ]
    NB   [     5,    0,    1,    1 ]

  @DF-UKS Final Energy:  -400.37385189940028

   => Energetics <=

    Nuclear Repulsion Energy =              9.8143747187776746
    One-Electron Energy =                -572.1151837725299174
    Two-Electron Energy =                 183.5141943621853784
    DFT Exchange-Correlation Energy =     -21.5872372078334251
    Empirical Dispersion Energy =           0.0000000000000000
    VV10 Nonlocal Energy =                  0.0000000000000000
    Total Energy =                       -400.3738518994002789

  UHF NO Occupations:
  HONO-2 :    2 B2 1.0000000
  HONO-1 :    2 B1 1.0000000
  HONO-0 :    7 A1 1.0000000
  LUNO+0 :    8 A1 0.0000694
  LUNO+1 :    9 A1 0.0000393
  LUNO+2 :   10 A1 0.0000001
  LUNO+3 :    3 B1 0.0000001


Computation Completed


Properties will be evaluated at   0.000000,   0.000000,   0.000000 [a0]

Properties computed using the SCF density matrix


 Multipole Moments:

 ------------------------------------------------------------------------------------
     Multipole            Electronic (a.u.)      Nuclear  (a.u.)        Total (a.u.)
 ------------------------------------------------------------------------------------

 L = 1.  Multiply by 2.5417464519 to convert [e a0] to [Debye]
 Dipole X            :          0.0000000            0.0000000            0.0000000
 Dipole Y            :          0.0000000            0.0000000            0.0000000
 Dipole Z            :          0.3091742           -0.0088377            0.3003365
 Magnitude           :                                                    0.3003365

 ------------------------------------------------------------------------------------

*** tstop() called on Joses-MacBook-Pro-2.local at Wed Jul 16 18:25:55 2025
Module time:
	user time   =       4.89 seconds =       0.08 minutes
	system time =       3.57 seconds =       0.06 minutes
	total time  =          1 seconds =       0.02 minutes
Total time:
	user time   =      20.22 seconds =       0.34 minutes
	system time =      15.96 seconds =       0.27 minutes
	total time  =          3 seconds =       0.05 minutes

*** tstart() called on Joses-MacBook-Pro-2.local
*** at Wed Jul 16 18:25:55 2025


         ------------------------------------------------------------
                                   SCF GRAD                          
                          Rob Parrish, Justin Turney,                
                       Andy Simmonett, and Alex Sokolov              
         ------------------------------------------------------------

  ==> Geometry <==

    Molecular point group: c2v
    Full point group: C_inf_v

    Geometry (in Angstrom), charge = 0, multiplicity = 5:

       Center              X                  Y                   Z               Mass       
    ------------   -----------------  -----------------  -----------------  -----------------
         HE           0.000000000000     0.000000000000     1.533424417076     4.002603254130
         S            0.000000000000     0.000000000000    -0.191970345877    31.972071174400

  Nuclear repulsion =    9.814374718777675

  ==> Basis Set <==

  Basis Set: CC-PVDZ
    Blend: CC-PVDZ
    Number of shells: 11
    Number of basis functions: 23
    Number of Cartesian functions: 24
    Spherical Harmonics?: true
    Max angular momentum: 2

  ==> DFJKGrad: Density-Fitted SCF Gradients <==

    Gradient:                    1
    J tasked:                  Yes
    K tasked:                  Yes
    wK tasked:                  No
    OpenMP threads:              1
    Integrals threads:           1
    Memory [MiB]:              375
    Schwarz Cutoff:          1E-12
    Fitting Condition:       1E-10

   => Auxiliary Basis Set <=

  Basis Set: (CC-PVDZ AUX)
    Blend: CC-PVDZ-JKFIT + DEF2-UNIVERSAL-JKFIT
    Number of shells: 45
    Number of basis functions: 135
    Number of Cartesian functions: 155
    Spherical Harmonics?: true
    Max angular momentum: 3

  ==> DFT Potential <==

   => LibXC <=

    Version 6.2.2
    S. Lehtola, C. Steigemann, M. J.T. Oliveira, and M. A.L. Marques.,  SoftwareX 7, 1–5 (2018) (10.1016/j.softx.2017.11.002)

   => Composite Functional: B3LYP <= 

    B3LYP Hyb-GGA Exchange-Correlation Functional

    P. J. Stephens, F. J. Devlin, C. F. Chabalowski, and M. J. Frisch.,  J. Phys. Chem. 98, 11623 (1994) (10.1021/j100096a001)

    Deriv               =              1
    GGA                 =           TRUE
    Meta                =          FALSE

    Exchange Hybrid     =           TRUE
    MP2 Hybrid          =          FALSE

   => Exchange Functionals <=

    0.0800   Slater exchange
    0.7200         Becke 88

   => Exact (HF) Exchange <=

    0.2000               HF 

   => Correlation Functionals <=

    0.1900   Vosko, Wilk & Nusair (VWN5_RPA)
    0.8100   Lee, Yang & Parr

   => LibXC Density Thresholds  <==

    XC_HYB_GGA_XC_B3LYP:  1.00E-15 

   => Molecular Quadrature <=

    Radial Scheme          =       TREUTLER
    Pruning Scheme         =           NONE
    Nuclear Scheme         =       TREUTLER

    Blocking Scheme        =         OCTREE
    BS radius alpha        =              1
    Pruning alpha          =              1
    Radial Points          =             75
    Spherical Points       =            302
    Total Points           =          42378
    Total Blocks           =            375
    Max Points             =            254
    Max Functions          =             23
    Weights Tolerance      =       1.00E-15


  -Total Gradient:
     Atom            X                  Y                   Z
    ------   -----------------  -----------------  -----------------
       1       -0.000000000000     0.000000000000    -0.031246531608
       2        0.000000000000    -0.000000000000     0.031241823244


*** tstop() called on Joses-MacBook-Pro-2.local at Wed Jul 16 18:25:55 2025
Module time:
	user time   =       0.54 seconds =       0.01 minutes
	system time =       1.26 seconds =       0.02 minutes
	total time  =          0 seconds =       0.00 minutes
Total time:
	user time   =      20.76 seconds =       0.35 minutes
	system time =      17.22 seconds =       0.29 minutes
	total time  =          3 seconds =       0.05 minutes

    			-----------------------------------------

    			 OPTKING 3.0: for geometry optimizations 

    			     By R.A. King, Bethel University     

    			        with contributions from          

    			    A.V. Copan, J. Cayton, A. Heide      

    			-----------------------------------------

    
	                            ===> Fragment 1 <== 

	 Z (Atomic Numbers)          Masses                          Geom                  
	       2.000000             4.002603          0.00000000  0.00000000  2.89775218   
	      16.000000            31.972071          0.00000000  0.00000000 -0.36277138   

	 - Coordinate -           - BOHR/RAD -       - ANG/DEG -
	 R(1,2)           =         3.260524           1.725395


	        --- Internal Coordinate Step in ANG or DEG, aJ/ANG or AJ/DEG ---
	-------------------------------------------------------------------------------
	           Coordinate      Previous         Force          Change          New 
	           ----------      --------        ------          ------        ------
	               R(1,2)       1.72539        0.25741        0.08736       1.81275
	-------------------------------------------------------------------------------

	                                 ==> Convergence Check <==                                  
    
	Measures of convergence in internal coordinates in au.
    
	Criteria marked as inactive (o), active & met (*), and active & unmet ( ).

	----------------------------------------------------------------------------------------------
	   Step    Total Energy     Delta E     Max Force     RMS Force      Max Disp      RMS Disp   
	----------------------------------------------------------------------------------------------
	  Convergence Criteria     1.00e-06 *    3.00e-04 *             o    1.20e-03 *             o
	----------------------------------------------------------------------------------------------
	     4    -400.37385190   -1.37e-02      3.12e-02      3.12e-02 o    1.65e-01      1.65e-01 o  ~
	----------------------------------------------------------------------------------------------

Next Geometry in Ang 
	Fragment 1 (Ang)

	   He   0.0000000000   0.0000000000   1.5771033075
	    S   0.0000000000   0.0000000000  -0.2356492363


    Structure for next step:
    Molecular point group: c2v
    Full point group: C_inf_v

    Geometry (in Angstrom), charge = 0, multiplicity = 5:

    HE           0.000000000000     0.000000000000     1.611062623184
    S            0.000000000000     0.000000000000    -0.201689920649


Scratch directory: /tmp/
gradient() will perform analytic gradient computation.
   => Libint2 <=

    Primary   basis highest AM E, G, H:  6, 6, 3
    Auxiliary basis highest AM E, G, H:  7, 7, 4
    Onebody   basis highest AM E, G, H:  -, -, -
    Solid Harmonics ordering:            Gaussian

*** tstart() called on Joses-MacBook-Pro-2.local
*** at Wed Jul 16 18:25:55 2025

   => Loading Basis Set <=

    Name: CC-PVDZ
    Role: ORBITAL
    Keyword: BASIS
    atoms 1 entry HE         line    32 file /Users/joseantoniorodriguesromero/anaconda3/share/psi4/basis/cc-pvdz.gbs 
    atoms 2 entry S          line   598 file /Users/joseantoniorodriguesromero/anaconda3/share/psi4/basis/cc-pvdz.gbs 


         ---------------------------------------------------------
                                   SCF
               by Justin Turney, Rob Parrish, Andy Simmonett
                          and Daniel G. A. Smith
                              UKS Reference
                        1 Threads,    500 MiB Core
         ---------------------------------------------------------

  ==> Geometry <==

    Molecular point group: c2v
    Full point group: C_inf_v

    Geometry (in Angstrom), charge = 0, multiplicity = 5:

       Center              X                  Y                   Z               Mass       
    ------------   -----------------  -----------------  -----------------  -----------------
         HE           0.000000000000     0.000000000000     1.611062623184     4.002603254130
         S            0.000000000000     0.000000000000    -0.201689920649    31.972071174400

  Running in c2v symmetry.

  Rotational constants: A = ************  B =      1.44213  C =      1.44213 [cm^-1]
  Rotational constants: A = ************  B =  43233.82993  C =  43233.82993 [MHz]
  Nuclear repulsion =    9.341413310409280

  Charge       = 0
  Multiplicity = 5
  Electrons    = 18
  Nalpha       = 11
  Nbeta        = 7

  ==> Algorithm <==

  SCF Algorithm Type is DF.
  DIIS enabled.
  MOM disabled.
  Fractional occupation disabled.
  Guess Type is READ.
  Energy threshold   = 1.00e-08
  Density threshold  = 1.00e-08
  Integral threshold = 1.00e-12

  ==> Primary Basis <==

  Basis Set: CC-PVDZ
    Blend: CC-PVDZ
    Number of shells: 11
    Number of basis functions: 23
    Number of Cartesian functions: 24
    Spherical Harmonics?: true
    Max angular momentum: 2

  ==> DFT Potential <==

   => LibXC <=

    Version 6.2.2
    S. Lehtola, C. Steigemann, M. J.T. Oliveira, and M. A.L. Marques.,  SoftwareX 7, 1–5 (2018) (10.1016/j.softx.2017.11.002)

   => Composite Functional: B3LYP <= 

    B3LYP Hyb-GGA Exchange-Correlation Functional

    P. J. Stephens, F. J. Devlin, C. F. Chabalowski, and M. J. Frisch.,  J. Phys. Chem. 98, 11623 (1994) (10.1021/j100096a001)

    Deriv               =              1
    GGA                 =           TRUE
    Meta                =          FALSE

    Exchange Hybrid     =           TRUE
    MP2 Hybrid          =          FALSE

   => Exchange Functionals <=

    0.0800   Slater exchange
    0.7200         Becke 88

   => Exact (HF) Exchange <=

    0.2000               HF 

   => Correlation Functionals <=

    0.1900   Vosko, Wilk & Nusair (VWN5_RPA)
    0.8100   Lee, Yang & Parr

   => LibXC Density Thresholds  <==

    XC_HYB_GGA_XC_B3LYP:  1.00E-15 

   => Molecular Quadrature <=

    Radial Scheme          =       TREUTLER
    Pruning Scheme         =           NONE
    Nuclear Scheme         =       TREUTLER

    Blocking Scheme        =         OCTREE
    BS radius alpha        =              1
    Pruning alpha          =              1
    Radial Points          =             75
    Spherical Points       =            302
    Total Points           =          42400
    Total Blocks           =            376
    Max Points             =            256
[...]
	           ----------      --------        ------          ------        ------
	               R(1,2)       3.14322        0.00060        0.00779       3.15101
	-------------------------------------------------------------------------------

	                                 ==> Convergence Check <==                                  
    
	Measures of convergence in internal coordinates in au.
    
	Criteria marked as inactive (o), active & met (*), and active & unmet ( ).

	----------------------------------------------------------------------------------------------
	   Step    Total Energy     Delta E     Max Force     RMS Force      Max Disp      RMS Disp   
	----------------------------------------------------------------------------------------------
	  Convergence Criteria     1.00e-06 *    3.00e-04 *             o    1.20e-03 *             o
	----------------------------------------------------------------------------------------------
	    13    -400.42589135   -5.58e-06      7.28e-05 *    7.28e-05 o    1.47e-02      1.47e-02 o  ~
	----------------------------------------------------------------------------------------------

Next Geometry in Ang 
	Fragment 1 (Ang)

	   He   0.0000000000   0.0000000000   2.7973947887
	    S   0.0000000000   0.0000000000  -0.3536139727


    Structure for next step:
    Molecular point group: c2v
    Full point group: C_inf_v

    Geometry (in Angstrom), charge = 0, multiplicity = 5:

    HE           0.000000000000     0.000000000000     2.800422185633
    S            0.000000000000     0.000000000000    -0.350586575765


Scratch directory: /tmp/
gradient() will perform analytic gradient computation.
   => Libint2 <=

    Primary   basis highest AM E, G, H:  6, 6, 3
    Auxiliary basis highest AM E, G, H:  7, 7, 4
    Onebody   basis highest AM E, G, H:  -, -, -
    Solid Harmonics ordering:            Gaussian

*** tstart() called on Joses-MacBook-Pro-2.local
*** at Wed Jul 16 18:26:07 2025

   => Loading Basis Set <=

    Name: CC-PVDZ
    Role: ORBITAL
    Keyword: BASIS
    atoms 1 entry HE         line    32 file /Users/joseantoniorodriguesromero/anaconda3/share/psi4/basis/cc-pvdz.gbs 
    atoms 2 entry S          line   598 file /Users/joseantoniorodriguesromero/anaconda3/share/psi4/basis/cc-pvdz.gbs 


         ---------------------------------------------------------
                                   SCF
               by Justin Turney, Rob Parrish, Andy Simmonett
                          and Daniel G. A. Smith
                              UKS Reference
                        1 Threads,    500 MiB Core
         ---------------------------------------------------------

  ==> Geometry <==

    Molecular point group: c2v
    Full point group: C_inf_v

    Geometry (in Angstrom), charge = 0, multiplicity = 5:

       Center              X                  Y                   Z               Mass       
    ------------   -----------------  -----------------  -----------------  -----------------
         HE           0.000000000000     0.000000000000     2.800422185633     4.002603254130
         S            0.000000000000     0.000000000000    -0.350586575765    31.972071174400

  Running in c2v symmetry.

  Rotational constants: A = ************  B =      0.47729  C =      0.47729 [cm^-1]
  Rotational constants: A = ************  B =  14308.74470  C =  14308.74470 [MHz]
  Nuclear repulsion =    5.374047495166697

  Charge       = 0
  Multiplicity = 5
  Electrons    = 18
  Nalpha       = 11
  Nbeta        = 7

  ==> Algorithm <==

  SCF Algorithm Type is DF.
  DIIS enabled.
  MOM disabled.
  Fractional occupation disabled.
  Guess Type is READ.
  Energy threshold   = 1.00e-08
  Density threshold  = 1.00e-08
  Integral threshold = 1.00e-12

  ==> Primary Basis <==

  Basis Set: CC-PVDZ
    Blend: CC-PVDZ
    Number of shells: 11
    Number of basis functions: 23
    Number of Cartesian functions: 24
    Spherical Harmonics?: true
    Max angular momentum: 2

  ==> DFT Potential <==

   => LibXC <=

    Version 6.2.2
    S. Lehtola, C. Steigemann, M. J.T. Oliveira, and M. A.L. Marques.,  SoftwareX 7, 1–5 (2018) (10.1016/j.softx.2017.11.002)

   => Composite Functional: B3LYP <= 

    B3LYP Hyb-GGA Exchange-Correlation Functional

    P. J. Stephens, F. J. Devlin, C. F. Chabalowski, and M. J. Frisch.,  J. Phys. Chem. 98, 11623 (1994) (10.1021/j100096a001)

    Deriv               =              1
    GGA                 =           TRUE
    Meta                =          FALSE

    Exchange Hybrid     =           TRUE
    MP2 Hybrid          =          FALSE

   => Exchange Functionals <=

    0.0800   Slater exchange
    0.7200         Becke 88

   => Exact (HF) Exchange <=

    0.2000               HF 

   => Correlation Functionals <=

    0.1900   Vosko, Wilk & Nusair (VWN5_RPA)
    0.8100   Lee, Yang & Parr

   => LibXC Density Thresholds  <==

    XC_HYB_GGA_XC_B3LYP:  1.00E-15 

   => Molecular Quadrature <=

    Radial Scheme          =       TREUTLER
    Pruning Scheme         =           NONE
    Nuclear Scheme         =       TREUTLER

    Blocking Scheme        =         OCTREE
    BS radius alpha        =              1
    Pruning alpha          =              1
    Radial Points          =             75
    Spherical Points       =            302
    Total Points           =          42520
    Total Blocks           =            380
    Max Points             =            256
    Max Functions          =             23
    Weights Tolerance      =       1.00E-15

   => Loading Basis Set <=

    Name: (CC-PVDZ AUX)
    Role: JKFIT
    Keyword: DF_BASIS_SCF
    atoms 1 entry HE         line    34 file /Users/joseantoniorodriguesromero/anaconda3/share/psi4/basis/def2-universal-jkfit.gbs 
    atoms 2 entry S          line   593 file /Users/joseantoniorodriguesromero/anaconda3/share/psi4/basis/cc-pvdz-jkfit.gbs 

   => Loading Basis Set <=

    Name: CC-PVDZ
    Role: ORBITAL
    Keyword: BASIS
    atoms 1 entry HE         line    32 file /Users/joseantoniorodriguesromero/anaconda3/share/psi4/basis/cc-pvdz.gbs 
    atoms 2 entry S          line   598 file /Users/joseantoniorodriguesromero/anaconda3/share/psi4/basis/cc-pvdz.gbs 

  Reading orbitals from file /tmp/quintet_HeS.default.68282.180.npy, no projection.

  ==> Integral Setup <==

  DFHelper Memory: AOs need 0.001 GiB; user supplied 0.340 GiB. 
  Using in-core AOs.

  ==> MemDFJK: Density-Fitted J/K Matrices <==

    J tasked:                   Yes
    K tasked:                   Yes
    wK tasked:                   No
    OpenMP threads:               1
    Memory [MiB]:               347
    Algorithm:                 Core
    Schwarz Cutoff:           1E-12
    Mask sparsity (%):       0.0000
    Fitting Condition:        1E-10

   => Auxiliary Basis Set <=

  Basis Set: (CC-PVDZ AUX)
    Blend: CC-PVDZ-JKFIT + DEF2-UNIVERSAL-JKFIT
    Number of shells: 45
    Number of basis functions: 135
    Number of Cartesian functions: 155
    Spherical Harmonics?: true
    Max angular momentum: 3

  Cached 100.0% of DFT collocation blocks in 0.027 [GiB].

  Minimum eigenvalue in the overlap matrix is 1.1308014015E-01.
  Reciprocal condition number of the overlap matrix is 6.6885477373E-02.
    Using symmetric orthogonalization.

  ==> Pre-Iterations <==

  SCF Guess: Orbitals guess was supplied from a previous computation.

   -------------------------------------------------------
    Irrep   Nso     Nmo     Nalpha   Nbeta   Ndocc  Nsocc
   -------------------------------------------------------
     A1        12      12       7       5       5       2
     A2         1       1       0       0       0       0
     B1         5       5       2       1       1       1
     B2         5       5       2       1       1       1
   -------------------------------------------------------
    Total      23      23      11       7       7       4
   -------------------------------------------------------

  ==> Iterations <==

                           Total Energy        Delta E     RMS |[F,P]|

   @DF-UKS iter   0:  -400.42586987771517   -4.00426e+02   4.58514e-05 
   @DF-UKS iter   1:  -400.42589211044276   -2.22327e-05   6.63506e-06 DIIS
   @DF-UKS iter   2:  -400.42589211359086   -3.14810e-09   5.36084e-06 DIIS/DAMP=1%
   @DF-UKS iter   3:  -400.42589193313427    1.80457e-07   2.47750e-06 DIIS/DAMP=1%
   @DF-UKS iter   4:  -400.42589206481927   -1.31685e-07   1.39689e-06 DIIS/DAMP=1%
   @DF-UKS iter   5:  -400.42589210981293   -4.49937e-08   6.50104e-07 DIIS/DAMP=1%
   @DF-UKS iter   6:  -400.42589207349039    3.63225e-08   9.28591e-08 DIIS/DAMP=1%
   @DF-UKS iter   7:  -400.42589213225608   -5.87657e-08   2.77128e-08 DIIS/DAMP=1%
   @DF-UKS iter   8:  -400.42589211927458    1.29815e-08   1.27801e-08 DIIS/DAMP=1%
   @DF-UKS iter   9:  -400.42589212667855   -7.40397e-09   2.93672e-09 DIIS/DAMP=1%
  Energy and wave function converged.


  ==> Post-Iterations <==

   Electrons on quadrature grid:
      Nalpha   =   10.9999967591 ; deviation = -3.241e-06
      Nbeta    =    6.9999967834 ; deviation = -3.217e-06
      Ntotal   =   17.9999935425 ; deviation = -6.458e-06 

   @Spin Contamination Metric:   3.514763695E-06
   @S^2 Expected:                6.000000000E+00
   @S^2 Observed:                6.000003515E+00
   @S   Expected:                2.000000000E+00
   @S   Observed:                2.000000000E+00

    Orbital Energies [Eh]
    ---------------------

    Alpha Occupied:                                                       

       1A1   -88.964243     2A1    -8.032849     3A1    -5.993392  
       1B1    -5.993298     1B2    -5.993298     4A1    -0.787751  
       5A1    -0.649075     2B2    -0.368199     2B1    -0.368199  
       6A1    -0.367646     7A1     0.330610  

    Alpha Virtual:                                                        

       3B2     0.412635     3B1     0.412635     8A1     0.412903  
       9A1     0.493345    10A1     0.493775     1A2     0.493775  
       4B2     0.493853     4B1     0.493853    11A1     1.148656  
       5B1     2.190685     5B2     2.190685    12A1     2.196025  

    Beta Occupied:                                                        

       1A1   -88.940003     2A1    -8.006553     3A1    -5.961933  
       1B1    -5.961857     1B2    -5.961857     4A1    -0.648580  
       5A1    -0.630031  

    Beta Virtual:                                                         

       2B2    -0.183151     2B1    -0.183151     6A1    -0.182418  
       7A1     0.471988     8A1     0.496014     3B2     0.497027  
       3B1     0.497027     9A1     0.611013    10A1     0.611592  
       1A2     0.611592     4B1     0.611664     4B2     0.611664  
      11A1     1.150953     5B1     2.191200     5B2     2.191200  
      12A1     2.196894  

    Final Occupation by Irrep:
             A1    A2    B1    B2 
    DOCC [     5,    0,    1,    1 ]
    SOCC [     2,    0,    1,    1 ]
    NA   [     7,    0,    2,    2 ]
    NB   [     5,    0,    1,    1 ]

  @DF-UKS Final Energy:  -400.42589212667855

   => Energetics <=

    Nuclear Repulsion Energy =              5.3740474951666970
    One-Electron Energy =                -562.9851165715297157
    Two-Electron Energy =                 178.7102002532981828
    DFT Exchange-Correlation Energy =     -21.5250233036136223
    Empirical Dispersion Energy =           0.0000000000000000
    VV10 Nonlocal Energy =                  0.0000000000000000
    Total Energy =                       -400.4258921266784910

  UHF NO Occupations:
  HONO-2 :    2 B1 1.0000000
  HONO-1 :    2 B2 1.0000000
  HONO-0 :    7 A1 1.0000000
  LUNO+0 :    8 A1 0.0000014
  LUNO+1 :    9 A1 0.0000001
  LUNO+2 :    3 B1 0.0000001
  LUNO+3 :    3 B2 0.0000001


Computation Completed


Properties will be evaluated at   0.000000,   0.000000,   0.000000 [a0]

Properties computed using the SCF density matrix


 Multipole Moments:

 ------------------------------------------------------------------------------------
     Multipole            Electronic (a.u.)      Nuclear  (a.u.)        Total (a.u.)
 ------------------------------------------------------------------------------------

 L = 1.  Multiply by 2.5417464519 to convert [e a0] to [Debye]
 Dipole X            :          0.0000000            0.0000000            0.0000000
 Dipole Y            :          0.0000000            0.0000000            0.0000000
 Dipole Z            :         -0.0168501           -0.0161399           -0.0329899
 Magnitude           :                                                    0.0329899

 ------------------------------------------------------------------------------------

*** tstop() called on Joses-MacBook-Pro-2.local at Wed Jul 16 18:26:08 2025
Module time:
	user time   =       5.07 seconds =       0.08 minutes
	system time =       3.18 seconds =       0.05 minutes
	total time  =          1 seconds =       0.02 minutes
Total time:
	user time   =     102.82 seconds =       1.71 minutes
	system time =      56.14 seconds =       0.94 minutes
	total time  =         16 seconds =       0.27 minutes

*** tstart() called on Joses-MacBook-Pro-2.local
*** at Wed Jul 16 18:26:08 2025


         ------------------------------------------------------------
                                   SCF GRAD                          
                          Rob Parrish, Justin Turney,                
                       Andy Simmonett, and Alex Sokolov              
         ------------------------------------------------------------

  ==> Geometry <==

    Molecular point group: c2v
    Full point group: C_inf_v

    Geometry (in Angstrom), charge = 0, multiplicity = 5:

       Center              X                  Y                   Z               Mass       
    ------------   -----------------  -----------------  -----------------  -----------------
         HE           0.000000000000     0.000000000000     2.800422185633     4.002603254130
         S            0.000000000000     0.000000000000    -0.350586575765    31.972071174400

  Nuclear repulsion =    5.374047495166697

  ==> Basis Set <==

  Basis Set: CC-PVDZ
    Blend: CC-PVDZ
    Number of shells: 11
    Number of basis functions: 23
    Number of Cartesian functions: 24
    Spherical Harmonics?: true
    Max angular momentum: 2

  ==> DFJKGrad: Density-Fitted SCF Gradients <==

    Gradient:                    1
    J tasked:                  Yes
    K tasked:                  Yes
    wK tasked:                  No
    OpenMP threads:              1
    Integrals threads:           1
    Memory [MiB]:              375
    Schwarz Cutoff:          1E-12
    Fitting Condition:       1E-10

   => Auxiliary Basis Set <=

  Basis Set: (CC-PVDZ AUX)
    Blend: CC-PVDZ-JKFIT + DEF2-UNIVERSAL-JKFIT
    Number of shells: 45
    Number of basis functions: 135
    Number of Cartesian functions: 155
    Spherical Harmonics?: true
    Max angular momentum: 3

  ==> DFT Potential <==

   => LibXC <=

    Version 6.2.2
    S. Lehtola, C. Steigemann, M. J.T. Oliveira, and M. A.L. Marques.,  SoftwareX 7, 1–5 (2018) (10.1016/j.softx.2017.11.002)

   => Composite Functional: B3LYP <= 

    B3LYP Hyb-GGA Exchange-Correlation Functional

    P. J. Stephens, F. J. Devlin, C. F. Chabalowski, and M. J. Frisch.,  J. Phys. Chem. 98, 11623 (1994) (10.1021/j100096a001)

    Deriv               =              1
    GGA                 =           TRUE
    Meta                =          FALSE

    Exchange Hybrid     =           TRUE
    MP2 Hybrid          =          FALSE

   => Exchange Functionals <=

    0.0800   Slater exchange
    0.7200         Becke 88

   => Exact (HF) Exchange <=

    0.2000               HF 

   => Correlation Functionals <=

    0.1900   Vosko, Wilk & Nusair (VWN5_RPA)
    0.8100   Lee, Yang & Parr

   => LibXC Density Thresholds  <==

    XC_HYB_GGA_XC_B3LYP:  1.00E-15 

   => Molecular Quadrature <=

    Radial Scheme          =       TREUTLER
    Pruning Scheme         =           NONE
    Nuclear Scheme         =       TREUTLER

    Blocking Scheme        =         OCTREE
    BS radius alpha        =              1
    Pruning alpha          =              1
    Radial Points          =             75
    Spherical Points       =            302
    Total Points           =          42520
    Total Blocks           =            380
    Max Points             =            256
    Max Functions          =             23
    Weights Tolerance      =       1.00E-15


  -Total Gradient:
     Atom            X                  Y                   Z
    ------   -----------------  -----------------  -----------------
       1        0.000000000000    -0.000000000000    -0.000033213268
       2       -0.000000000000     0.000000000000     0.000021913202


*** tstop() called on Joses-MacBook-Pro-2.local at Wed Jul 16 18:26:08 2025
Module time:
	user time   =       0.75 seconds =       0.01 minutes
	system time =       1.00 seconds =       0.02 minutes
	total time  =          0 seconds =       0.00 minutes
Total time:
	user time   =     103.57 seconds =       1.73 minutes
	system time =      57.14 seconds =       0.95 minutes
	total time  =         16 seconds =       0.27 minutes

    			-----------------------------------------

    			 OPTKING 3.0: for geometry optimizations 

    			     By R.A. King, Bethel University     

    			        with contributions from          

    			    A.V. Copan, J. Cayton, A. Heide      

    			-----------------------------------------

    
	                            ===> Fragment 1 <== 

	 Z (Atomic Numbers)          Masses                          Geom                  
	       2.000000             4.002603          0.00000000  0.00000000  5.29203097   
	      16.000000            31.972071          0.00000000  0.00000000 -0.66251261   

	 - Coordinate -           - BOHR/RAD -       - ANG/DEG -
	 R(1,2)           =         5.954544           3.151009


	        --- Internal Coordinate Step in ANG or DEG, aJ/ANG or AJ/DEG ---
	-------------------------------------------------------------------------------
	           Coordinate      Previous         Force          Change          New 
	           ----------      --------        ------          ------        ------
	               R(1,2)       3.15101        0.00023        0.00299       3.15400
	-------------------------------------------------------------------------------

	                                 ==> Convergence Check <==                                  
    
	Measures of convergence in internal coordinates in au.
    
	Criteria marked as inactive (o), active & met (*), and active & unmet ( ).

	----------------------------------------------------------------------------------------------
	   Step    Total Energy     Delta E     Max Force     RMS Force      Max Disp      RMS Disp   
	----------------------------------------------------------------------------------------------
	  Convergence Criteria     1.00e-06 *    3.00e-04 *             o    1.20e-03 *             o
	----------------------------------------------------------------------------------------------
	    14    -400.42589213   -7.81e-07 *    2.76e-05 *    2.76e-05 o    5.66e-03      5.66e-03 o  ~
	----------------------------------------------------------------------------------------------

Next Geometry in Ang 
	Fragment 1 (Ang)

	   He   0.0000000000   0.0000000000   2.8019188574
	    S   0.0000000000   0.0000000000  -0.3520832475


    Final optimized geometry and variables:
    Molecular point group: c2v
    Full point group: C_inf_v

    Geometry (in Angstrom), charge = 0, multiplicity = 5:

    HE           0.000000000000     0.000000000000     2.800422185633
    S            0.000000000000     0.000000000000    -0.350586575765


    Psi4 stopped on: Wednesday, 16 July 2025 06:26PM
    Psi4 wall time for execution: 0:00:17.01

*** Psi4 exiting successfully. Buy a developer a beer!
