
    -----------------------------------------------------------------------
          Psi4: An Open-Source Ab Initio Electronic Structure Package
                               Psi4 1.9.1 release

                         Git: Rev {} zzzzzzz 


    D. G. A. Smith, L. A. Burns, A. C. Simmonett, R. M. Parrish,
    M. C. Schieber, R. Galvelis, P. Kraus, H. Kruse, R. Di Remigio,
    A. Alenaizan, A. M. James, S. Lehtola, J. P. Misiewicz, M. Scheurer,
    R. A. Shaw, J. B. Schriber, Y. Xie, Z. L. Glick, D. A. Sirianni,
    J. S. O'Brien, J. M. Waldrop, A. Kumar, E. G. Hohenstein,
    B. P. Pritchard, B. R. Brooks, H. F. Schaefer III, A. Yu. Sokolov,
    K. Patkowski, A. E. DePrince III, U. Bozkaya, R. A. King,
    F. A. Evangelista, J. M. Turney, T. D. Crawford, C. D. Sherrill,
    J. Chem. Phys. 152(18) 184108 (2020). https://doi.org/10.1063/5.0006002

                            Additional Code Authors
    E. T. Seidl, C. L. Janssen, E. F. Valeev, M. L. Leininger,
    J. F. Gonthier, R. M. Richard, H. R. McAlexander, M. Saitow, X. Wang,
    P. Verma, M. H. Lechner, A. Jiang, S. Behnle, A. G. Heide,
    M. F. Herbst, and D. L. Poole

             Previous Authors, Complete List of Code Contributors,
                       and Citations for Specific Modules
    https://github.com/psi4/psi4/blob/master/codemeta.json
    https://github.com/psi4/psi4/graphs/contributors
    http://psicode.org/psi4manual/master/introduction.html#citing-psifour

    -----------------------------------------------------------------------


    Psi4 started on: Wednesday, 16 July 2025 06:52PM

    Process ID: 68669
    Host:       Joses-MacBook-Pro-2.local
    PSIDATADIR: /Users/joseantoniorodriguesromero/anaconda3/share/psi4
    Memory:     500.0 MiB
    Threads:    1
    
  ==> Input File <==

--------------------------------------------------------------------------
molecule { 
0 5
B   0.00000        0.60000        0.00000
Na   0.00000       -0.60000        0.00000
}

set { 
basis              cc-pvdz
reference          uks
maxiter            500
geom_maxiter       500
DAMPING_PERCENTAGE 1
guess              SAP
}

optimize('b3lyp')
--------------------------------------------------------------------------

Scratch directory: /tmp/
gradient() will perform analytic gradient computation.
   => Libint2 <=

    Primary   basis highest AM E, G, H:  6, 6, 3
    Auxiliary basis highest AM E, G, H:  7, 7, 4
    Onebody   basis highest AM E, G, H:  -, -, -
    Solid Harmonics ordering:            Gaussian

*** tstart() called on Joses-MacBook-Pro-2.local
*** at Wed Jul 16 18:52:23 2025

   => Loading Basis Set <=

    Name: CC-PVDZ
    Role: ORBITAL
    Keyword: BASIS
    atoms 1 entry B          line   108 file /Users/joseantoniorodriguesromero/anaconda3/share/psi4/basis/cc-pvdz.gbs 
    atoms 2 entry NA         line   288 file /Users/joseantoniorodriguesromero/anaconda3/share/psi4/basis/cc-pvdz.gbs 


         ---------------------------------------------------------
                                   SCF
               by Justin Turney, Rob Parrish, Andy Simmonett
                          and Daniel G. A. Smith
                              UKS Reference
                        1 Threads,    500 MiB Core
         ---------------------------------------------------------

  ==> Geometry <==

    Molecular point group: c2v
    Full point group: C_inf_v

    Geometry (in Angstrom), charge = 0, multiplicity = 5:

       Center              X                  Y                   Z               Mass       
    ------------   -----------------  -----------------  -----------------  -----------------
         B            0.000000000000     0.000000000000     0.811425705814    11.009305360000
         NA           0.000000000000     0.000000000000    -0.388574294186    22.989769282000

  Running in c2v symmetry.

  Rotational constants: A = ************  B =      1.57256  C =      1.57256 [cm^-1]
  Rotational constants: A = ************  B =  47144.09179  C =  47144.09179 [MHz]
  Nuclear repulsion =   24.253955489041669

  Charge       = 0
  Multiplicity = 5
  Electrons    = 16
  Nalpha       = 10
  Nbeta        = 6

  ==> Algorithm <==

  SCF Algorithm Type is DF.
  DIIS enabled.
  MOM disabled.
  Fractional occupation disabled.
  Guess Type is SAP.
  Energy threshold   = 1.00e-08
  Density threshold  = 1.00e-08
  Integral threshold = 1.00e-12

  ==> Primary Basis <==

  Basis Set: CC-PVDZ
    Blend: CC-PVDZ
    Number of shells: 14
    Number of basis functions: 32
    Number of Cartesian functions: 34
    Spherical Harmonics?: true
    Max angular momentum: 2

  ==> DFT Potential <==

   => LibXC <=

    Version 6.2.2
    S. Lehtola, C. Steigemann, M. J.T. Oliveira, and M. A.L. Marques.,  SoftwareX 7, 1–5 (2018) (10.1016/j.softx.2017.11.002)

   => Composite Functional: B3LYP <= 

    B3LYP Hyb-GGA Exchange-Correlation Functional

    P. J. Stephens, F. J. Devlin, C. F. Chabalowski, and M. J. Frisch.,  J. Phys. Chem. 98, 11623 (1994) (10.1021/j100096a001)

    Deriv               =              1
    GGA                 =           TRUE
    Meta                =          FALSE

    Exchange Hybrid     =           TRUE
    MP2 Hybrid          =          FALSE

   => Exchange Functionals <=

    0.0800   Slater exchange
    0.7200         Becke 88

   => Exact (HF) Exchange <=

    0.2000               HF 

   => Correlation Functionals <=

    0.1900   Vosko, Wilk & Nusair (VWN5_RPA)
    0.8100   Lee, Yang & Parr

   => LibXC Density Thresholds  <==

    XC_HYB_GGA_XC_B3LYP:  1.00E-15 

   => Molecular Quadrature <=

    Radial Scheme          =       TREUTLER
    Pruning Scheme         =           NONE
    Nuclear Scheme         =       TREUTLER

    Blocking Scheme        =         OCTREE
    BS radius alpha        =              1
    Pruning alpha          =              1
    Radial Points          =             75
    Spherical Points       =            302
    Total Points           =          43703
    Total Blocks           =            428
    Max Points             =            253
    Max Functions          =             32
    Weights Tolerance      =       1.00E-15

   => Loading Basis Set <=

    Name: (CC-PVDZ AUX)
    Role: JKFIT
    Keyword: DF_BASIS_SCF
    atoms 1 entry B          line    71 file /Users/joseantoniorodriguesromero/anaconda3/share/psi4/basis/cc-pvdz-jkfit.gbs 
    atoms 2 entry NA         line   498 file /Users/joseantoniorodriguesromero/anaconda3/share/psi4/basis/def2-universal-jkfit.gbs 

  ==> Integral Setup <==

  DFHelper Memory: AOs need 0.002 GiB; user supplied 0.326 GiB. 
  Using in-core AOs.

  ==> MemDFJK: Density-Fitted J/K Matrices <==

    J tasked:                   Yes
    K tasked:                   Yes
    wK tasked:                   No
    OpenMP threads:               1
    Memory [MiB]:               334
    Algorithm:                 Core
    Schwarz Cutoff:           1E-12
    Mask sparsity (%):       0.0000
    Fitting Condition:        1E-10

   => Auxiliary Basis Set <=

  Basis Set: (CC-PVDZ AUX)
    Blend: CC-PVDZ-JKFIT + DEF2-UNIVERSAL-JKFIT
    Number of shells: 58
    Number of basis functions: 182
    Number of Cartesian functions: 218
    Spherical Harmonics?: true
    Max angular momentum: 4

  Cached 100.0% of DFT collocation blocks in 0.040 [GiB].

  Minimum eigenvalue in the overlap matrix is 1.9384271184E-03.
  Reciprocal condition number of the overlap matrix is 6.2305041053E-04.
    Using symmetric orthogonalization.

  ==> Pre-Iterations <==

  SCF Guess: Superposition of Atomic Potentials (doi:10.1021/acs.jctc.8b01089).

  ==> SAP guess <==

   => Molecular Quadrature <=

    Radial Scheme          =       TREUTLER
    Pruning Scheme         =           NONE
    Nuclear Scheme         =       TREUTLER

    Blocking Scheme        =         OCTREE
    BS radius alpha        =              1
    Pruning alpha          =              1
    Radial Points          =             75
    Spherical Points       =            302
    Total Points           =          43703
    Total Blocks           =            428
    Max Points             =            253
    Max Functions          =             32
    Weights Tolerance      =       1.00E-15

   -------------------------------------------------------
    Irrep   Nso     Nmo     Nalpha   Nbeta   Ndocc  Nsocc
   -------------------------------------------------------
     A1        16      16       6       4       4       2
     A2         2       2       0       0       0       0
     B1         7       7       2       1       1       1
     B2         7       7       2       1       1       1
   -------------------------------------------------------
    Total      32      32      10       6       6       4
   -------------------------------------------------------

  ==> Iterations <==

                           Total Energy        Delta E     RMS |[F,P]|

   @DF-UKS iter   1:  -186.39376630278787   -1.86394e+02   1.45106e-02 DIIS/ADIIS
   @DF-UKS iter   2:  -186.42239027020850   -2.86240e-02   1.07584e-02 DIIS/ADIIS/DAMP=1%
   @DF-UKS iter   3:  -186.46305163089687   -4.06614e-02   8.89745e-04 DIIS/ADIIS/DAMP=1%
   @DF-UKS iter   4:  -186.47193955586889   -8.88792e-03   3.24644e-04 DIIS/ADIIS/DAMP=1%
   @DF-UKS iter   5:  -186.47105376576653    8.85790e-04   3.62148e-05 DIIS/DAMP=1%
   @DF-UKS iter   6:  -186.47119964277911   -1.45877e-04   5.87369e-06 DIIS/DAMP=1%
   @DF-UKS iter   7:  -186.47118368302685    1.59598e-05   1.05627e-06 DIIS/DAMP=1%
   @DF-UKS iter   8:  -186.47118914950772   -5.46648e-06   1.09280e-07 DIIS/DAMP=1%
   @DF-UKS iter   9:  -186.47118826209569    8.87412e-07   1.01390e-08 DIIS/DAMP=1%
   @DF-UKS iter  10:  -186.47118830279146   -4.06958e-08   1.15858e-09 DIIS/DAMP=1%
   @DF-UKS iter  11:  -186.47118830182404    9.67418e-10   1.13879e-10 DIIS/DAMP=1%
  Energy and wave function converged.


  ==> Post-Iterations <==

   Electrons on quadrature grid:
      Nalpha   =   10.0000010183 ; deviation = 1.018e-06
      Nbeta    =    6.0000009737 ; deviation = 9.737e-07
      Ntotal   =   16.0000019921 ; deviation = 1.992e-06 

   @Spin Contamination Metric:   1.424850901E-04
   @S^2 Expected:                6.000000000E+00
   @S^2 Observed:                6.000142485E+00
   @S   Expected:                2.000000000E+00
   @S   Observed:                2.000000000E+00

    Orbital Energies [Eh]
    ---------------------

    Alpha Occupied:                                                       

       1A1   -38.731350     2A1    -6.935482     3A1    -2.476851  
       4A1    -1.434299     1B2    -1.369297     1B1    -1.369297  
       5A1    -0.432770     2B1    -0.267400     2B2    -0.267400  
       6A1    -0.134859  

    Alpha Virtual:                                                        

       7A1    -0.003550     3B1    -0.001204     3B2    -0.001204  
       8A1     0.015631     9A1     0.064741     4B1     0.078292  
       4B2     0.078292     1A2     0.131822    10A1     0.131822  
      11A1     0.190829     5B1     0.238801     5B2     0.238801  
       6B2     0.294500     6B1     0.294500    12A1     0.326003  
      13A1     0.365793    14A1     0.670760     2A2     0.670761  
       7B1     0.722203     7B2     0.722203    15A1     0.814805  
      16A1     1.012241  

    Beta Occupied:                                                        

       1A1   -38.723183     2A1    -6.892799     3A1    -2.462308  
       4A1    -1.421326     1B2    -1.354564     1B1    -1.354564  

    Beta Virtual:                                                         

       5A1    -0.186842     2B1    -0.053162     2B2    -0.053162  
       6A1    -0.035567     7A1     0.030412     3B2     0.032464  
       3B1     0.032464     8A1     0.051067     4B1     0.114127  
       4B2     0.114127     9A1     0.114946     1A2     0.176013  
      10A1     0.176033    11A1     0.249460     5B1     0.287626  
       5B2     0.287626     6B2     0.374207     6B1     0.374207  
      12A1     0.383025    13A1     0.427492     2A2     0.820633  
      14A1     0.820659     7B1     0.835651     7B2     0.835651  
      15A1     0.871610    16A1     1.114614  

    Final Occupation by Irrep:
             A1    A2    B1    B2 
    DOCC [     4,    0,    1,    1 ]
    SOCC [     2,    0,    1,    1 ]
    NA   [     6,    0,    2,    2 ]
    NB   [     4,    0,    1,    1 ]

  @DF-UKS Final Energy:  -186.47118830182404

   => Energetics <=

    Nuclear Repulsion Energy =             24.2539554890416689
    One-Electron Energy =                -305.1247970434443459
    Two-Electron Energy =                 109.3430066827869354
    DFT Exchange-Correlation Energy =     -14.9433534302083242
    Empirical Dispersion Energy =           0.0000000000000000
    VV10 Nonlocal Energy =                  0.0000000000000000
    Total Energy =                       -186.4711883018240428

  UHF NO Occupations:
  HONO-2 :    2 B1 1.0000000
  HONO-1 :    5 A1 1.0000000
  HONO-0 :    6 A1 1.0000000
  LUNO+0 :    7 A1 0.0000556
  LUNO+1 :    3 B1 0.0000066
  LUNO+2 :    3 B2 0.0000066
  LUNO+3 :    8 A1 0.0000020


Computation Completed


Properties will be evaluated at   0.000000,   0.000000,   0.000000 [a0]

Properties computed using the SCF density matrix


 Multipole Moments:

 ------------------------------------------------------------------------------------
     Multipole            Electronic (a.u.)      Nuclear  (a.u.)        Total (a.u.)
 ------------------------------------------------------------------------------------

 L = 1.  Multiply by 2.5417464519 to convert [e a0] to [Debye]
 Dipole X            :          0.0000000            0.0000000            0.0000000
 Dipole Y            :          0.0000000            0.0000000            0.0000000
 Dipole Z            :          0.4802468           -0.4104272            0.0698196
 Magnitude           :                                                    0.0698196

 ------------------------------------------------------------------------------------

*** tstop() called on Joses-MacBook-Pro-2.local at Wed Jul 16 18:52:24 2025
Module time:
	user time   =       3.05 seconds =       0.05 minutes
	system time =       6.57 seconds =       0.11 minutes
	total time  =          1 seconds =       0.02 minutes
Total time:
	user time   =       3.05 seconds =       0.05 minutes
	system time =       6.57 seconds =       0.11 minutes
	total time  =          1 seconds =       0.02 minutes

*** tstart() called on Joses-MacBook-Pro-2.local
*** at Wed Jul 16 18:52:24 2025


         ------------------------------------------------------------
                                   SCF GRAD                          
                          Rob Parrish, Justin Turney,                
                       Andy Simmonett, and Alex Sokolov              
         ------------------------------------------------------------

  ==> Geometry <==

    Molecular point group: c2v
    Full point group: C_inf_v

    Geometry (in Angstrom), charge = 0, multiplicity = 5:

       Center              X                  Y                   Z               Mass       
    ------------   -----------------  -----------------  -----------------  -----------------
         B            0.000000000000     0.000000000000     0.811425705814    11.009305360000
         NA           0.000000000000     0.000000000000    -0.388574294186    22.989769282000

  Nuclear repulsion =   24.253955489041669

  ==> Basis Set <==

  Basis Set: CC-PVDZ
    Blend: CC-PVDZ
    Number of shells: 14
    Number of basis functions: 32
    Number of Cartesian functions: 34
    Spherical Harmonics?: true
    Max angular momentum: 2

  ==> DFJKGrad: Density-Fitted SCF Gradients <==

    Gradient:                    1
    J tasked:                  Yes
    K tasked:                  Yes
    wK tasked:                  No
    OpenMP threads:              1
    Integrals threads:           1
    Memory [MiB]:              375
    Schwarz Cutoff:          1E-12
    Fitting Condition:       1E-10

   => Auxiliary Basis Set <=

  Basis Set: (CC-PVDZ AUX)
    Blend: CC-PVDZ-JKFIT + DEF2-UNIVERSAL-JKFIT
    Number of shells: 58
    Number of basis functions: 182
    Number of Cartesian functions: 218
    Spherical Harmonics?: true
    Max angular momentum: 4

  ==> DFT Potential <==

   => LibXC <=

    Version 6.2.2
    S. Lehtola, C. Steigemann, M. J.T. Oliveira, and M. A.L. Marques.,  SoftwareX 7, 1–5 (2018) (10.1016/j.softx.2017.11.002)

   => Composite Functional: B3LYP <= 

    B3LYP Hyb-GGA Exchange-Correlation Functional

    P. J. Stephens, F. J. Devlin, C. F. Chabalowski, and M. J. Frisch.,  J. Phys. Chem. 98, 11623 (1994) (10.1021/j100096a001)

    Deriv               =              1
    GGA                 =           TRUE
    Meta                =          FALSE

    Exchange Hybrid     =           TRUE
    MP2 Hybrid          =          FALSE

   => Exchange Functionals <=

    0.0800   Slater exchange
    0.7200         Becke 88

   => Exact (HF) Exchange <=

    0.2000               HF 

   => Correlation Functionals <=

    0.1900   Vosko, Wilk & Nusair (VWN5_RPA)
    0.8100   Lee, Yang & Parr

   => LibXC Density Thresholds  <==

    XC_HYB_GGA_XC_B3LYP:  1.00E-15 

   => Molecular Quadrature <=

    Radial Scheme          =       TREUTLER
    Pruning Scheme         =           NONE
    Nuclear Scheme         =       TREUTLER

    Blocking Scheme        =         OCTREE
    BS radius alpha        =              1
    Pruning alpha          =              1
    Radial Points          =             75
    Spherical Points       =            302
    Total Points           =          43703
    Total Blocks           =            428
    Max Points             =            253
    Max Functions          =             32
    Weights Tolerance      =       1.00E-15


  -Total Gradient:
     Atom            X                  Y                   Z
    ------   -----------------  -----------------  -----------------
       1       -0.000000000000     0.000000000000    -0.612702930021
       2       -0.000000000000     0.000000000000     0.612622553941


*** tstop() called on Joses-MacBook-Pro-2.local at Wed Jul 16 18:52:25 2025
Module time:
	user time   =       1.08 seconds =       0.02 minutes
	system time =       1.99 seconds =       0.03 minutes
	total time  =          1 seconds =       0.02 minutes
Total time:
	user time   =       4.13 seconds =       0.07 minutes
	system time =       8.58 seconds =       0.14 minutes
	total time  =          2 seconds =       0.03 minutes

    			-----------------------------------------

    			 OPTKING 3.0: for geometry optimizations 

    			     By R.A. King, Bethel University     

    			        with contributions from          

    			    A.V. Copan, J. Cayton, A. Heide      

    			-----------------------------------------

    
	                            ===> Fragment 1 <== 

	 Z (Atomic Numbers)          Masses                          Geom                  
	       5.000000            11.009305          0.00000000  0.00000000  1.53337236   
	      11.000000            22.989769          0.00000000  0.00000000 -0.73429900   

	 - Coordinate -           - BOHR/RAD -       - ANG/DEG -
	 R(1,2)           =         2.267671           1.200000


	        --- Internal Coordinate Step in ANG or DEG, aJ/ANG or AJ/DEG ---
	-------------------------------------------------------------------------------
	           Coordinate      Previous         Force          Change          New 
	           ----------      --------        ------          ------        ------
	               R(1,2)       1.20000        5.04756        0.07592       1.27592
	-------------------------------------------------------------------------------

	                                 ==> Convergence Check <==                                  
    
	Measures of convergence in internal coordinates in au.
    
	Criteria marked as inactive (o), active & met (*), and active & unmet ( ).

	----------------------------------------------------------------------------------------------
	   Step    Total Energy     Delta E     Max Force     RMS Force      Max Disp      RMS Disp   
	----------------------------------------------------------------------------------------------
	  Convergence Criteria     1.00e-06 *    3.00e-04 *             o    1.20e-03 *             o
	----------------------------------------------------------------------------------------------
	     1    -186.47118830   -1.86e+02      6.13e-01      6.13e-01 o    1.43e-01      1.43e-01 o  ~
	----------------------------------------------------------------------------------------------

Next Geometry in Ang 
	Fragment 1 (Ang)

	    B   0.0000000000   0.0000000000   0.8493879950
	   Na   0.0000000000   0.0000000000  -0.4265365833


    Structure for next step:
    Molecular point group: c2v
    Full point group: C_inf_v

    Geometry (in Angstrom), charge = 0, multiplicity = 5:

    B            0.000000000000     0.000000000000     0.862765001261
    NA           0.000000000000     0.000000000000    -0.413159577040


Scratch directory: /tmp/
gradient() will perform analytic gradient computation.
   => Libint2 <=

    Primary   basis highest AM E, G, H:  6, 6, 3
    Auxiliary basis highest AM E, G, H:  7, 7, 4
    Onebody   basis highest AM E, G, H:  -, -, -
    Solid Harmonics ordering:            Gaussian

*** tstart() called on Joses-MacBook-Pro-2.local
*** at Wed Jul 16 18:52:25 2025

   => Loading Basis Set <=

    Name: CC-PVDZ
    Role: ORBITAL
    Keyword: BASIS
    atoms 1 entry B          line   108 file /Users/joseantoniorodriguesromero/anaconda3/share/psi4/basis/cc-pvdz.gbs 
    atoms 2 entry NA         line   288 file /Users/joseantoniorodriguesromero/anaconda3/share/psi4/basis/cc-pvdz.gbs 


         ---------------------------------------------------------
                                   SCF
               by Justin Turney, Rob Parrish, Andy Simmonett
                          and Daniel G. A. Smith
                              UKS Reference
                        1 Threads,    500 MiB Core
         ---------------------------------------------------------

  ==> Geometry <==

    Molecular point group: c2v
    Full point group: C_inf_v

    Geometry (in Angstrom), charge = 0, multiplicity = 5:

       Center              X                  Y                   Z               Mass       
    ------------   -----------------  -----------------  -----------------  -----------------
         B            0.000000000000     0.000000000000     0.862765001261    11.009305360000
         NA           0.000000000000     0.000000000000    -0.413159577040    22.989769282000

  Running in c2v symmetry.

  Rotational constants: A = ************  B =      1.39097  C =      1.39097 [cm^-1]
  Rotational constants: A = ************  B =  41700.35565  C =  41700.35565 [MHz]
  Nuclear repulsion =   22.810710822420425

  Charge       = 0
  Multiplicity = 5
  Electrons    = 16
  Nalpha       = 10
  Nbeta        = 6

  ==> Algorithm <==

  SCF Algorithm Type is DF.
  DIIS enabled.
  MOM disabled.
  Fractional occupation disabled.
  Guess Type is READ.
  Energy threshold   = 1.00e-08
  Density threshold  = 1.00e-08
  Integral threshold = 1.00e-12

  ==> Primary Basis <==

  Basis Set: CC-PVDZ
    Blend: CC-PVDZ
    Number of shells: 14
    Number of basis functions: 32
    Number of Cartesian functions: 34
    Spherical Harmonics?: true
    Max angular momentum: 2

  ==> DFT Potential <==

   => LibXC <=

    Version 6.2.2
    S. Lehtola, C. Steigemann, M. J.T. Oliveira, and M. A.L. Marques.,  SoftwareX 7, 1–5 (2018) (10.1016/j.softx.2017.11.002)

   => Composite Functional: B3LYP <= 

    B3LYP Hyb-GGA Exchange-Correlation Functional

    P. J. Stephens, F. J. Devlin, C. F. Chabalowski, and M. J. Frisch.,  J. Phys. Chem. 98, 11623 (1994) (10.1021/j100096a001)

    Deriv               =              1
    GGA                 =           TRUE
    Meta                =          FALSE

    Exchange Hybrid     =           TRUE
    MP2 Hybrid          =          FALSE

   => Exchange Functionals <=

    0.0800   Slater exchange
    0.7200         Becke 88

   => Exact (HF) Exchange <=

    0.2000               HF 

   => Correlation Functionals <=

    0.1900   Vosko, Wilk & Nusair (VWN5_RPA)
    0.8100   Lee, Yang & Parr

   => LibXC Density Thresholds  <==

    XC_HYB_GGA_XC_B3LYP:  1.00E-15 

   => Molecular Quadrature <=

    Radial Scheme          =       TREUTLER
    Pruning Scheme         =           NONE
    Nuclear Scheme         =       TREUTLER

    Blocking Scheme        =         OCTREE
    BS radius alpha        =              1
    Pruning alpha          =              1
    Radial Points          =             75
    Spherical Points       =            302
    Total Points           =          43710
    Total Blocks           =            428
    Max Points             =            253
    Max Functions          =             32
    Weights Tolerance      =       1.00E-15

   => Loading Basis Set <=

    Name: (CC-PVDZ AUX)
    Role: JKFIT
    Keyword: DF_BASIS_SCF
    atoms 1 entry B          line    71 file /Users/joseantoniorodriguesromero/anaconda3/share/psi4/basis/cc-pvdz-jkfit.gbs 
    atoms 2 entry NA         line   498 file /Users/joseantoniorodriguesromero/anaconda3/share/psi4/basis/def2-universal-jkfit.gbs 

   => Loading Basis Set <=

    Name: CC-PVDZ
    Role: ORBITAL
    Keyword: BASIS
    atoms 1 entry B          line   108 file /Users/joseantoniorodriguesromero/anaconda3/share/psi4/basis/cc-pvdz.gbs 
    atoms 2 entry NA         line   288 file /Users/joseantoniorodriguesromero/anaconda3/share/psi4/basis/cc-pvdz.gbs 

  Reading orbitals from file /tmp/quintet_BNa.default.68669.180.npy, no projection.

  ==> Integral Setup <==

  DFHelper Memory: AOs need 0.002 GiB; user supplied 0.326 GiB. 
  Using in-core AOs.

  ==> MemDFJK: Density-Fitted J/K Matrices <==

    J tasked:                   Yes
    K tasked:                   Yes
    wK tasked:                   No
    OpenMP threads:               1
    Memory [MiB]:               334
    Algorithm:                 Core
    Schwarz Cutoff:           1E-12
    Mask sparsity (%):       0.0000
    Fitting Condition:        1E-10

   => Auxiliary Basis Set <=

  Basis Set: (CC-PVDZ AUX)
    Blend: CC-PVDZ-JKFIT + DEF2-UNIVERSAL-JKFIT
    Number of shells: 58
    Number of basis functions: 182
    Number of Cartesian functions: 218
    Spherical Harmonics?: true
    Max angular momentum: 4

  Cached 100.0% of DFT collocation blocks in 0.040 [GiB].

  Minimum eigenvalue in the overlap matrix is 1.9664791884E-03.
  Reciprocal condition number of the overlap matrix is 6.3156607628E-04.
    Using symmetric orthogonalization.

  ==> Pre-Iterations <==

  SCF Guess: Orbitals guess was supplied from a previous computation.

   -------------------------------------------------------
    Irrep   Nso     Nmo     Nalpha   Nbeta   Ndocc  Nsocc
   -------------------------------------------------------
     A1        16      16       6       4       4       2
     A2         2       2       0       0       0       0
     B1         7       7       2       1       1       1
     B2         7       7       2       1       1       1
   -------------------------------------------------------
    Total      32      32      10       6       6       4
   -------------------------------------------------------

  ==> Iterations <==

                           Total Energy        Delta E     RMS |[F,P]|

   @DF-UKS iter   0:  -186.53661580405219   -1.86537e+02   9.33843e-03 
   @DF-UKS iter   1:  -186.54898583324373   -1.23700e-02   5.22280e-04 DIIS/ADIIS
   @DF-UKS iter   2:  -186.54908801018865   -1.02177e-04   4.55697e-04 DIIS/ADIIS/DAMP=1%
   @DF-UKS iter   3:  -186.54942912464833   -3.41114e-04   3.92700e-05 DIIS/DAMP=1%
   @DF-UKS iter   4:  -186.54915114814503    2.77977e-04   1.34332e-05 DIIS/DAMP=1%
   @DF-UKS iter   5:  -186.54918278597489   -3.16378e-05   1.45825e-06 DIIS/DAMP=1%
   @DF-UKS iter   6:  -186.54917443377411    8.35220e-06   3.54971e-07 DIIS/DAMP=1%
   @DF-UKS iter   7:  -186.54917633333412   -1.89956e-06   2.33984e-08 DIIS/DAMP=1%
   @DF-UKS iter   8:  -186.54917610743510    2.25899e-07   5.19724e-09 DIIS/DAMP=1%
   @DF-UKS iter   9:  -186.54917612414178   -1.67067e-08   9.26998e-10 DIIS/DAMP=1%
   @DF-UKS iter  10:  -186.54917611996748    4.17430e-09   7.54260e-11 DIIS/DAMP=1%
  Energy and wave function converged.


  ==> Post-Iterations <==

   Electrons on quadrature grid:
      Nalpha   =   10.0000004547 ; deviation = 4.547e-07
      Nbeta    =    6.0000002552 ; deviation = 2.552e-07
      Ntotal   =   16.0000007098 ; deviation = 7.098e-07 

   @Spin Contamination Metric:   1.474749295E-04
   @S^2 Expected:                6.000000000E+00
   @S^2 Observed:                6.000147475E+00
   @S   Expected:                2.000000000E+00
   @S   Observed:                2.000000000E+00

    Orbital Energies [Eh]
    ---------------------

    Alpha Occupied:                                                       

       1A1   -38.683979     2A1    -6.903225     3A1    -2.425909  
       4A1    -1.386985     1B2    -1.327878     1B1    -1.327878  
       5A1    -0.427157     2B1    -0.253725     2B2    -0.253725  
       6A1    -0.137278  

    Alpha Virtual:                                                        

       7A1    -0.015030     3B2     0.000334     3B1     0.000334  
       8A1     0.016643     9A1     0.062219     4B1     0.079881  
       4B2     0.079881    10A1     0.135947     1A2     0.135947  
      11A1     0.175233     5B1     0.241602     5B2     0.241602  
       6B2     0.297366     6B1     0.297366    12A1     0.335363  
      13A1     0.356632    14A1     0.681233     2A2     0.681233  
       7B1     0.730127     7B2     0.730127    15A1     0.826304  
      16A1     0.992799  

    Beta Occupied:                                                        

       1A1   -38.676113     2A1    -6.860197     3A1    -2.411701  
       4A1    -1.373330     1B2    -1.314778     1B1    -1.314778  

    Beta Virtual:                                                         

       5A1    -0.182168     2B1    -0.043902     2B2    -0.043902  
       6A1    -0.037483     7A1     0.031493     3B1     0.035071  
       3B2     0.035071     8A1     0.050224     9A1     0.109193  
       4B1     0.112924     4B2     0.112924    10A1     0.175910  
       1A2     0.175966    11A1     0.231183     5B1     0.286819  
       5B2     0.286819     6B2     0.383736     6B1     0.383736  
      12A1     0.384607    13A1     0.426600     2A2     0.834085  
      14A1     0.834119     7B1     0.846152     7B2     0.846152  
      15A1     0.885322    16A1     1.098992  

    Final Occupation by Irrep:
             A1    A2    B1    B2 
    DOCC [     4,    0,    1,    1 ]
    SOCC [     2,    0,    1,    1 ]
    NA   [     6,    0,    2,    2 ]
    NB   [     4,    0,    1,    1 ]

  @DF-UKS Final Energy:  -186.54917611996748

   => Energetics <=

    Nuclear Repulsion Energy =             22.8107108224204254
    One-Electron Energy =                -302.9470516891124134
    Two-Electron Energy =                 108.5253899611987407
    DFT Exchange-Correlation Energy =     -14.9382252144742722
    Empirical Dispersion Energy =           0.0000000000000000
    VV10 Nonlocal Energy =                  0.0000000000000000
    Total Energy =                       -186.5491761199674841

  UHF NO Occupations:
  HONO-2 :    2 B1 1.0000000
  HONO-1 :    2 B2 1.0000000
  HONO-0 :    6 A1 1.0000000
  LUNO+0 :    7 A1 0.0000601
  LUNO+1 :    3 B1 0.0000056
  LUNO+2 :    3 B2 0.0000056
  LUNO+3 :    8 A1 0.0000020


Computation Completed


Properties will be evaluated at   0.000000,   0.000000,   0.000000 [a0]

Properties computed using the SCF density matrix


 Multipole Moments:

 ------------------------------------------------------------------------------------
     Multipole            Electronic (a.u.)      Nuclear  (a.u.)        Total (a.u.)
 ------------------------------------------------------------------------------------

 L = 1.  Multiply by 2.5417464519 to convert [e a0] to [Debye]
 Dipole X            :          0.0000000            0.0000000            0.0000000
 Dipole Y            :          0.0000000            0.0000000            0.0000000
 Dipole Z            :          0.2247377           -0.4363951           -0.2116574
 Magnitude           :                                                    0.2116574

 ------------------------------------------------------------------------------------

*** tstop() called on Joses-MacBook-Pro-2.local at Wed Jul 16 18:52:25 2025
Module time:
	user time   =       3.09 seconds =       0.05 minutes
	system time =       4.57 seconds =       0.08 minutes
	total time  =          0 seconds =       0.00 minutes
Total time:
	user time   =       7.26 seconds =       0.12 minutes
	system time =      13.42 seconds =       0.22 minutes
	total time  =          2 seconds =       0.03 minutes

*** tstart() called on Joses-MacBook-Pro-2.local
*** at Wed Jul 16 18:52:25 2025


         ------------------------------------------------------------
                                   SCF GRAD                          
                          Rob Parrish, Justin Turney,                
                       Andy Simmonett, and Alex Sokolov              
         ------------------------------------------------------------

  ==> Geometry <==

    Molecular point group: c2v
    Full point group: C_inf_v

    Geometry (in Angstrom), charge = 0, multiplicity = 5:

       Center              X                  Y                   Z               Mass       
    ------------   -----------------  -----------------  -----------------  -----------------
         B            0.000000000000     0.000000000000     0.862765001261    11.009305360000
         NA           0.000000000000     0.000000000000    -0.413159577040    22.989769282000

  Nuclear repulsion =   22.810710822420425

  ==> Basis Set <==

  Basis Set: CC-PVDZ
    Blend: CC-PVDZ
    Number of shells: 14
    Number of basis functions: 32
    Number of Cartesian functions: 34
    Spherical Harmonics?: true
    Max angular momentum: 2

  ==> DFJKGrad: Density-Fitted SCF Gradients <==

    Gradient:                    1
    J tasked:                  Yes
    K tasked:                  Yes
    wK tasked:                  No
    OpenMP threads:              1
    Integrals threads:           1
    Memory [MiB]:              375
    Schwarz Cutoff:          1E-12
    Fitting Condition:       1E-10

   => Auxiliary Basis Set <=

  Basis Set: (CC-PVDZ AUX)
    Blend: CC-PVDZ-JKFIT + DEF2-UNIVERSAL-JKFIT
    Number of shells: 58
    Number of basis functions: 182
    Number of Cartesian functions: 218
    Spherical Harmonics?: true
    Max angular momentum: 4

  ==> DFT Potential <==

   => LibXC <=

    Version 6.2.2
    S. Lehtola, C. Steigemann, M. J.T. Oliveira, and M. A.L. Marques.,  SoftwareX 7, 1–5 (2018) (10.1016/j.softx.2017.11.002)

   => Composite Functional: B3LYP <= 

    B3LYP Hyb-GGA Exchange-Correlation Functional

    P. J. Stephens, F. J. Devlin, C. F. Chabalowski, and M. J. Frisch.,  J. Phys. Chem. 98, 11623 (1994) (10.1021/j100096a001)

    Deriv               =              1
    GGA                 =           TRUE
    Meta                =          FALSE

    Exchange Hybrid     =           TRUE
    MP2 Hybrid          =          FALSE

   => Exchange Functionals <=

    0.0800   Slater exchange
    0.7200         Becke 88

   => Exact (HF) Exchange <=

    0.2000               HF 

   => Correlation Functionals <=

    0.1900   Vosko, Wilk & Nusair (VWN5_RPA)
    0.8100   Lee, Yang & Parr

   => LibXC Density Thresholds  <==

    XC_HYB_GGA_XC_B3LYP:  1.00E-15 

   => Molecular Quadrature <=

    Radial Scheme          =       TREUTLER
    Pruning Scheme         =           NONE
    Nuclear Scheme         =       TREUTLER

    Blocking Scheme        =         OCTREE
    BS radius alpha        =              1
    Pruning alpha          =              1
    Radial Points          =             75
    Spherical Points       =            302
    Total Points           =          43710
    Total Blocks           =            428
    Max Points             =            253
    Max Functions          =             32
    Weights Tolerance      =       1.00E-15


  -Total Gradient:
     Atom            X                  Y                   Z
    ------   -----------------  -----------------  -----------------
       1        0.000000000000     0.000000000000    -0.482761737435
       2        0.000000000000    -0.000000000000     0.482779138215


*** tstop() called on Joses-MacBook-Pro-2.local at Wed Jul 16 18:52:26 2025
Module time:
	user time   =       0.85 seconds =       0.01 minutes
	system time =       1.92 seconds =       0.03 minutes
	total time  =          1 seconds =       0.02 minutes
Total time:
	user time   =       8.11 seconds =       0.14 minutes
	system time =      15.34 seconds =       0.26 minutes
	total time  =          3 seconds =       0.05 minutes

    			-----------------------------------------

    			 OPTKING 3.0: for geometry optimizations 

    			     By R.A. King, Bethel University     

    			        with contributions from          

    			    A.V. Copan, J. Cayton, A. Heide      

    			-----------------------------------------

    
	                            ===> Fragment 1 <== 

	 Z (Atomic Numbers)          Masses                          Geom                  
	       5.000000            11.009305          0.00000000  0.00000000  1.63038956   
	      11.000000            22.989769          0.00000000  0.00000000 -0.78075845   

	 - Coordinate -           - BOHR/RAD -       - ANG/DEG -
	 R(1,2)           =         2.411148           1.275925


	        --- Internal Coordinate Step in ANG or DEG, aJ/ANG or AJ/DEG ---
	-------------------------------------------------------------------------------
	           Coordinate      Previous         Force          Change          New 
	           ----------      --------        ------          ------        ------
	               R(1,2)       1.27592        3.97741        0.11627       1.39220
	-------------------------------------------------------------------------------

	                                 ==> Convergence Check <==                                  
    
	Measures of convergence in internal coordinates in au.
    
	Criteria marked as inactive (o), active & met (*), and active & unmet ( ).

	----------------------------------------------------------------------------------------------
	   Step    Total Energy     Delta E     Max Force     RMS Force      Max Disp      RMS Disp   
	----------------------------------------------------------------------------------------------
	  Convergence Criteria     1.00e-06 *    3.00e-04 *             o    1.20e-03 *             o
	----------------------------------------------------------------------------------------------
	     2    -186.54917612   -7.80e-02      4.83e-01      4.83e-01 o    2.20e-01      2.20e-01 o  ~
	----------------------------------------------------------------------------------------------

Next Geometry in Ang 
	Fragment 1 (Ang)

	    B   0.0000000000   0.0000000000   0.9209010140
	   Na   0.0000000000   0.0000000000  -0.4712955898


    Structure for next step:
    Molecular point group: c2v
    Full point group: C_inf_v

    Geometry (in Angstrom), charge = 0, multiplicity = 5:

    B            0.000000000000     0.000000000000     0.941386759912
    NA           0.000000000000     0.000000000000    -0.450809843918


Scratch directory: /tmp/
gradient() will perform analytic gradient computation.
   => Libint2 <=

    Primary   basis highest AM E, G, H:  6, 6, 3
    Auxiliary basis highest AM E, G, H:  7, 7, 4
    Onebody   basis highest AM E, G, H:  -, -, -
    Solid Harmonics ordering:            Gaussian

*** tstart() called on Joses-MacBook-Pro-2.local
*** at Wed Jul 16 18:52:26 2025

   => Loading Basis Set <=

    Name: CC-PVDZ
    Role: ORBITAL
    Keyword: BASIS
    atoms 1 entry B          line   108 file /Users/joseantoniorodriguesromero/anaconda3/share/psi4/basis/cc-pvdz.gbs 
    atoms 2 entry NA         line   288 file /Users/joseantoniorodriguesromero/anaconda3/share/psi4/basis/cc-pvdz.gbs 


         ---------------------------------------------------------
                                   SCF
               by Justin Turney, Rob Parrish, Andy Simmonett
                          and Daniel G. A. Smith
                              UKS Reference
                        1 Threads,    500 MiB Core
         ---------------------------------------------------------

  ==> Geometry <==

    Molecular point group: c2v
    Full point group: C_inf_v

    Geometry (in Angstrom), charge = 0, multiplicity = 5:

       Center              X                  Y                   Z               Mass       
    ------------   -----------------  -----------------  -----------------  -----------------
         B            0.000000000000     0.000000000000     0.941386759912    11.009305360000
         NA           0.000000000000     0.000000000000    -0.450809843918    22.989769282000

  Running in c2v symmetry.

  Rotational constants: A = ************  B =      1.16834  C =      1.16834 [cm^-1]
  Rotational constants: A = ************  B =  35025.84534  C =  35025.84534 [MHz]
  Nuclear repulsion =   20.905629640787534

  Charge       = 0
  Multiplicity = 5
  Electrons    = 16
  Nalpha       = 10
  Nbeta        = 6

  ==> Algorithm <==

  SCF Algorithm Type is DF.
  DIIS enabled.
  MOM disabled.
  Fractional occupation disabled.
  Guess Type is READ.
  Energy threshold   = 1.00e-08
  Density threshold  = 1.00e-08
  Integral threshold = 1.00e-12

  ==> Primary Basis <==

  Basis Set: CC-PVDZ
    Blend: CC-PVDZ
    Number of shells: 14
    Number of basis functions: 32
    Number of Cartesian functions: 34
    Spherical Harmonics?: true
    Max angular momentum: 2

  ==> DFT Potential <==

   => LibXC <=

    Version 6.2.2
    S. Lehtola, C. Steigemann, M. J.T. Oliveira, and M. A.L. Marques.,  SoftwareX 7, 1–5 (2018) (10.1016/j.softx.2017.11.002)

   => Composite Functional: B3LYP <= 

    B3LYP Hyb-GGA Exchange-Correlation Functional

    P. J. Stephens, F. J. Devlin, C. F. Chabalowski, and M. J. Frisch.,  J. Phys. Chem. 98, 11623 (1994) (10.1021/j100096a001)

    Deriv               =              1
    GGA                 =           TRUE
    Meta                =          FALSE

    Exchange Hybrid     =           TRUE
    MP2 Hybrid          =          FALSE

   => Exchange Functionals <=

    0.0800   Slater exchange
    0.7200         Becke 88

   => Exact (HF) Exchange <=

    0.2000               HF 

   => Correlation Functionals <=

    0.1900   Vosko, Wilk & Nusair (VWN5_RPA)
    0.8100   Lee, Yang & Parr

   => LibXC Density Thresholds  <==

    XC_HYB_GGA_XC_B3LYP:  1.00E-15 

   => Molecular Quadrature <=

    Radial Scheme          =       TREUTLER
    Pruning Scheme         =           NONE
    Nuclear Scheme         =       TREUTLER

    Blocking Scheme        =         OCTREE
    BS radius alpha        =              1
    Pruning alpha          =              1
    Radial Points          =             75
    Spherical Points       =            302
    Total Points           =          43729
    Total Blocks           =            430
    Max Points             =            256
    Max Functions          =             32
    Weights Tolerance      =       1.00E-15

   => Loading Basis Set <=

    Name: (CC-PVDZ AUX)
    Role: JKFIT
    Keyword: DF_BASIS_SCF
    atoms 1 entry B          line    71 file /Users/joseantoniorodriguesromero/anaconda3/share/psi4/basis/cc-pvdz-jkfit.gbs 
    atoms 2 entry NA         line   498 file /Users/joseantoniorodriguesromero/anaconda3/share/psi4/basis/def2-universal-jkfit.gbs 

   => Loading Basis Set <=

    Name: CC-PVDZ
    Role: ORBITAL
    Keyword: BASIS
    atoms 1 entry B          line   108 file /Users/joseantoniorodriguesromero/anaconda3/share/psi4/basis/cc-pvdz.gbs 
    atoms 2 entry NA         line   288 file /Users/joseantoniorodriguesromero/anaconda3/share/psi4/basis/cc-pvdz.gbs 

  Reading orbitals from file /tmp/quintet_BNa.default.68669.180.npy, no projection.

  ==> Integral Setup <==

  DFHelper Memory: AOs need 0.002 GiB; user supplied 0.326 GiB. 
  Using in-core AOs.

  ==> MemDFJK: Density-Fitted J/K Matrices <==

    J tasked:                   Yes
    K tasked:                   Yes
    wK tasked:                   No
    OpenMP threads:               1
    Memory [MiB]:               334
    Algorithm:                 Core
    Schwarz Cutoff:           1E-12
    Mask sparsity (%):       0.0000
    Fitting Condition:        1E-10

   => Auxiliary Basis Set <=

  Basis Set: (CC-PVDZ AUX)
    Blend: CC-PVDZ-JKFIT + DEF2-UNIVERSAL-JKFIT
    Number of shells: 58
    Number of basis functions: 182
    Number of Cartesian functions: 218
    Spherical Harmonics?: true
    Max angular momentum: 4

  Cached 100.0% of DFT collocation blocks in 0.040 [GiB].

  Minimum eigenvalue in the overlap matrix is 1.9571898443E-03.
  Reciprocal condition number of the overlap matrix is 6.2795554338E-04.
    Using symmetric orthogonalization.

  ==> Pre-Iterations <==

  SCF Guess: Orbitals guess was supplied from a previous computation.

   -------------------------------------------------------
    Irrep   Nso     Nmo     Nalpha   Nbeta   Ndocc  Nsocc
   -------------------------------------------------------
     A1        16      16       6       4       4       2
     A2         2       2       0       0       0       0
     B1         7       7       2       1       1       1
     B2         7       7       2       1       1       1
   -------------------------------------------------------
    Total      32      32      10       6       6       4
   -------------------------------------------------------

  ==> Iterations <==

                           Total Energy        Delta E     RMS |[F,P]|

   @DF-UKS iter   0:  -186.61535054977600   -1.86615e+02   1.29015e-02 
   @DF-UKS iter   1:  -186.63950569774786   -2.41551e-02   7.15080e-04 DIIS/ADIIS
   @DF-UKS iter   2:  -186.63970449825447   -1.98801e-04   6.55157e-04 DIIS/ADIIS/DAMP=1%
   @DF-UKS iter   3:  -186.64024297188567   -5.38474e-04   7.43838e-05 DIIS/DAMP=1%
   @DF-UKS iter   4:  -186.63977144945099    4.71522e-04   5.18056e-05 DIIS/DAMP=1%
   @DF-UKS iter   5:  -186.63991823584496   -1.46786e-04   3.16061e-06 DIIS/DAMP=1%
   @DF-UKS iter   6:  -186.63988375444654    3.44814e-05   8.05399e-07 DIIS/DAMP=1%
   @DF-UKS iter   7:  -186.63988711255067   -3.35810e-06   6.75498e-08 DIIS/DAMP=1%
   @DF-UKS iter   8:  -186.63988683791101    2.74640e-07   1.06314e-08 DIIS/DAMP=1%
   @DF-UKS iter   9:  -186.63988683255599    5.35502e-09   1.84161e-09 DIIS/DAMP=1%
  Energy and wave function converged.


  ==> Post-Iterations <==

   Electrons on quadrature grid:
      Nalpha   =    9.9999998983 ; deviation = -1.017e-07
      Nbeta    =    5.9999996070 ; deviation = -3.930e-07
      Ntotal   =   15.9999995053 ; deviation = -4.947e-07 

   @Spin Contamination Metric:   1.568130268E-04
   @S^2 Expected:                6.000000000E+00
   @S^2 Observed:                6.000156813E+00
   @S   Expected:                2.000000000E+00
   @S   Observed:                2.000000000E+00

    Orbital Energies [Eh]
    ---------------------

    Alpha Occupied:                                                       

       1A1   -38.616472     2A1    -6.857244     3A1    -2.360422  
       4A1    -1.320903     1B1    -1.273019     1B2    -1.273019  
       5A1    -0.418648     2B2    -0.229818     2B1    -0.229818  
       6A1    -0.141670  

    Alpha Virtual:                                                        

       7A1    -0.031061     3B1     0.002446     3B2     0.002446  
       8A1     0.018759     9A1     0.059340     4B2     0.082104  
       4B1     0.082104    10A1     0.141979     1A2     0.141979  
      11A1     0.159362     5B2     0.242123     5B1     0.242123  
       6B2     0.308152     6B1     0.308152    12A1     0.336688  
      13A1     0.365913     2A2     0.697957    14A1     0.697958  
       7B2     0.747209     7B1     0.747209    15A1     0.849252  
      16A1     0.971160  

    Beta Occupied:                                                        

       1A1   -38.609105     2A1    -6.813772     3A1    -2.347132  
       4A1    -1.306313     1B1    -1.262020     1B2    -1.262020  

    Beta Virtual:                                                         

       5A1    -0.174615     6A1    -0.040288     2B2    -0.030246  
       2B1    -0.030246     7A1     0.033505     3B2     0.041381  
       3B1     0.041381     8A1     0.049023     9A1     0.101034  
       4B2     0.111943     4B1     0.111943    10A1     0.176449  
       1A2     0.176455    11A1     0.211143     5B2     0.283955  
       5B1     0.283955    12A1     0.382871     6B2     0.401511  
       6B1     0.401511    13A1     0.444258     2A2     0.855195  
      14A1     0.855225     7B2     0.868137     7B1     0.868137  
      15A1     0.916671    16A1     1.076231  

    Final Occupation by Irrep:
             A1    A2    B1    B2 
    DOCC [     4,    0,    1,    1 ]
    SOCC [     2,    0,    1,    1 ]
    NA   [     6,    0,    2,    2 ]
    NB   [     4,    0,    1,    1 ]

  @DF-UKS Final Energy:  -186.63988683255599

   => Energetics <=

    Nuclear Repulsion Energy =             20.9056296407875344
    One-Electron Energy =                -300.0742539537471316
    Two-Electron Energy =                 107.4694165424930929
    DFT Exchange-Correlation Energy =     -14.9406790620894796
    Empirical Dispersion Energy =           0.0000000000000000
    VV10 Nonlocal Energy =                  0.0000000000000000
    Total Energy =                       -186.6398868325559874

  UHF NO Occupations:
  HONO-2 :    2 B1 1.0000000
  HONO-1 :    2 B2 1.0000000
  HONO-0 :    6 A1 1.0000000
  LUNO+0 :    7 A1 0.0000665
  LUNO+1 :    3 B2 0.0000048
  LUNO+2 :    3 B1 0.0000048
  LUNO+3 :    8 A1 0.0000019


Computation Completed


Properties will be evaluated at   0.000000,   0.000000,   0.000000 [a0]

Properties computed using the SCF density matrix


 Multipole Moments:

 ------------------------------------------------------------------------------------
     Multipole            Electronic (a.u.)      Nuclear  (a.u.)        Total (a.u.)
 ------------------------------------------------------------------------------------

 L = 1.  Multiply by 2.5417464519 to convert [e a0] to [Debye]
 Dipole X            :          0.0000000            0.0000000            0.0000000
 Dipole Y            :          0.0000000            0.0000000            0.0000000
 Dipole Z            :         -0.2447647           -0.4761628           -0.7209275
 Magnitude           :                                                    0.7209275

 ------------------------------------------------------------------------------------

*** tstop() called on Joses-MacBook-Pro-2.local at Wed Jul 16 18:52:27 2025
Module time:
	user time   =       3.03 seconds =       0.05 minutes
	system time =       5.48 seconds =       0.09 minutes
	total time  =          1 seconds =       0.02 minutes
Total time:
	user time   =      11.28 seconds =       0.19 minutes
	system time =      20.93 seconds =       0.35 minutes
	total time  =          4 seconds =       0.07 minutes

*** tstart() called on Joses-MacBook-Pro-2.local
*** at Wed Jul 16 18:52:27 2025


         ------------------------------------------------------------
                                   SCF GRAD                          
                          Rob Parrish, Justin Turney,                
                       Andy Simmonett, and Alex Sokolov              
         ------------------------------------------------------------

  ==> Geometry <==

    Molecular point group: c2v
    Full point group: C_inf_v

    Geometry (in Angstrom), charge = 0, multiplicity = 5:

       Center              X                  Y                   Z               Mass       
    ------------   -----------------  -----------------  -----------------  -----------------
         B            0.000000000000     0.000000000000     0.941386759912    11.009305360000
         NA           0.000000000000     0.000000000000    -0.450809843918    22.989769282000

  Nuclear repulsion =   20.905629640787534

  ==> Basis Set <==

  Basis Set: CC-PVDZ
    Blend: CC-PVDZ
    Number of shells: 14
    Number of basis functions: 32
    Number of Cartesian functions: 34
    Spherical Harmonics?: true
    Max angular momentum: 2

  ==> DFJKGrad: Density-Fitted SCF Gradients <==

    Gradient:                    1
    J tasked:                  Yes
    K tasked:                  Yes
    wK tasked:                  No
    OpenMP threads:              1
    Integrals threads:           1
    Memory [MiB]:              375
    Schwarz Cutoff:          1E-12
    Fitting Condition:       1E-10

   => Auxiliary Basis Set <=

  Basis Set: (CC-PVDZ AUX)
    Blend: CC-PVDZ-JKFIT + DEF2-UNIVERSAL-JKFIT
    Number of shells: 58
    Number of basis functions: 182
    Number of Cartesian functions: 218
    Spherical Harmonics?: true
    Max angular momentum: 4

  ==> DFT Potential <==

   => LibXC <=

    Version 6.2.2
    S. Lehtola, C. Steigemann, M. J.T. Oliveira, and M. A.L. Marques.,  SoftwareX 7, 1–5 (2018) (10.1016/j.softx.2017.11.002)

   => Composite Functional: B3LYP <= 

    B3LYP Hyb-GGA Exchange-Correlation Functional

    P. J. Stephens, F. J. Devlin, C. F. Chabalowski, and M. J. Frisch.,  J. Phys. Chem. 98, 11623 (1994) (10.1021/j100096a001)

    Deriv               =              1
    GGA                 =           TRUE
    Meta                =          FALSE

    Exchange Hybrid     =           TRUE
    MP2 Hybrid          =          FALSE

   => Exchange Functionals <=

    0.0800   Slater exchange
    0.7200         Becke 88

   => Exact (HF) Exchange <=

    0.2000               HF 

   => Correlation Functionals <=

    0.1900   Vosko, Wilk & Nusair (VWN5_RPA)
    0.8100   Lee, Yang & Parr

   => LibXC Density Thresholds  <==

    XC_HYB_GGA_XC_B3LYP:  1.00E-15 

   => Molecular Quadrature <=

    Radial Scheme          =       TREUTLER
    Pruning Scheme         =           NONE
    Nuclear Scheme         =       TREUTLER

    Blocking Scheme        =         OCTREE
    BS radius alpha        =              1
    Pruning alpha          =              1
    Radial Points          =             75
    Spherical Points       =            302
    Total Points           =          43729
    Total Blocks           =            430
    Max Points             =            256
    Max Functions          =             32
    Weights Tolerance      =       1.00E-15


  -Total Gradient:
     Atom            X                  Y                   Z
    ------   -----------------  -----------------  -----------------
       1        0.000000000000     0.000000000000    -0.352694102881
       2       -0.000000000000     0.000000000000     0.352707365065


*** tstop() called on Joses-MacBook-Pro-2.local at Wed Jul 16 18:52:27 2025
Module time:
	user time   =       0.77 seconds =       0.01 minutes
	system time =       2.27 seconds =       0.04 minutes
	total time  =          0 seconds =       0.00 minutes
Total time:
	user time   =      12.06 seconds =       0.20 minutes
	system time =      23.20 seconds =       0.39 minutes
	total time  =          4 seconds =       0.07 minutes

    			-----------------------------------------

    			 OPTKING 3.0: for geometry optimizations 

    			     By R.A. King, Bethel University     

    			        with contributions from          

    			    A.V. Copan, J. Cayton, A. Heide      

    			-----------------------------------------

    
	                            ===> Fragment 1 <== 

	 Z (Atomic Numbers)          Masses                          Geom                  
	       5.000000            11.009305          0.00000000  0.00000000  1.77896315   
	      11.000000            22.989769          0.00000000  0.00000000 -0.85190714   

	 - Coordinate -           - BOHR/RAD -       - ANG/DEG -
	 R(1,2)           =         2.630870           1.392197


	        --- Internal Coordinate Step in ANG or DEG, aJ/ANG or AJ/DEG ---
	-------------------------------------------------------------------------------
	           Coordinate      Previous         Force          Change          New 
	           ----------      --------        ------          ------        ------
	               R(1,2)       1.39220        2.90580        0.21694       1.60913
	-------------------------------------------------------------------------------

	                                 ==> Convergence Check <==                                  
    
	Measures of convergence in internal coordinates in au.
    
	Criteria marked as inactive (o), active & met (*), and active & unmet ( ).

	----------------------------------------------------------------------------------------------
	   Step    Total Energy     Delta E     Max Force     RMS Force      Max Disp      RMS Disp   
	----------------------------------------------------------------------------------------------
	  Convergence Criteria     1.00e-06 *    3.00e-04 *             o    1.20e-03 *             o
	----------------------------------------------------------------------------------------------
	     3    -186.63988683   -9.07e-02      3.53e-01      3.53e-01 o    4.10e-01      4.10e-01 o  ~
	----------------------------------------------------------------------------------------------

Next Geometry in Ang 
	Fragment 1 (Ang)

	    B   0.0000000000   0.0000000000   1.0498553377
	   Na   0.0000000000   0.0000000000  -0.5592784217


    Structure for next step:
    Molecular point group: c2v
    Full point group: C_inf_v

    Geometry (in Angstrom), charge = 0, multiplicity = 5:

    B            0.000000000000     0.000000000000     1.088077080395
    NA           0.000000000000     0.000000000000    -0.521056679010


Scratch directory: /tmp/
gradient() will perform analytic gradient computation.
   => Libint2 <=

    Primary   basis highest AM E, G, H:  6, 6, 3
    Auxiliary basis highest AM E, G, H:  7, 7, 4
    Onebody   basis highest AM E, G, H:  -, -, -
    Solid Harmonics ordering:            Gaussian

*** tstart() called on Joses-MacBook-Pro-2.local
*** at Wed Jul 16 18:52:27 2025

   => Loading Basis Set <=

    Name: CC-PVDZ
    Role: ORBITAL
    Keyword: BASIS
    atoms 1 entry B          line   108 file /Users/joseantoniorodriguesromero/anaconda3/share/psi4/basis/cc-pvdz.gbs 
    atoms 2 entry NA         line   288 file /Users/joseantoniorodriguesromero/anaconda3/share/psi4/basis/cc-pvdz.gbs 


         ---------------------------------------------------------
                                   SCF
               by Justin Turney, Rob Parrish, Andy Simmonett
                          and Daniel G. A. Smith
                              UKS Reference
                        1 Threads,    500 MiB Core
         ---------------------------------------------------------

  ==> Geometry <==

    Molecular point group: c2v
    Full point group: C_inf_v

    Geometry (in Angstrom), charge = 0, multiplicity = 5:

       Center              X                  Y                   Z               Mass       
    ------------   -----------------  -----------------  -----------------  -----------------
         B            0.000000000000     0.000000000000     1.088077080395    11.009305360000
         NA           0.000000000000     0.000000000000    -0.521056679010    22.989769282000

  Running in c2v symmetry.

  Rotational constants: A = ************  B =      0.87455  C =      0.87455 [cm^-1]
  Rotational constants: A = ************  B =  26218.35702  C =  26218.35702 [MHz]
  Nuclear repulsion =   18.087213953924788

  Charge       = 0
  Multiplicity = 5
  Electrons    = 16
  Nalpha       = 10
  Nbeta        = 6

  ==> Algorithm <==

  SCF Algorithm Type is DF.
  DIIS enabled.
  MOM disabled.
  Fractional occupation disabled.
  Guess Type is READ.
  Energy threshold   = 1.00e-08
  Density threshold  = 1.00e-08
  Integral threshold = 1.00e-12

  ==> Primary Basis <==

  Basis Set: CC-PVDZ
    Blend: CC-PVDZ
    Number of shells: 14
    Number of basis functions: 32
    Number of Cartesian functions: 34
    Spherical Harmonics?: true
    Max angular momentum: 2

  ==> DFT Potential <==

   => LibXC <=

    Version 6.2.2
    S. Lehtola, C. Steigemann, M. J.T. Oliveira, and M. A.L. Marques.,  SoftwareX 7, 1–5 (2018) (10.1016/j.softx.2017.11.002)

   => Composite Functional: B3LYP <= 

    B3LYP Hyb-GGA Exchange-Correlation Functional

    P. J. Stephens, F. J. Devlin, C. F. Chabalowski, and M. J. Frisch.,  J. Phys. Chem. 98, 11623 (1994) (10.1021/j100096a001)

    Deriv               =              1
    GGA                 =           TRUE
    Meta                =          FALSE

    Exchange Hybrid     =           TRUE
    MP2 Hybrid          =          FALSE

   => Exchange Functionals <=

    0.0800   Slater exchange
    0.7200         Becke 88

   => Exact (HF) Exchange <=

    0.2000               HF 

   => Correlation Functionals <=

    0.1900   Vosko, Wilk & Nusair (VWN5_RPA)
    0.8100   Lee, Yang & Parr

   => LibXC Density Thresholds  <==

    XC_HYB_GGA_XC_B3LYP:  1.00E-15 

   => Molecular Quadrature <=

    Radial Scheme          =       TREUTLER
    Pruning Scheme         =           NONE
    Nuclear Scheme         =       TREUTLER

    Blocking Scheme        =         OCTREE
    BS radius alpha        =              1
    Pruning alpha          =              1
    Radial Points          =             75
    Spherical Points       =            302
    Total Points           =          43764
    Total Blocks           =            427
    Max Points             =            256
    Max Functions          =             32
    Weights Tolerance      =       1.00E-15

   => Loading Basis Set <=

    Name: (CC-PVDZ AUX)
    Role: JKFIT
    Keyword: DF_BASIS_SCF
    atoms 1 entry B          line    71 file /Users/joseantoniorodriguesromero/anaconda3/share/psi4/basis/cc-pvdz-jkfit.gbs 
    atoms 2 entry NA         line   498 file /Users/joseantoniorodriguesromero/anaconda3/share/psi4/basis/def2-universal-jkfit.gbs 

   => Loading Basis Set <=

    Name: CC-PVDZ
    Role: ORBITAL
    Keyword: BASIS
    atoms 1 entry B          line   108 file /Users/joseantoniorodriguesromero/anaconda3/share/psi4/basis/cc-pvdz.gbs 
    atoms 2 entry NA         line   288 file /Users/joseantoniorodriguesromero/anaconda3/share/psi4/basis/cc-pvdz.gbs 

  Reading orbitals from file /tmp/quintet_BNa.default.68669.180.npy, no projection.

  ==> Integral Setup <==

  DFHelper Memory: AOs need 0.002 GiB; user supplied 0.326 GiB. 
  Using in-core AOs.

  ==> MemDFJK: Density-Fitted J/K Matrices <==

    J tasked:                   Yes
    K tasked:                   Yes
    wK tasked:                   No
    OpenMP threads:               1
    Memory [MiB]:               334
    Algorithm:                 Core
    Schwarz Cutoff:           1E-12
    Mask sparsity (%):       0.0000
    Fitting Condition:        1E-10

   => Auxiliary Basis Set <=

  Basis Set: (CC-PVDZ AUX)
    Blend: CC-PVDZ-JKFIT + DEF2-UNIVERSAL-JKFIT
    Number of shells: 58
    Number of basis functions: 182
    Number of Cartesian functions: 218
    Spherical Harmonics?: true
    Max angular momentum: 4

  Cached 100.0% of DFT collocation blocks in 0.040 [GiB].

  Minimum eigenvalue in the overlap matrix is 1.8093692516E-03.
  Reciprocal condition number of the overlap matrix is 5.8010788158E-04.
    Using symmetric orthogonalization.

  ==> Pre-Iterations <==

  SCF Guess: Orbitals guess was supplied from a previous computation.

   -------------------------------------------------------
    Irrep   Nso     Nmo     Nalpha   Nbeta   Ndocc  Nsocc
   -------------------------------------------------------
     A1        16      16       6       4       4       2
     A2         2       2       0       0       0       0
     B1         7       7       2       1       1       1
     B2         7       7       2       1       1       1
   -------------------------------------------------------
    Total      32      32      10       6       6       4
   -------------------------------------------------------

  ==> Iterations <==

                           Total Energy        Delta E     RMS |[F,P]|

   @DF-UKS iter   0:  -186.70916685659083   -1.86709e+02   2.06071e-02 
   @DF-UKS iter   1:  -186.74960773725016   -4.04409e-02   1.17885e-03 DIIS/ADIIS
   @DF-UKS iter   2:  -186.74992158655832   -3.13849e-04   1.40909e-03 DIIS/ADIIS/DAMP=1%
   @DF-UKS iter   3:  -186.75149439065868   -1.57280e-03   1.73935e-04 DIIS/ADIIS/DAMP=1%
   @DF-UKS iter   4:  -186.75073004994033    7.64341e-04   8.75419e-05 DIIS/DAMP=1%
   @DF-UKS iter   5:  -186.75086484763958   -1.34798e-04   6.29150e-06 DIIS/DAMP=1%
   @DF-UKS iter   6:  -186.75081953754128    4.53101e-05   1.71186e-06 DIIS/DAMP=1%
   @DF-UKS iter   7:  -186.75082526944112   -5.73190e-06   2.59578e-07 DIIS/DAMP=1%
   @DF-UKS iter   8:  -186.75082433984505    9.29596e-07   2.53654e-08 DIIS/DAMP=1%
   @DF-UKS iter   9:  -186.75082445116303   -1.11318e-07   2.54380e-09 DIIS/DAMP=1%
   @DF-UKS iter  10:  -186.75082445798949   -6.82647e-09   2.64912e-10 DIIS/DAMP=1%
  Energy and wave function converged.


  ==> Post-Iterations <==

   Electrons on quadrature grid:
      Nalpha   =    9.9999998669 ; deviation = -1.331e-07
      Nbeta    =    5.9999998175 ; deviation = -1.825e-07
      Ntotal   =   15.9999996844 ; deviation = -3.156e-07 

   @Spin Contamination Metric:   1.331983930E-04
   @S^2 Expected:                6.000000000E+00
   @S^2 Observed:                6.000133198E+00
   @S   Expected:                2.000000000E+00
   @S   Observed:                2.000000000E+00

    Orbital Energies [Eh]
    ---------------------

    Alpha Occupied:                                                       

       1A1   -38.535691     2A1    -6.798750     3A1    -2.286680  
       4A1    -1.237130     1B2    -1.209900     1B1    -1.209900  
       5A1    -0.408787     2B2    -0.192386     2B1    -0.192386  
       6A1    -0.150514  

    Alpha Virtual:                                                        

       7A1    -0.048692     3B1     0.004179     3B2     0.004179  
       8A1     0.021297     9A1     0.055819     4B1     0.083894  
       4B2     0.083894    10A1     0.146535     1A2     0.149851  
      11A1     0.149851     5B1     0.236471     5B2     0.236471  
       6B1     0.330747     6B2     0.330747    12A1     0.342038  
      13A1     0.385044     2A2     0.720901    14A1     0.720901  
       7B1     0.780265     7B2     0.780265    15A1     0.862830  
      16A1     0.946909  

    Beta Occupied:                                                        

       1A1   -38.529917     2A1    -6.755473     3A1    -2.276579  
       4A1    -1.223892     1B2    -1.202312     1B1    -1.202312  

    Beta Virtual:                                                         

       5A1    -0.163292     6A1    -0.047351     2B2    -0.015432  
       2B1    -0.015432     7A1     0.036715     8A1     0.047294  
       3B1     0.052336     3B2     0.052336     9A1     0.090285  
       4B1     0.107763     4B2     0.107763     1A2     0.176892  
      10A1     0.176893    11A1     0.192417     5B1     0.277678  
       5B2     0.277678    12A1     0.393617     6B1     0.429713  
       6B2     0.429713    13A1     0.470123     2A2     0.884731  
      14A1     0.884734     7B1     0.911681     7B2     0.911681  
      15A1     0.974235    16A1     1.018377  

    Final Occupation by Irrep:
             A1    A2    B1    B2 
    DOCC [     4,    0,    1,    1 ]
    SOCC [     2,    0,    1,    1 ]
    NA   [     6,    0,    2,    2 ]
    NB   [     4,    0,    1,    1 ]

  @DF-UKS Final Energy:  -186.75082445798949

   => Energetics <=

    Nuclear Repulsion Energy =             18.0872139539247883
    One-Electron Energy =                -295.5660832901604067
    Two-Electron Energy =                 105.6727580184674906
    DFT Exchange-Correlation Energy =     -14.9447131402213760
    Empirical Dispersion Energy =           0.0000000000000000
    VV10 Nonlocal Energy =                  0.0000000000000000
    Total Energy =                       -186.7508244579894949

  UHF NO Occupations:
  HONO-2 :    2 B1 1.0000000
  HONO-1 :    2 B2 1.0000000
  HONO-0 :    6 A1 1.0000000
  LUNO+0 :    7 A1 0.0000583
  LUNO+1 :    3 B1 0.0000033
  LUNO+2 :    3 B2 0.0000033
  LUNO+3 :    8 A1 0.0000012


Computation Completed


Properties will be evaluated at   0.000000,   0.000000,   0.000000 [a0]

Properties computed using the SCF density matrix


 Multipole Moments:

 ------------------------------------------------------------------------------------
     Multipole            Electronic (a.u.)      Nuclear  (a.u.)        Total (a.u.)
 ------------------------------------------------------------------------------------

 L = 1.  Multiply by 2.5417464519 to convert [e a0] to [Debye]
 Dipole X            :          0.0000000            0.0000000            0.0000000
 Dipole Y            :          0.0000000            0.0000000            0.0000000
 Dipole Z            :         -1.0150766           -0.5503602           -1.5654368
 Magnitude           :                                                    1.5654368

 ------------------------------------------------------------------------------------

*** tstop() called on Joses-MacBook-Pro-2.local at Wed Jul 16 18:52:28 2025
Module time:
	user time   =       3.42 seconds =       0.06 minutes
	system time =       5.37 seconds =       0.09 minutes
	total time  =          1 seconds =       0.02 minutes
Total time:
	user time   =      15.52 seconds =       0.26 minutes
	system time =      28.83 seconds =       0.48 minutes
	total time  =          5 seconds =       0.08 minutes

*** tstart() called on Joses-MacBook-Pro-2.local
*** at Wed Jul 16 18:52:28 2025


         ------------------------------------------------------------
                                   SCF GRAD                          
                          Rob Parrish, Justin Turney,                
                       Andy Simmonett, and Alex Sokolov              
         ------------------------------------------------------------

  ==> Geometry <==

    Molecular point group: c2v
    Full point group: C_inf_v

    Geometry (in Angstrom), charge = 0, multiplicity = 5:

       Center              X                  Y                   Z               Mass       
    ------------   -----------------  -----------------  -----------------  -----------------
         B            0.000000000000     0.000000000000     1.088077080395    11.009305360000
         NA           0.000000000000     0.000000000000    -0.521056679010    22.989769282000

  Nuclear repulsion =   18.087213953924785

  ==> Basis Set <==

  Basis Set: CC-PVDZ
    Blend: CC-PVDZ
    Number of shells: 14
    Number of basis functions: 32
    Number of Cartesian functions: 34
    Spherical Harmonics?: true
    Max angular momentum: 2

  ==> DFJKGrad: Density-Fitted SCF Gradients <==

    Gradient:                    1
    J tasked:                  Yes
    K tasked:                  Yes
    wK tasked:                  No
    OpenMP threads:              1
    Integrals threads:           1
    Memory [MiB]:              375
    Schwarz Cutoff:          1E-12
    Fitting Condition:       1E-10

   => Auxiliary Basis Set <=

  Basis Set: (CC-PVDZ AUX)
    Blend: CC-PVDZ-JKFIT + DEF2-UNIVERSAL-JKFIT
    Number of shells: 58
    Number of basis functions: 182
    Number of Cartesian functions: 218
    Spherical Harmonics?: true
    Max angular momentum: 4

  ==> DFT Potential <==

   => LibXC <=

    Version 6.2.2
    S. Lehtola, C. Steigemann, M. J.T. Oliveira, and M. A.L. Marques.,  SoftwareX 7, 1–5 (2018) (10.1016/j.softx.2017.11.002)

   => Composite Functional: B3LYP <= 

    B3LYP Hyb-GGA Exchange-Correlation Functional

    P. J. Stephens, F. J. Devlin, C. F. Chabalowski, and M. J. Frisch.,  J. Phys. Chem. 98, 11623 (1994) (10.1021/j100096a001)

    Deriv               =              1
    GGA                 =           TRUE
    Meta                =          FALSE

    Exchange Hybrid     =           TRUE
    MP2 Hybrid          =          FALSE

   => Exchange Functionals <=

    0.0800   Slater exchange
    0.7200         Becke 88

   => Exact (HF) Exchange <=

    0.2000               HF 

   => Correlation Functionals <=

    0.1900   Vosko, Wilk & Nusair (VWN5_RPA)
    0.8100   Lee, Yang & Parr

   => LibXC Density Thresholds  <==

    XC_HYB_GGA_XC_B3LYP:  1.00E-15 

   => Molecular Quadrature <=

    Radial Scheme          =       TREUTLER
    Pruning Scheme         =           NONE
    Nuclear Scheme         =       TREUTLER

    Blocking Scheme        =         OCTREE
    BS radius alpha        =              1
    Pruning alpha          =              1
    Radial Points          =             75
    Spherical Points       =            302
    Total Points           =          43764
    Total Blocks           =            427
    Max Points             =            256
    Max Functions          =             32
    Weights Tolerance      =       1.00E-15


  -Total Gradient:
     Atom            X                  Y                   Z
    ------   -----------------  -----------------  -----------------
       1        0.000000000000    -0.000000000000    -0.200390833191
       2        0.000000000000    -0.000000000000     0.200354711639


*** tstop() called on Joses-MacBook-Pro-2.local at Wed Jul 16 18:52:28 2025
Module time:
	user time   =       1.05 seconds =       0.02 minutes
	system time =       2.25 seconds =       0.04 minutes
	total time  =          0 seconds =       0.00 minutes
Total time:
	user time   =      16.57 seconds =       0.28 minutes
	system time =      31.09 seconds =       0.52 minutes
	total time  =          5 seconds =       0.08 minutes

    			-----------------------------------------

    			 OPTKING 3.0: for geometry optimizations 

    			     By R.A. King, Bethel University     

    			        with contributions from          

    			    A.V. Copan, J. Cayton, A. Heide      

    			-----------------------------------------

    
	                            ===> Fragment 1 <== 

	 Z (Atomic Numbers)          Masses                          Geom                  
	       5.000000            11.009305          0.00000000  0.00000000  2.05616769   
	      11.000000            22.989769          0.00000000  0.00000000 -0.98465442   

	 - Coordinate -           - BOHR/RAD -       - ANG/DEG -
	 R(1,2)           =         3.040822           1.609134


	        --- Internal Coordinate Step in ANG or DEG, aJ/ANG or AJ/DEG ---
	-------------------------------------------------------------------------------
	           Coordinate      Previous         Force          Change          New 
	           ----------      --------        ------          ------        ------
	               R(1,2)       1.60913        1.65082        0.23099       1.84012
	-------------------------------------------------------------------------------

	                                 ==> Convergence Check <==                                  
    
	Measures of convergence in internal coordinates in au.
    
	Criteria marked as inactive (o), active & met (*), and active & unmet ( ).

	----------------------------------------------------------------------------------------------
	   Step    Total Energy     Delta E     Max Force     RMS Force      Max Disp      RMS Disp   
	----------------------------------------------------------------------------------------------
	  Convergence Criteria     1.00e-06 *    3.00e-04 *             o    1.20e-03 *             o
	----------------------------------------------------------------------------------------------
	     4    -186.75082446   -1.11e-01      2.00e-01      2.00e-01 o    4.37e-01      4.37e-01 o  ~
	----------------------------------------------------------------------------------------------

Next Geometry in Ang 
	Fragment 1 (Ang)

	    B   0.0000000000   0.0000000000   1.2035713063
	   Na   0.0000000000   0.0000000000  -0.6365509050


    Structure for next step:
    Molecular point group: c2v
    Full point group: C_inf_v

    Geometry (in Angstrom), charge = 0, multiplicity = 5:

    B            0.000000000000     0.000000000000     1.244268720081
    NA           0.000000000000     0.000000000000    -0.595853491231


Scratch directory: /tmp/
gradient() will perform analytic gradient computation.
   => Libint2 <=

    Primary   basis highest AM E, G, H:  6, 6, 3
    Auxiliary basis highest AM E, G, H:  7, 7, 4
    Onebody   basis highest AM E, G, H:  -, -, -
    Solid Harmonics ordering:            Gaussian

*** tstart() called on Joses-MacBook-Pro-2.local
*** at Wed Jul 16 18:52:28 2025

   => Loading Basis Set <=

    Name: CC-PVDZ
    Role: ORBITAL
    Keyword: BASIS
    atoms 1 entry B          line   108 file /Users/joseantoniorodriguesromero/anaconda3/share/psi4/basis/cc-pvdz.gbs 
    atoms 2 entry NA         line   288 file /Users/joseantoniorodriguesromero/anaconda3/share/psi4/basis/cc-pvdz.gbs 


         ---------------------------------------------------------
                                   SCF
               by Justin Turney, Rob Parrish, Andy Simmonett
                          and Daniel G. A. Smith
                              UKS Reference
                        1 Threads,    500 MiB Core
         ---------------------------------------------------------

  ==> Geometry <==

    Molecular point group: c2v
    Full point group: C_inf_v

    Geometry (in Angstrom), charge = 0, multiplicity = 5:

       Center              X                  Y                   Z               Mass       
    ------------   -----------------  -----------------  -----------------  -----------------
         B            0.000000000000     0.000000000000     1.244268720081    11.009305360000
         NA           0.000000000000     0.000000000000    -0.595853491231    22.989769282000

  Running in c2v symmetry.

  Rotational constants: A = ************  B =      0.66877  C =      0.66877 [cm^-1]
  Rotational constants: A = ************  B =  20049.17149  C =  20049.17149 [MHz]
  Nuclear repulsion =   15.816746522554849

  Charge       = 0
  Multiplicity = 5
  Electrons    = 16
  Nalpha       = 10
  Nbeta        = 6

  ==> Algorithm <==

  SCF Algorithm Type is DF.
  DIIS enabled.
  MOM disabled.
  Fractional occupation disabled.
  Guess Type is READ.
  Energy threshold   = 1.00e-08
  Density threshold  = 1.00e-08
  Integral threshold = 1.00e-12

  ==> Primary Basis <==

  Basis Set: CC-PVDZ
    Blend: CC-PVDZ
    Number of shells: 14
    Number of basis functions: 32
    Number of Cartesian functions: 34
    Spherical Harmonics?: true
    Max angular momentum: 2

  ==> DFT Potential <==

   => LibXC <=

    Version 6.2.2
    S. Lehtola, C. Steigemann, M. J.T. Oliveira, and M. A.L. Marques.,  SoftwareX 7, 1–5 (2018) (10.1016/j.softx.2017.11.002)

   => Composite Functional: B3LYP <= 

    B3LYP Hyb-GGA Exchange-Correlation Functional

    P. J. Stephens, F. J. Devlin, C. F. Chabalowski, and M. J. Frisch.,  J. Phys. Chem. 98, 11623 (1994) (10.1021/j100096a001)

    Deriv               =              1
[...]

	                                 ==> Convergence Check <==                                  
    
	Measures of convergence in internal coordinates in au.
    
	Criteria marked as inactive (o), active & met (*), and active & unmet ( ).

	----------------------------------------------------------------------------------------------
	   Step    Total Energy     Delta E     Max Force     RMS Force      Max Disp      RMS Disp   
	----------------------------------------------------------------------------------------------
	  Convergence Criteria     1.00e-06 *    3.00e-04 *             o    1.20e-03 *             o
	----------------------------------------------------------------------------------------------
	    12    -186.85511387   -2.54e-06      1.53e-04 *    1.53e-04 o    4.60e-03      4.60e-03 o  ~
	----------------------------------------------------------------------------------------------

Next Geometry in Ang 
	Fragment 1 (Ang)

	    B   0.0000000000   0.0000000000   1.6682166731
	   Na   0.0000000000   0.0000000000  -0.7995079527


    Structure for next step:
    Molecular point group: c2v
    Full point group: C_inf_v

    Geometry (in Angstrom), charge = 0, multiplicity = 5:

    B            0.000000000000     0.000000000000     1.668645996853
    NA           0.000000000000     0.000000000000    -0.799078628922


Scratch directory: /tmp/
gradient() will perform analytic gradient computation.
   => Libint2 <=

    Primary   basis highest AM E, G, H:  6, 6, 3
    Auxiliary basis highest AM E, G, H:  7, 7, 4
    Onebody   basis highest AM E, G, H:  -, -, -
    Solid Harmonics ordering:            Gaussian

*** tstart() called on Joses-MacBook-Pro-2.local
*** at Wed Jul 16 18:52:38 2025

   => Loading Basis Set <=

    Name: CC-PVDZ
    Role: ORBITAL
    Keyword: BASIS
    atoms 1 entry B          line   108 file /Users/joseantoniorodriguesromero/anaconda3/share/psi4/basis/cc-pvdz.gbs 
    atoms 2 entry NA         line   288 file /Users/joseantoniorodriguesromero/anaconda3/share/psi4/basis/cc-pvdz.gbs 


         ---------------------------------------------------------
                                   SCF
               by Justin Turney, Rob Parrish, Andy Simmonett
                          and Daniel G. A. Smith
                              UKS Reference
                        1 Threads,    500 MiB Core
         ---------------------------------------------------------

  ==> Geometry <==

    Molecular point group: c2v
    Full point group: C_inf_v

    Geometry (in Angstrom), charge = 0, multiplicity = 5:

       Center              X                  Y                   Z               Mass       
    ------------   -----------------  -----------------  -----------------  -----------------
         B            0.000000000000     0.000000000000     1.668645996853    11.009305360000
         NA           0.000000000000     0.000000000000    -0.799078628922    22.989769282000

  Running in c2v symmetry.

  Rotational constants: A = ************  B =      0.37186  C =      0.37186 [cm^-1]
  Rotational constants: A = ************  B =  11147.98500  C =  11147.98500 [MHz]
  Nuclear repulsion =   11.794163045117314

  Charge       = 0
  Multiplicity = 5
  Electrons    = 16
  Nalpha       = 10
  Nbeta        = 6

  ==> Algorithm <==

  SCF Algorithm Type is DF.
  DIIS enabled.
  MOM disabled.
  Fractional occupation disabled.
  Guess Type is READ.
  Energy threshold   = 1.00e-08
  Density threshold  = 1.00e-08
  Integral threshold = 1.00e-12

  ==> Primary Basis <==

  Basis Set: CC-PVDZ
    Blend: CC-PVDZ
    Number of shells: 14
    Number of basis functions: 32
    Number of Cartesian functions: 34
    Spherical Harmonics?: true
    Max angular momentum: 2

  ==> DFT Potential <==

   => LibXC <=

    Version 6.2.2
    S. Lehtola, C. Steigemann, M. J.T. Oliveira, and M. A.L. Marques.,  SoftwareX 7, 1–5 (2018) (10.1016/j.softx.2017.11.002)

   => Composite Functional: B3LYP <= 

    B3LYP Hyb-GGA Exchange-Correlation Functional

    P. J. Stephens, F. J. Devlin, C. F. Chabalowski, and M. J. Frisch.,  J. Phys. Chem. 98, 11623 (1994) (10.1021/j100096a001)

    Deriv               =              1
    GGA                 =           TRUE
    Meta                =          FALSE

    Exchange Hybrid     =           TRUE
    MP2 Hybrid          =          FALSE

   => Exchange Functionals <=

    0.0800   Slater exchange
    0.7200         Becke 88

   => Exact (HF) Exchange <=

    0.2000               HF 

   => Correlation Functionals <=

    0.1900   Vosko, Wilk & Nusair (VWN5_RPA)
    0.8100   Lee, Yang & Parr

   => LibXC Density Thresholds  <==

    XC_HYB_GGA_XC_B3LYP:  1.00E-15 

   => Molecular Quadrature <=

    Radial Scheme          =       TREUTLER
    Pruning Scheme         =           NONE
    Nuclear Scheme         =       TREUTLER

    Blocking Scheme        =         OCTREE
    BS radius alpha        =              1
    Pruning alpha          =              1
    Radial Points          =             75
    Spherical Points       =            302
    Total Points           =          43849
    Total Blocks           =            436
    Max Points             =            255
    Max Functions          =             32
    Weights Tolerance      =       1.00E-15

   => Loading Basis Set <=

    Name: (CC-PVDZ AUX)
    Role: JKFIT
    Keyword: DF_BASIS_SCF
    atoms 1 entry B          line    71 file /Users/joseantoniorodriguesromero/anaconda3/share/psi4/basis/cc-pvdz-jkfit.gbs 
    atoms 2 entry NA         line   498 file /Users/joseantoniorodriguesromero/anaconda3/share/psi4/basis/def2-universal-jkfit.gbs 

   => Loading Basis Set <=

    Name: CC-PVDZ
    Role: ORBITAL
    Keyword: BASIS
    atoms 1 entry B          line   108 file /Users/joseantoniorodriguesromero/anaconda3/share/psi4/basis/cc-pvdz.gbs 
    atoms 2 entry NA         line   288 file /Users/joseantoniorodriguesromero/anaconda3/share/psi4/basis/cc-pvdz.gbs 

  Reading orbitals from file /tmp/quintet_BNa.default.68669.180.npy, no projection.

  ==> Integral Setup <==

  DFHelper Memory: AOs need 0.002 GiB; user supplied 0.326 GiB. 
  Using in-core AOs.

  ==> MemDFJK: Density-Fitted J/K Matrices <==

    J tasked:                   Yes
    K tasked:                   Yes
    wK tasked:                   No
    OpenMP threads:               1
    Memory [MiB]:               334
    Algorithm:                 Core
    Schwarz Cutoff:           1E-12
    Mask sparsity (%):       0.0000
    Fitting Condition:        1E-10

   => Auxiliary Basis Set <=

  Basis Set: (CC-PVDZ AUX)
    Blend: CC-PVDZ-JKFIT + DEF2-UNIVERSAL-JKFIT
    Number of shells: 58
    Number of basis functions: 182
    Number of Cartesian functions: 218
    Spherical Harmonics?: true
    Max angular momentum: 4

  Cached 100.0% of DFT collocation blocks in 0.040 [GiB].

  Minimum eigenvalue in the overlap matrix is 3.0722296962E-03.
  Reciprocal condition number of the overlap matrix is 1.0058792604E-03.
    Using symmetric orthogonalization.

  ==> Pre-Iterations <==

  SCF Guess: Orbitals guess was supplied from a previous computation.

   -------------------------------------------------------
    Irrep   Nso     Nmo     Nalpha   Nbeta   Ndocc  Nsocc
   -------------------------------------------------------
     A1        16      16       6       4       4       2
     A2         2       2       0       0       0       0
     B1         7       7       2       1       1       1
     B2         7       7       2       1       1       1
   -------------------------------------------------------
    Total      32      32      10       6       6       4
   -------------------------------------------------------

  ==> Iterations <==

                           Total Energy        Delta E     RMS |[F,P]|

   @DF-UKS iter   0:  -186.85497823138621   -1.86855e+02   6.34589e-05 
   @DF-UKS iter   1:  -186.85511427514984   -1.36044e-04   2.63793e-06 DIIS
   @DF-UKS iter   2:  -186.85511428126202   -6.11217e-09   1.32876e-06 DIIS/DAMP=1%
   @DF-UKS iter   3:  -186.85511508726626   -8.06004e-07   1.11738e-06 DIIS/DAMP=1%
   @DF-UKS iter   4:  -186.85511388008746    1.20718e-06   1.80655e-07 DIIS/DAMP=1%
   @DF-UKS iter   5:  -186.85511426568556   -3.85598e-07   2.57073e-08 DIIS/DAMP=1%
   @DF-UKS iter   6:  -186.85511427624988   -1.05643e-08   3.35252e-09 DIIS/DAMP=1%
   @DF-UKS iter   7:  -186.85511428421347   -7.96359e-09   4.76702e-10 DIIS/DAMP=1%
  Energy and wave function converged.


  ==> Post-Iterations <==

   Electrons on quadrature grid:
      Nalpha   =   10.0000001989 ; deviation = 1.989e-07
      Nbeta    =    5.9999997270 ; deviation = -2.730e-07
      Ntotal   =   15.9999999259 ; deviation = -7.414e-08 

   @Spin Contamination Metric:   9.154099651E-06
   @S^2 Expected:                6.000000000E+00
   @S^2 Observed:                6.000009154E+00
   @S   Expected:                2.000000000E+00
   @S   Observed:                2.000000000E+00

    Orbital Energies [Eh]
    ---------------------

    Alpha Occupied:                                                       

       1A1   -38.515877     2A1    -6.779666     3A1    -2.261128  
       4A1    -1.192338     1B2    -1.191968     1B1    -1.191968  
       5A1    -0.390365     6A1    -0.162338     2B1    -0.148550  
       2B2    -0.148550  

    Alpha Virtual:                                                        

       7A1    -0.071881     3B1    -0.007604     3B2    -0.007604  
       8A1     0.015063     9A1     0.048614     4B1     0.073426  
       4B2     0.073426    10A1     0.122202     1A2     0.154474  
      11A1     0.154474     5B2     0.187800     5B1     0.187800  
      12A1     0.280815     6B1     0.353575     6B2     0.353575  
      13A1     0.395910    14A1     0.624884     2A2     0.727691  
      15A1     0.727694     7B1     0.796587     7B2     0.796587  
      16A1     0.917473  

    Beta Occupied:                                                        

       1A1   -38.514508     2A1    -6.739912     3A1    -2.258640  
       1B2    -1.190228     1B1    -1.190228     4A1    -1.190150  

    Beta Virtual:                                                         

       5A1    -0.141996     6A1    -0.070193     2B1    -0.010024  
       2B2    -0.010024     7A1     0.026896     8A1     0.045054  
       9A1     0.065248     3B1     0.071643     3B2     0.071643  
       4B1     0.088925     4B2     0.088925    10A1     0.162480  
      11A1     0.169959     1A2     0.169963     5B2     0.229136  
       5B1     0.229136    12A1     0.331716     6B1     0.450697  
       6B2     0.450697    13A1     0.477408    14A1     0.754232  
       2A2     0.903377    15A1     0.903444     7B1     0.955619  
       7B2     0.955619    16A1     1.030818  

    Final Occupation by Irrep:
             A1    A2    B1    B2 
    DOCC [     4,    0,    1,    1 ]
    SOCC [     2,    0,    1,    1 ]
    NA   [     6,    0,    2,    2 ]
    NB   [     4,    0,    1,    1 ]

  @DF-UKS Final Energy:  -186.85511428421347

   => Energetics <=

    Nuclear Repulsion Energy =             11.7941630451173136
    One-Electron Energy =                -283.5830136435005215
    Two-Electron Energy =                  99.8095017809300771
    DFT Exchange-Correlation Energy =     -14.8757654667603472
    Empirical Dispersion Energy =           0.0000000000000000
    VV10 Nonlocal Energy =                  0.0000000000000000
    Total Energy =                       -186.8551142842134709

  UHF NO Occupations:
  HONO-2 :    2 B2 1.0000000
  HONO-1 :    5 A1 1.0000000
  HONO-0 :    6 A1 1.0000000
  LUNO+0 :    7 A1 0.0000038
  LUNO+1 :    8 A1 0.0000006
  LUNO+2 :    3 B1 0.0000001
  LUNO+3 :    3 B2 0.0000001


Computation Completed


Properties will be evaluated at   0.000000,   0.000000,   0.000000 [a0]

Properties computed using the SCF density matrix


 Multipole Moments:

 ------------------------------------------------------------------------------------
     Multipole            Electronic (a.u.)      Nuclear  (a.u.)        Total (a.u.)
 ------------------------------------------------------------------------------------

 L = 1.  Multiply by 2.5417464519 to convert [e a0] to [Debye]
 Dipole X            :          0.0000000            0.0000000            0.0000000
 Dipole Y            :          0.0000000            0.0000000            0.0000000
 Dipole Z            :         -1.7486072           -0.8440177           -2.5926249
 Magnitude           :                                                    2.5926249

 ------------------------------------------------------------------------------------

*** tstop() called on Joses-MacBook-Pro-2.local at Wed Jul 16 18:52:39 2025
Module time:
	user time   =       2.31 seconds =       0.04 minutes
	system time =       3.90 seconds =       0.06 minutes
	total time  =          1 seconds =       0.02 minutes
Total time:
	user time   =      56.72 seconds =       0.95 minutes
	system time =      84.50 seconds =       1.41 minutes
	total time  =         16 seconds =       0.27 minutes

*** tstart() called on Joses-MacBook-Pro-2.local
*** at Wed Jul 16 18:52:39 2025


         ------------------------------------------------------------
                                   SCF GRAD                          
                          Rob Parrish, Justin Turney,                
                       Andy Simmonett, and Alex Sokolov              
         ------------------------------------------------------------

  ==> Geometry <==

    Molecular point group: c2v
    Full point group: C_inf_v

    Geometry (in Angstrom), charge = 0, multiplicity = 5:

       Center              X                  Y                   Z               Mass       
    ------------   -----------------  -----------------  -----------------  -----------------
         B            0.000000000000     0.000000000000     1.668645996853    11.009305360000
         NA           0.000000000000     0.000000000000    -0.799078628922    22.989769282000

  Nuclear repulsion =   11.794163045117314

  ==> Basis Set <==

  Basis Set: CC-PVDZ
    Blend: CC-PVDZ
    Number of shells: 14
    Number of basis functions: 32
    Number of Cartesian functions: 34
    Spherical Harmonics?: true
    Max angular momentum: 2

  ==> DFJKGrad: Density-Fitted SCF Gradients <==

    Gradient:                    1
    J tasked:                  Yes
    K tasked:                  Yes
    wK tasked:                  No
    OpenMP threads:              1
    Integrals threads:           1
    Memory [MiB]:              375
    Schwarz Cutoff:          1E-12
    Fitting Condition:       1E-10

   => Auxiliary Basis Set <=

  Basis Set: (CC-PVDZ AUX)
    Blend: CC-PVDZ-JKFIT + DEF2-UNIVERSAL-JKFIT
    Number of shells: 58
    Number of basis functions: 182
    Number of Cartesian functions: 218
    Spherical Harmonics?: true
    Max angular momentum: 4

  ==> DFT Potential <==

   => LibXC <=

    Version 6.2.2
    S. Lehtola, C. Steigemann, M. J.T. Oliveira, and M. A.L. Marques.,  SoftwareX 7, 1–5 (2018) (10.1016/j.softx.2017.11.002)

   => Composite Functional: B3LYP <= 

    B3LYP Hyb-GGA Exchange-Correlation Functional

    P. J. Stephens, F. J. Devlin, C. F. Chabalowski, and M. J. Frisch.,  J. Phys. Chem. 98, 11623 (1994) (10.1021/j100096a001)

    Deriv               =              1
    GGA                 =           TRUE
    Meta                =          FALSE

    Exchange Hybrid     =           TRUE
    MP2 Hybrid          =          FALSE

   => Exchange Functionals <=

    0.0800   Slater exchange
    0.7200         Becke 88

   => Exact (HF) Exchange <=

    0.2000               HF 

   => Correlation Functionals <=

    0.1900   Vosko, Wilk & Nusair (VWN5_RPA)
    0.8100   Lee, Yang & Parr

   => LibXC Density Thresholds  <==

    XC_HYB_GGA_XC_B3LYP:  1.00E-15 

   => Molecular Quadrature <=

    Radial Scheme          =       TREUTLER
    Pruning Scheme         =           NONE
    Nuclear Scheme         =       TREUTLER

    Blocking Scheme        =         OCTREE
    BS radius alpha        =              1
    Pruning alpha          =              1
    Radial Points          =             75
    Spherical Points       =            302
    Total Points           =          43849
    Total Blocks           =            436
    Max Points             =            255
    Max Functions          =             32
    Weights Tolerance      =       1.00E-15


  -Total Gradient:
     Atom            X                  Y                   Z
    ------   -----------------  -----------------  -----------------
       1        0.000000000000    -0.000000000000    -0.000042621394
       2        0.000000000000    -0.000000000000     0.000024296092


*** tstop() called on Joses-MacBook-Pro-2.local at Wed Jul 16 18:52:39 2025
Module time:
	user time   =       1.17 seconds =       0.02 minutes
	system time =       2.19 seconds =       0.04 minutes
	total time  =          0 seconds =       0.00 minutes
Total time:
	user time   =      57.89 seconds =       0.96 minutes
	system time =      86.71 seconds =       1.45 minutes
	total time  =         16 seconds =       0.27 minutes

    			-----------------------------------------

    			 OPTKING 3.0: for geometry optimizations 

    			     By R.A. King, Bethel University     

    			        with contributions from          

    			    A.V. Copan, J. Cayton, A. Heide      

    			-----------------------------------------

    
	                            ===> Fragment 1 <== 

	 Z (Atomic Numbers)          Masses                          Geom                  
	       5.000000            11.009305          0.00000000  0.00000000  3.15328393   
	      11.000000            22.989769          0.00000000  0.00000000 -1.51003976   

	 - Coordinate -           - BOHR/RAD -       - ANG/DEG -
	 R(1,2)           =         4.663324           2.467725


	        --- Internal Coordinate Step in ANG or DEG, aJ/ANG or AJ/DEG ---
	-------------------------------------------------------------------------------
	           Coordinate      Previous         Force          Change          New 
	           ----------      --------        ------          ------        ------
	               R(1,2)       2.46772        0.00028        0.00062       2.46835
	-------------------------------------------------------------------------------

	                                 ==> Convergence Check <==                                  
    
	Measures of convergence in internal coordinates in au.
    
	Criteria marked as inactive (o), active & met (*), and active & unmet ( ).

	----------------------------------------------------------------------------------------------
	   Step    Total Energy     Delta E     Max Force     RMS Force      Max Disp      RMS Disp   
	----------------------------------------------------------------------------------------------
	  Convergence Criteria     1.00e-06 *    3.00e-04 *             o    1.20e-03 *             o
	----------------------------------------------------------------------------------------------
	    13    -186.85511428   -4.10e-07 *    3.35e-05 *    3.35e-05 o    1.18e-03 *    1.18e-03 o  ~
	----------------------------------------------------------------------------------------------

Next Geometry in Ang 
	Fragment 1 (Ang)

	    B   0.0000000000   0.0000000000   1.6689579423
	   Na   0.0000000000   0.0000000000  -0.7993905743


    Final optimized geometry and variables:
    Molecular point group: c2v
    Full point group: C_inf_v

    Geometry (in Angstrom), charge = 0, multiplicity = 5:

    B            0.000000000000     0.000000000000     1.668645996853
    NA           0.000000000000     0.000000000000    -0.799078628922


    Psi4 stopped on: Wednesday, 16 July 2025 06:52PM
    Psi4 wall time for execution: 0:00:16.60

*** Psi4 exiting successfully. Buy a developer a beer!
