
    -----------------------------------------------------------------------
          Psi4: An Open-Source Ab Initio Electronic Structure Package
                               Psi4 1.9.1 release

                         Git: Rev {} zzzzzzz 


    D. G. A. Smith, L. A. Burns, A. C. Simmonett, R. M. Parrish,
    M. C. Schieber, R. Galvelis, P. Kraus, H. Kruse, R. Di Remigio,
    A. Alenaizan, A. M. James, S. Lehtola, J. P. Misiewicz, M. Scheurer,
    R. A. Shaw, J. B. Schriber, Y. Xie, Z. L. Glick, D. A. Sirianni,
    J. S. O'Brien, J. M. Waldrop, A. Kumar, E. G. Hohenstein,
    B. P. Pritchard, B. R. Brooks, H. F. Schaefer III, A. Yu. Sokolov,
    K. Patkowski, A. E. DePrince III, U. Bozkaya, R. A. King,
    F. A. Evangelista, J. M. Turney, T. D. Crawford, C. D. Sherrill,
    J. Chem. Phys. 152(18) 184108 (2020). https://doi.org/10.1063/5.0006002

                            Additional Code Authors
    E. T. Seidl, C. L. Janssen, E. F. Valeev, M. L. Leininger,
    J. F. Gonthier, R. M. Richard, H. R. McAlexander, M. Saitow, X. Wang,
    P. Verma, M. H. Lechner, A. Jiang, S. Behnle, A. G. Heide,
    M. F. Herbst, and D. L. Poole

             Previous Authors, Complete List of Code Contributors,
                       and Citations for Specific Modules
    https://github.com/psi4/psi4/blob/master/codemeta.json
    https://github.com/psi4/psi4/graphs/contributors
    http://psicode.org/psi4manual/master/introduction.html#citing-psifour

    -----------------------------------------------------------------------


    Psi4 started on: Wednesday, 16 July 2025 06:41PM

    Process ID: 68426
    Host:       Joses-MacBook-Pro-2.local
    PSIDATADIR: /Users/joseantoniorodriguesromero/anaconda3/share/psi4
    Memory:     500.0 MiB
    Threads:    1
    
  ==> Input File <==

--------------------------------------------------------------------------
molecule { 
0 5
Be   0.00000        0.60000        0.00000
O   0.00000       -0.60000        0.00000
}

set { 
basis              cc-pvdz
reference          uks
maxiter            500
geom_maxiter       500
DAMPING_PERCENTAGE 1
guess              SAP
}

optimize('b3lyp')
--------------------------------------------------------------------------

Scratch directory: /tmp/
gradient() will perform analytic gradient computation.
   => Libint2 <=

    Primary   basis highest AM E, G, H:  6, 6, 3
    Auxiliary basis highest AM E, G, H:  7, 7, 4
    Onebody   basis highest AM E, G, H:  -, -, -
    Solid Harmonics ordering:            Gaussian

*** tstart() called on Joses-MacBook-Pro-2.local
*** at Wed Jul 16 18:41:03 2025

   => Loading Basis Set <=

    Name: CC-PVDZ
    Role: ORBITAL
    Keyword: BASIS
    atoms 1 entry BE         line    75 file /Users/joseantoniorodriguesromero/anaconda3/share/psi4/basis/cc-pvdz.gbs 
    atoms 2 entry O          line   198 file /Users/joseantoniorodriguesromero/anaconda3/share/psi4/basis/cc-pvdz.gbs 


         ---------------------------------------------------------
                                   SCF
               by Justin Turney, Rob Parrish, Andy Simmonett
                          and Daniel G. A. Smith
                              UKS Reference
                        1 Threads,    500 MiB Core
         ---------------------------------------------------------

  ==> Geometry <==

    Molecular point group: c2v
    Full point group: C_inf_v

    Geometry (in Angstrom), charge = 0, multiplicity = 5:

       Center              X                  Y                   Z               Mass       
    ------------   -----------------  -----------------  -----------------  -----------------
         BE           0.000000000000     0.000000000000     0.767537992037     9.012183065000
         O            0.000000000000     0.000000000000    -0.432462007963    15.994914619570

  Running in c2v symmetry.

  Rotational constants: A = ************  B =      2.03089  C =      2.03089 [cm^-1]
  Rotational constants: A = ************  B =  60884.40506  C =  60884.40506 [MHz]
  Nuclear repulsion =   14.111392284533338

  Charge       = 0
  Multiplicity = 5
  Electrons    = 12
  Nalpha       = 8
  Nbeta        = 4

  ==> Algorithm <==

  SCF Algorithm Type is DF.
  DIIS enabled.
  MOM disabled.
  Fractional occupation disabled.
  Guess Type is SAP.
  Energy threshold   = 1.00e-08
  Density threshold  = 1.00e-08
  Integral threshold = 1.00e-12

  ==> Primary Basis <==

  Basis Set: CC-PVDZ
    Blend: CC-PVDZ
    Number of shells: 12
    Number of basis functions: 28
    Number of Cartesian functions: 30
    Spherical Harmonics?: true
    Max angular momentum: 2

  ==> DFT Potential <==

   => LibXC <=

    Version 6.2.2
    S. Lehtola, C. Steigemann, M. J.T. Oliveira, and M. A.L. Marques.,  SoftwareX 7, 1–5 (2018) (10.1016/j.softx.2017.11.002)

   => Composite Functional: B3LYP <= 

    B3LYP Hyb-GGA Exchange-Correlation Functional

    P. J. Stephens, F. J. Devlin, C. F. Chabalowski, and M. J. Frisch.,  J. Phys. Chem. 98, 11623 (1994) (10.1021/j100096a001)

    Deriv               =              1
    GGA                 =           TRUE
    Meta                =          FALSE

    Exchange Hybrid     =           TRUE
    MP2 Hybrid          =          FALSE

   => Exchange Functionals <=

    0.0800   Slater exchange
    0.7200         Becke 88

   => Exact (HF) Exchange <=

    0.2000               HF 

   => Correlation Functionals <=

    0.1900   Vosko, Wilk & Nusair (VWN5_RPA)
    0.8100   Lee, Yang & Parr

   => LibXC Density Thresholds  <==

    XC_HYB_GGA_XC_B3LYP:  1.00E-15 

   => Molecular Quadrature <=

    Radial Scheme          =       TREUTLER
    Pruning Scheme         =           NONE
    Nuclear Scheme         =       TREUTLER

    Blocking Scheme        =         OCTREE
    BS radius alpha        =              1
    Pruning alpha          =              1
    Radial Points          =             75
    Spherical Points       =            302
    Total Points           =          43495
    Total Blocks           =            403
    Max Points             =            256
    Max Functions          =             28
    Weights Tolerance      =       1.00E-15

   => Loading Basis Set <=

    Name: (CC-PVDZ AUX)
    Role: JKFIT
    Keyword: DF_BASIS_SCF
    atoms 1 entry BE         line    96 file /Users/joseantoniorodriguesromero/anaconda3/share/psi4/basis/def2-universal-jkfit.gbs 
    atoms 2 entry O          line   221 file /Users/joseantoniorodriguesromero/anaconda3/share/psi4/basis/cc-pvdz-jkfit.gbs 

  ==> Integral Setup <==

  DFHelper Memory: AOs need 0.001 GiB; user supplied 0.332 GiB. 
  Using in-core AOs.

  ==> MemDFJK: Density-Fitted J/K Matrices <==

    J tasked:                   Yes
    K tasked:                   Yes
    wK tasked:                   No
    OpenMP threads:               1
    Memory [MiB]:               340
    Algorithm:                 Core
    Schwarz Cutoff:           1E-12
    Mask sparsity (%):       0.0000
    Fitting Condition:        1E-10

   => Auxiliary Basis Set <=

  Basis Set: (CC-PVDZ AUX)
    Blend: CC-PVDZ-JKFIT + DEF2-UNIVERSAL-JKFIT
    Number of shells: 41
    Number of basis functions: 121
    Number of Cartesian functions: 141
    Spherical Harmonics?: true
    Max angular momentum: 3

  Cached 100.0% of DFT collocation blocks in 0.034 [GiB].

  Minimum eigenvalue in the overlap matrix is 3.2380173274E-03.
  Reciprocal condition number of the overlap matrix is 1.0536277005E-03.
    Using symmetric orthogonalization.

  ==> Pre-Iterations <==

  SCF Guess: Superposition of Atomic Potentials (doi:10.1021/acs.jctc.8b01089).

  ==> SAP guess <==

   => Molecular Quadrature <=

    Radial Scheme          =       TREUTLER
    Pruning Scheme         =           NONE
    Nuclear Scheme         =       TREUTLER

    Blocking Scheme        =         OCTREE
    BS radius alpha        =              1
    Pruning alpha          =              1
    Radial Points          =             75
    Spherical Points       =            302
    Total Points           =          43495
    Total Blocks           =            403
    Max Points             =            256
    Max Functions          =             28
    Weights Tolerance      =       1.00E-15

   -------------------------------------------------------
    Irrep   Nso     Nmo     Nalpha   Nbeta   Ndocc  Nsocc
   -------------------------------------------------------
     A1        14      14       5       4       4       1
     A2         2       2       0       0       0       0
     B1         6       6       2       0       0       2
     B2         6       6       1       0       0       1
   -------------------------------------------------------
    Total      28      28       8       4       4       4
   -------------------------------------------------------

  ==> Iterations <==

                           Total Energy        Delta E     RMS |[F,P]|

   @DF-UKS iter   1:   -89.44454153619004   -8.94445e+01   1.29657e-02 DIIS/ADIIS
   @DF-UKS iter   2:   -89.46890720841067   -2.43657e-02   4.49655e-03 DIIS/ADIIS/DAMP=1%
   @DF-UKS iter   3:   -89.46935108476768   -4.43876e-04   1.00802e-03 DIIS/ADIIS/DAMP=1%
   @DF-UKS iter   4:   -89.47198316176980   -2.63208e-03   3.22877e-04 DIIS/ADIIS/DAMP=1%
   @DF-UKS iter   5:   -89.47145399928951    5.29162e-04   3.03906e-05 DIIS/DAMP=1%
   @DF-UKS iter   6:   -89.47155476815715   -1.00769e-04   2.68849e-06 DIIS/DAMP=1%
   @DF-UKS iter   7:   -89.47154835968354    6.40847e-06   2.03271e-07 DIIS/DAMP=1%
   @DF-UKS iter   8:   -89.47154886675536   -5.07072e-07   1.50377e-08 DIIS/DAMP=1%
   @DF-UKS iter   9:   -89.47154882750043    3.92549e-08   2.01531e-09 DIIS/DAMP=1%
   @DF-UKS iter  10:   -89.47154882974898   -2.24856e-09   2.61824e-10 DIIS/DAMP=1%
  Energy and wave function converged.


  ==> Post-Iterations <==

   Electrons on quadrature grid:
      Nalpha   =    7.9999996942 ; deviation = -3.058e-07
      Nbeta    =    4.0000006658 ; deviation = 6.658e-07
      Ntotal   =   12.0000003599 ; deviation = 3.599e-07 

   @Spin Contamination Metric:   2.266103217E-03
   @S^2 Expected:                6.000000000E+00
   @S^2 Observed:                6.002266103E+00
   @S   Expected:                2.000000000E+00
   @S   Observed:                2.000000000E+00

    Orbital Energies [Eh]
    ---------------------

    Alpha Occupied:                                                       

       1A1   -19.465286     2A1    -4.095361     3A1    -1.274097  
       1B1    -0.678606     1B2    -0.677574     4A1    -0.641266  
       5A1    -0.216693     2B1    -0.096368  

    Alpha Virtual:                                                        

       2B2    -0.034673     6A1     0.025311     3B1     0.155535  
       3B2     0.171720     7A1     0.185946     8A1     0.387135  
       1A2     0.410531     9A1     0.417479     4B1     0.549894  
       4B2     0.554626     5B2     0.818710     5B1     0.822402  
      10A1     0.902763    11A1     1.072949    12A1     1.824671  
       2A2     2.272509    13A1     2.272765     6B2     2.525984  
       6B1     2.528454    14A1     3.138346  

    Beta Occupied:                                                        

       1A1   -19.411340     2A1    -4.080631     3A1    -1.116018  
       4A1    -0.581876  

    Beta Virtual:                                                         

       1B2    -0.401644     1B1    -0.388530     5A1    -0.063732  
       2B2     0.033097     6A1     0.053780     2B1     0.054969  
       3B2     0.206938     3B1     0.230226     7A1     0.241903  
       8A1     0.460322     1A2     0.500993     9A1     0.504826  
       4B2     0.635427     4B1     0.657482     5B2     0.908372  
       5B1     0.917350    10A1     0.947810    11A1     1.140017  
      12A1     1.889141     2A2     2.447656    13A1     2.447674  
       6B2     2.613877     6B1     2.624685    14A1     3.214465  

    Final Occupation by Irrep:
             A1    A2    B1    B2 
    DOCC [     4,    0,    0,    0 ]
    SOCC [     1,    0,    2,    1 ]
    NA   [     5,    0,    2,    1 ]
    NB   [     4,    0,    0,    0 ]

  @DF-UKS Final Energy:   -89.47154882974898

   => Energetics <=

    Nuclear Repulsion Energy =             14.1113922845333377
    One-Electron Energy =                -148.1921279382826810
    Two-Electron Energy =                  53.8377046886001196
    DFT Exchange-Correlation Energy =      -9.2285178645997465
    Empirical Dispersion Energy =           0.0000000000000000
    VV10 Nonlocal Energy =                  0.0000000000000000
    Total Energy =                        -89.4715488297489685

  UHF NO Occupations:
  HONO-2 :    1 B2 1.0000000
  HONO-1 :    1 B1 1.0000000
  HONO-0 :    2 B1 1.0000000
  LUNO+0 :    6 A1 0.0009535
  LUNO+1 :    7 A1 0.0001794
  LUNO+2 :    8 A1 0.0000005
  LUNO+3 :    9 A1 0.0000002


Computation Completed


Properties will be evaluated at   0.000000,   0.000000,   0.000000 [a0]

Properties computed using the SCF density matrix


 Multipole Moments:

 ------------------------------------------------------------------------------------
     Multipole            Electronic (a.u.)      Nuclear  (a.u.)        Total (a.u.)
 ------------------------------------------------------------------------------------

 L = 1.  Multiply by 2.5417464519 to convert [e a0] to [Debye]
 Dipole X            :          0.0000000            0.0000000            0.0000000
 Dipole Y            :          0.0000000            0.0000000            0.0000000
 Dipole Z            :         -0.5462409           -0.7361317           -1.2823726
 Magnitude           :                                                    1.2823726

 ------------------------------------------------------------------------------------

*** tstop() called on Joses-MacBook-Pro-2.local at Wed Jul 16 18:41:04 2025
Module time:
	user time   =       4.18 seconds =       0.07 minutes
	system time =       3.59 seconds =       0.06 minutes
	total time  =          1 seconds =       0.02 minutes
Total time:
	user time   =       4.18 seconds =       0.07 minutes
	system time =       3.59 seconds =       0.06 minutes
	total time  =          1 seconds =       0.02 minutes

*** tstart() called on Joses-MacBook-Pro-2.local
*** at Wed Jul 16 18:41:04 2025


         ------------------------------------------------------------
                                   SCF GRAD                          
                          Rob Parrish, Justin Turney,                
                       Andy Simmonett, and Alex Sokolov              
         ------------------------------------------------------------

  ==> Geometry <==

    Molecular point group: c2v
    Full point group: C_inf_v

    Geometry (in Angstrom), charge = 0, multiplicity = 5:

       Center              X                  Y                   Z               Mass       
    ------------   -----------------  -----------------  -----------------  -----------------
         BE           0.000000000000     0.000000000000     0.767537992037     9.012183065000
         O            0.000000000000     0.000000000000    -0.432462007963    15.994914619570

  Nuclear repulsion =   14.111392284533338

  ==> Basis Set <==

  Basis Set: CC-PVDZ
    Blend: CC-PVDZ
    Number of shells: 12
    Number of basis functions: 28
    Number of Cartesian functions: 30
    Spherical Harmonics?: true
    Max angular momentum: 2

  ==> DFJKGrad: Density-Fitted SCF Gradients <==

    Gradient:                    1
    J tasked:                  Yes
    K tasked:                  Yes
    wK tasked:                  No
    OpenMP threads:              1
    Integrals threads:           1
    Memory [MiB]:              375
    Schwarz Cutoff:          1E-12
    Fitting Condition:       1E-10

   => Auxiliary Basis Set <=

  Basis Set: (CC-PVDZ AUX)
    Blend: CC-PVDZ-JKFIT + DEF2-UNIVERSAL-JKFIT
    Number of shells: 41
    Number of basis functions: 121
    Number of Cartesian functions: 141
    Spherical Harmonics?: true
    Max angular momentum: 3

  ==> DFT Potential <==

   => LibXC <=

    Version 6.2.2
    S. Lehtola, C. Steigemann, M. J.T. Oliveira, and M. A.L. Marques.,  SoftwareX 7, 1–5 (2018) (10.1016/j.softx.2017.11.002)

   => Composite Functional: B3LYP <= 

    B3LYP Hyb-GGA Exchange-Correlation Functional

    P. J. Stephens, F. J. Devlin, C. F. Chabalowski, and M. J. Frisch.,  J. Phys. Chem. 98, 11623 (1994) (10.1021/j100096a001)

    Deriv               =              1
    GGA                 =           TRUE
    Meta                =          FALSE

    Exchange Hybrid     =           TRUE
    MP2 Hybrid          =          FALSE

   => Exchange Functionals <=

    0.0800   Slater exchange
    0.7200         Becke 88

   => Exact (HF) Exchange <=

    0.2000               HF 

   => Correlation Functionals <=

    0.1900   Vosko, Wilk & Nusair (VWN5_RPA)
    0.8100   Lee, Yang & Parr

   => LibXC Density Thresholds  <==

    XC_HYB_GGA_XC_B3LYP:  1.00E-15 

   => Molecular Quadrature <=

    Radial Scheme          =       TREUTLER
    Pruning Scheme         =           NONE
    Nuclear Scheme         =       TREUTLER

    Blocking Scheme        =         OCTREE
    BS radius alpha        =              1
    Pruning alpha          =              1
    Radial Points          =             75
    Spherical Points       =            302
    Total Points           =          43495
    Total Blocks           =            403
    Max Points             =            256
    Max Functions          =             28
    Weights Tolerance      =       1.00E-15


  -Total Gradient:
     Atom            X                  Y                   Z
    ------   -----------------  -----------------  -----------------
       1        0.000000000000    -0.000000000000    -0.505773923024
       2        0.000000000000    -0.000000000000     0.505801083101


*** tstop() called on Joses-MacBook-Pro-2.local at Wed Jul 16 18:41:04 2025
Module time:
	user time   =       0.45 seconds =       0.01 minutes
	system time =       1.32 seconds =       0.02 minutes
	total time  =          0 seconds =       0.00 minutes
Total time:
	user time   =       4.64 seconds =       0.08 minutes
	system time =       4.91 seconds =       0.08 minutes
	total time  =          1 seconds =       0.02 minutes

    			-----------------------------------------

    			 OPTKING 3.0: for geometry optimizations 

    			     By R.A. King, Bethel University     

    			        with contributions from          

    			    A.V. Copan, J. Cayton, A. Heide      

    			-----------------------------------------

    
	                            ===> Fragment 1 <== 

	 Z (Atomic Numbers)          Masses                          Geom                  
	       4.000000             9.012183          0.00000000  0.00000000  1.45043660   
	       8.000000            15.994915          0.00000000  0.00000000 -0.81723475   

	 - Coordinate -           - BOHR/RAD -       - ANG/DEG -
	 R(1,2)           =         2.267671           1.200000


	        --- Internal Coordinate Step in ANG or DEG, aJ/ANG or AJ/DEG ---
	-------------------------------------------------------------------------------
	           Coordinate      Previous         Force          Change          New 
	           ----------      --------        ------          ------        ------
	               R(1,2)       1.20000        4.16704        0.21370       1.41370
	-------------------------------------------------------------------------------

	                                 ==> Convergence Check <==                                  
    
	Measures of convergence in internal coordinates in au.
    
	Criteria marked as inactive (o), active & met (*), and active & unmet ( ).

	----------------------------------------------------------------------------------------------
	   Step    Total Energy     Delta E     Max Force     RMS Force      Max Disp      RMS Disp   
	----------------------------------------------------------------------------------------------
	  Convergence Criteria     1.00e-06 *    3.00e-04 *             o    1.20e-03 *             o
	----------------------------------------------------------------------------------------------
	     1     -89.47154883   -8.95e+01      5.06e-01      5.06e-01 o    4.04e-01      4.04e-01 o  ~
	----------------------------------------------------------------------------------------------

Next Geometry in Ang 
	Fragment 1 (Ang)

	   Be   0.0000000000   0.0000000000   0.8743863286
	    O   0.0000000000   0.0000000000  -0.5393103445


    Structure for next step:
    Molecular point group: c2v
    Full point group: C_inf_v

    Geometry (in Angstrom), charge = 0, multiplicity = 5:

    BE           0.000000000000     0.000000000000     0.904221588171
    O            0.000000000000     0.000000000000    -0.509475084909


Scratch directory: /tmp/
gradient() will perform analytic gradient computation.
   => Libint2 <=

    Primary   basis highest AM E, G, H:  6, 6, 3
    Auxiliary basis highest AM E, G, H:  7, 7, 4
    Onebody   basis highest AM E, G, H:  -, -, -
    Solid Harmonics ordering:            Gaussian

*** tstart() called on Joses-MacBook-Pro-2.local
*** at Wed Jul 16 18:41:04 2025

   => Loading Basis Set <=

    Name: CC-PVDZ
    Role: ORBITAL
    Keyword: BASIS
    atoms 1 entry BE         line    75 file /Users/joseantoniorodriguesromero/anaconda3/share/psi4/basis/cc-pvdz.gbs 
    atoms 2 entry O          line   198 file /Users/joseantoniorodriguesromero/anaconda3/share/psi4/basis/cc-pvdz.gbs 


         ---------------------------------------------------------
                                   SCF
               by Justin Turney, Rob Parrish, Andy Simmonett
                          and Daniel G. A. Smith
                              UKS Reference
                        1 Threads,    500 MiB Core
         ---------------------------------------------------------

  ==> Geometry <==

    Molecular point group: c2v
    Full point group: C_inf_v

    Geometry (in Angstrom), charge = 0, multiplicity = 5:

       Center              X                  Y                   Z               Mass       
    ------------   -----------------  -----------------  -----------------  -----------------
         BE           0.000000000000     0.000000000000     0.904221588171     9.012183065000
         O            0.000000000000     0.000000000000    -0.509475084909    15.994914619570

  Running in c2v symmetry.

  Rotational constants: A = ************  B =      1.46331  C =      1.46331 [cm^-1]
  Rotational constants: A = ************  B =  43868.83355  C =  43868.83355 [MHz]
  Nuclear repulsion =   11.978291428344853

  Charge       = 0
  Multiplicity = 5
  Electrons    = 12
  Nalpha       = 8
  Nbeta        = 4

  ==> Algorithm <==

  SCF Algorithm Type is DF.
  DIIS enabled.
  MOM disabled.
  Fractional occupation disabled.
  Guess Type is READ.
  Energy threshold   = 1.00e-08
  Density threshold  = 1.00e-08
  Integral threshold = 1.00e-12

  ==> Primary Basis <==

  Basis Set: CC-PVDZ
    Blend: CC-PVDZ
    Number of shells: 12
    Number of basis functions: 28
    Number of Cartesian functions: 30
    Spherical Harmonics?: true
    Max angular momentum: 2

  ==> DFT Potential <==

   => LibXC <=

    Version 6.2.2
    S. Lehtola, C. Steigemann, M. J.T. Oliveira, and M. A.L. Marques.,  SoftwareX 7, 1–5 (2018) (10.1016/j.softx.2017.11.002)

   => Composite Functional: B3LYP <= 

    B3LYP Hyb-GGA Exchange-Correlation Functional

    P. J. Stephens, F. J. Devlin, C. F. Chabalowski, and M. J. Frisch.,  J. Phys. Chem. 98, 11623 (1994) (10.1021/j100096a001)

    Deriv               =              1
    GGA                 =           TRUE
    Meta                =          FALSE

    Exchange Hybrid     =           TRUE
    MP2 Hybrid          =          FALSE

   => Exchange Functionals <=

    0.0800   Slater exchange
    0.7200         Becke 88

   => Exact (HF) Exchange <=

    0.2000               HF 

   => Correlation Functionals <=

    0.1900   Vosko, Wilk & Nusair (VWN5_RPA)
    0.8100   Lee, Yang & Parr

   => LibXC Density Thresholds  <==

    XC_HYB_GGA_XC_B3LYP:  1.00E-15 

   => Molecular Quadrature <=

    Radial Scheme          =       TREUTLER
    Pruning Scheme         =           NONE
    Nuclear Scheme         =       TREUTLER

    Blocking Scheme        =         OCTREE
    BS radius alpha        =              1
    Pruning alpha          =              1
    Radial Points          =             75
    Spherical Points       =            302
    Total Points           =          43544
    Total Blocks           =            402
    Max Points             =            256
    Max Functions          =             28
    Weights Tolerance      =       1.00E-15

   => Loading Basis Set <=

    Name: (CC-PVDZ AUX)
    Role: JKFIT
    Keyword: DF_BASIS_SCF
    atoms 1 entry BE         line    96 file /Users/joseantoniorodriguesromero/anaconda3/share/psi4/basis/def2-universal-jkfit.gbs 
    atoms 2 entry O          line   221 file /Users/joseantoniorodriguesromero/anaconda3/share/psi4/basis/cc-pvdz-jkfit.gbs 

   => Loading Basis Set <=

    Name: CC-PVDZ
    Role: ORBITAL
    Keyword: BASIS
    atoms 1 entry BE         line    75 file /Users/joseantoniorodriguesromero/anaconda3/share/psi4/basis/cc-pvdz.gbs 
    atoms 2 entry O          line   198 file /Users/joseantoniorodriguesromero/anaconda3/share/psi4/basis/cc-pvdz.gbs 

  Reading orbitals from file /tmp/quintet_BeO.default.68426.180.npy, no projection.

  ==> Integral Setup <==

  DFHelper Memory: AOs need 0.001 GiB; user supplied 0.332 GiB. 
  Using in-core AOs.

  ==> MemDFJK: Density-Fitted J/K Matrices <==

    J tasked:                   Yes
    K tasked:                   Yes
    wK tasked:                   No
    OpenMP threads:               1
    Memory [MiB]:               340
    Algorithm:                 Core
    Schwarz Cutoff:           1E-12
    Mask sparsity (%):       0.0000
    Fitting Condition:        1E-10

   => Auxiliary Basis Set <=

  Basis Set: (CC-PVDZ AUX)
    Blend: CC-PVDZ-JKFIT + DEF2-UNIVERSAL-JKFIT
    Number of shells: 41
    Number of basis functions: 121
    Number of Cartesian functions: 141
    Spherical Harmonics?: true
    Max angular momentum: 3

  Cached 100.0% of DFT collocation blocks in 0.034 [GiB].

  Minimum eigenvalue in the overlap matrix is 7.3531392725E-03.
  Reciprocal condition number of the overlap matrix is 2.4281324291E-03.
    Using symmetric orthogonalization.

  ==> Pre-Iterations <==

  SCF Guess: Orbitals guess was supplied from a previous computation.

   -------------------------------------------------------
    Irrep   Nso     Nmo     Nalpha   Nbeta   Ndocc  Nsocc
   -------------------------------------------------------
     A1        14      14       5       4       4       1
     A2         2       2       0       0       0       0
     B1         6       6       2       0       0       2
     B2         6       6       1       0       0       1
   -------------------------------------------------------
    Total      28      28       8       4       4       4
   -------------------------------------------------------

  ==> Iterations <==

                           Total Energy        Delta E     RMS |[F,P]|

   @DF-UKS iter   0:   -89.60245273491626   -8.96025e+01   2.76020e-02 
   @DF-UKS iter   1:   -89.59765930097856    4.79343e-03   3.31165e-03 DIIS/ADIIS
   @DF-UKS iter   2:   -89.59896733704949   -1.30804e-03   2.35799e-03 DIIS/ADIIS/DAMP=1%
   @DF-UKS iter   3:   -89.60046830539595   -1.50097e-03   1.52369e-04 DIIS/ADIIS/DAMP=1%
   @DF-UKS iter   4:   -89.59957223056226    8.96075e-04   3.43067e-05 DIIS/DAMP=1%
   @DF-UKS iter   5:   -89.59958172363156   -9.49307e-06   5.52889e-06 DIIS/DAMP=1%
   @DF-UKS iter   6:   -89.59957737320315    4.35043e-06   5.81478e-07 DIIS/DAMP=1%
   @DF-UKS iter   7:   -89.59957658432560    7.88878e-07   5.70790e-08 DIIS/DAMP=1%
   @DF-UKS iter   8:   -89.59957679252641   -2.08201e-07   3.52027e-09 DIIS/DAMP=1%
   @DF-UKS iter   9:   -89.59957678491052    7.61588e-09   5.28868e-10 DIIS/DAMP=1%
  Energy and wave function converged.


  ==> Post-Iterations <==

   Electrons on quadrature grid:
      Nalpha   =    8.0000007318 ; deviation = 7.318e-07
      Nbeta    =    3.9999995817 ; deviation = -4.183e-07
      Ntotal   =   12.0000003136 ; deviation = 3.136e-07 

   @Spin Contamination Metric:   2.657126140E-03
   @S^2 Expected:                6.000000000E+00
   @S^2 Observed:                6.002657126E+00
   @S   Expected:                2.000000000E+00
   @S   Observed:                2.000000000E+00

    Orbital Energies [Eh]
    ---------------------

    Alpha Occupied:                                                       

       1A1   -19.453265     2A1    -4.075974     3A1    -1.222404  
       1B1    -0.633692     1B2    -0.633215     4A1    -0.606374  
       5A1    -0.211565     2B1    -0.106245  

    Alpha Virtual:                                                        

       2B2    -0.041665     6A1     0.026196     3B1     0.162143  
       3B2     0.179800     7A1     0.193612     8A1     0.331024  
       1A2     0.430545     9A1     0.438144     4B1     0.514999  
       4B2     0.520968    10A1     0.733638     5B2     0.829168  
       5B1     0.832344    11A1     0.962358    12A1     1.621953  
       2A2     2.285693    13A1     2.285836     6B2     2.488654  
       6B1     2.490833    14A1     2.928637  

    Beta Occupied:                                                        

       1A1   -19.399265     2A1    -4.061233     3A1    -1.063179  
       4A1    -0.548001  

    Beta Virtual:                                                         

       1B2    -0.354718     1B1    -0.344278     5A1    -0.060016  
       2B2     0.023865     2B1     0.048028     6A1     0.058131  
       3B2     0.208344     3B1     0.231616     7A1     0.249840  
       8A1     0.395777     1A2     0.520832     9A1     0.521230  
       4B2     0.600849     4B1     0.623811    10A1     0.787877  
       5B2     0.924610     5B1     0.932611    11A1     1.010279  
      12A1     1.690779     2A2     2.462310    13A1     2.462314  
       6B2     2.579650     6B1     2.588262    14A1     3.012979  

    Final Occupation by Irrep:
             A1    A2    B1    B2 
    DOCC [     4,    0,    0,    0 ]
    SOCC [     1,    0,    2,    1 ]
    NA   [     5,    0,    2,    1 ]
    NB   [     4,    0,    0,    0 ]

  @DF-UKS Final Energy:   -89.59957678491052

   => Energetics <=

    Nuclear Repulsion Energy =             11.9782914283448534
    One-Electron Energy =                -144.5489128478201906
    Two-Electron Energy =                  52.1322999876694197
    DFT Exchange-Correlation Energy =      -9.1612553531045950
    Empirical Dispersion Energy =           0.0000000000000000
    VV10 Nonlocal Energy =                  0.0000000000000000
    Total Energy =                        -89.5995767849105107

  UHF NO Occupations:
  HONO-2 :    5 A1 1.0000000
  HONO-1 :    1 B2 1.0000000
  HONO-0 :    2 B1 1.0000000
  LUNO+0 :    6 A1 0.0010598
  LUNO+1 :    7 A1 0.0002686
  LUNO+2 :    8 A1 0.0000005
  LUNO+3 :    9 A1 0.0000003


Computation Completed


Properties will be evaluated at   0.000000,   0.000000,   0.000000 [a0]

Properties computed using the SCF density matrix


 Multipole Moments:

 ------------------------------------------------------------------------------------
     Multipole            Electronic (a.u.)      Nuclear  (a.u.)        Total (a.u.)
 ------------------------------------------------------------------------------------

 L = 1.  Multiply by 2.5417464519 to convert [e a0] to [Debye]
 Dipole X            :          0.0000000            0.0000000            0.0000000
 Dipole Y            :          0.0000000            0.0000000            0.0000000
 Dipole Z            :         -0.3911303           -0.8672224           -1.2583527
 Magnitude           :                                                    1.2583527

 ------------------------------------------------------------------------------------

*** tstop() called on Joses-MacBook-Pro-2.local at Wed Jul 16 18:41:05 2025
Module time:
	user time   =       3.32 seconds =       0.06 minutes
	system time =       3.04 seconds =       0.05 minutes
	total time  =          1 seconds =       0.02 minutes
Total time:
	user time   =       8.00 seconds =       0.13 minutes
	system time =       8.16 seconds =       0.14 minutes
	total time  =          2 seconds =       0.03 minutes

*** tstart() called on Joses-MacBook-Pro-2.local
*** at Wed Jul 16 18:41:05 2025


         ------------------------------------------------------------
                                   SCF GRAD                          
                          Rob Parrish, Justin Turney,                
                       Andy Simmonett, and Alex Sokolov              
         ------------------------------------------------------------

  ==> Geometry <==

    Molecular point group: c2v
    Full point group: C_inf_v

    Geometry (in Angstrom), charge = 0, multiplicity = 5:

       Center              X                  Y                   Z               Mass       
    ------------   -----------------  -----------------  -----------------  -----------------
         BE           0.000000000000     0.000000000000     0.904221588171     9.012183065000
         O            0.000000000000     0.000000000000    -0.509475084909    15.994914619570

  Nuclear repulsion =   11.978291428344853

  ==> Basis Set <==

  Basis Set: CC-PVDZ
    Blend: CC-PVDZ
    Number of shells: 12
    Number of basis functions: 28
    Number of Cartesian functions: 30
    Spherical Harmonics?: true
    Max angular momentum: 2

  ==> DFJKGrad: Density-Fitted SCF Gradients <==

    Gradient:                    1
    J tasked:                  Yes
    K tasked:                  Yes
    wK tasked:                  No
    OpenMP threads:              1
    Integrals threads:           1
    Memory [MiB]:              375
    Schwarz Cutoff:          1E-12
    Fitting Condition:       1E-10

   => Auxiliary Basis Set <=

  Basis Set: (CC-PVDZ AUX)
    Blend: CC-PVDZ-JKFIT + DEF2-UNIVERSAL-JKFIT
    Number of shells: 41
    Number of basis functions: 121
    Number of Cartesian functions: 141
    Spherical Harmonics?: true
    Max angular momentum: 3

  ==> DFT Potential <==

   => LibXC <=

    Version 6.2.2
    S. Lehtola, C. Steigemann, M. J.T. Oliveira, and M. A.L. Marques.,  SoftwareX 7, 1–5 (2018) (10.1016/j.softx.2017.11.002)

   => Composite Functional: B3LYP <= 

    B3LYP Hyb-GGA Exchange-Correlation Functional

    P. J. Stephens, F. J. Devlin, C. F. Chabalowski, and M. J. Frisch.,  J. Phys. Chem. 98, 11623 (1994) (10.1021/j100096a001)

    Deriv               =              1
    GGA                 =           TRUE
    Meta                =          FALSE

    Exchange Hybrid     =           TRUE
    MP2 Hybrid          =          FALSE

   => Exchange Functionals <=

    0.0800   Slater exchange
    0.7200         Becke 88

   => Exact (HF) Exchange <=

    0.2000               HF 

   => Correlation Functionals <=

    0.1900   Vosko, Wilk & Nusair (VWN5_RPA)
    0.8100   Lee, Yang & Parr

   => LibXC Density Thresholds  <==

    XC_HYB_GGA_XC_B3LYP:  1.00E-15 

   => Molecular Quadrature <=

    Radial Scheme          =       TREUTLER
    Pruning Scheme         =           NONE
    Nuclear Scheme         =       TREUTLER

    Blocking Scheme        =         OCTREE
    BS radius alpha        =              1
    Pruning alpha          =              1
    Radial Points          =             75
    Spherical Points       =            302
    Total Points           =          43544
    Total Blocks           =            402
    Max Points             =            256
    Max Functions          =             28
    Weights Tolerance      =       1.00E-15


  -Total Gradient:
     Atom            X                  Y                   Z
    ------   -----------------  -----------------  -----------------
       1        0.000000000000     0.000000000000    -0.181723665106
       2       -0.000000000000     0.000000000000     0.181767102002


*** tstop() called on Joses-MacBook-Pro-2.local at Wed Jul 16 18:41:05 2025
Module time:
	user time   =       0.56 seconds =       0.01 minutes
	system time =       1.07 seconds =       0.02 minutes
	total time  =          0 seconds =       0.00 minutes
Total time:
	user time   =       8.56 seconds =       0.14 minutes
	system time =       9.23 seconds =       0.15 minutes
	total time  =          2 seconds =       0.03 minutes

    			-----------------------------------------

    			 OPTKING 3.0: for geometry optimizations 

    			     By R.A. King, Bethel University     

    			        with contributions from          

    			    A.V. Copan, J. Cayton, A. Heide      

    			-----------------------------------------

    
	                            ===> Fragment 1 <== 

	 Z (Atomic Numbers)          Masses                          Geom                  
	       4.000000             9.012183          0.00000000  0.00000000  1.70873116   
	       8.000000            15.994915          0.00000000  0.00000000 -0.96276838   

	 - Coordinate -           - BOHR/RAD -       - ANG/DEG -
	 R(1,2)           =         2.671500           1.413697


	        --- Internal Coordinate Step in ANG or DEG, aJ/ANG or AJ/DEG ---
	-------------------------------------------------------------------------------
	           Coordinate      Previous         Force          Change          New 
	           ----------      --------        ------          ------        ------
	               R(1,2)       1.41370        1.49735        0.11427       1.52796
	-------------------------------------------------------------------------------

	                                 ==> Convergence Check <==                                  
    
	Measures of convergence in internal coordinates in au.
    
	Criteria marked as inactive (o), active & met (*), and active & unmet ( ).

	----------------------------------------------------------------------------------------------
	   Step    Total Energy     Delta E     Max Force     RMS Force      Max Disp      RMS Disp   
	----------------------------------------------------------------------------------------------
	  Convergence Criteria     1.00e-06 *    3.00e-04 *             o    1.20e-03 *             o
	----------------------------------------------------------------------------------------------
	     2     -89.59957678   -1.28e-01      1.82e-01      1.82e-01 o    2.16e-01      2.16e-01 o  ~
	----------------------------------------------------------------------------------------------

Next Geometry in Ang 
	Fragment 1 (Ang)

	   Be   0.0000000000   0.0000000000   0.9613552816
	    O   0.0000000000   0.0000000000  -0.5666087784


    Structure for next step:
    Molecular point group: c2v
    Full point group: C_inf_v

    Geometry (in Angstrom), charge = 0, multiplicity = 5:

    BE           0.000000000000     0.000000000000     0.977308722112
    O            0.000000000000     0.000000000000    -0.550655337911


Scratch directory: /tmp/
gradient() will perform analytic gradient computation.
   => Libint2 <=

    Primary   basis highest AM E, G, H:  6, 6, 3
    Auxiliary basis highest AM E, G, H:  7, 7, 4
    Onebody   basis highest AM E, G, H:  -, -, -
    Solid Harmonics ordering:            Gaussian

*** tstart() called on Joses-MacBook-Pro-2.local
*** at Wed Jul 16 18:41:05 2025

   => Loading Basis Set <=

    Name: CC-PVDZ
    Role: ORBITAL
    Keyword: BASIS
    atoms 1 entry BE         line    75 file /Users/joseantoniorodriguesromero/anaconda3/share/psi4/basis/cc-pvdz.gbs 
    atoms 2 entry O          line   198 file /Users/joseantoniorodriguesromero/anaconda3/share/psi4/basis/cc-pvdz.gbs 


         ---------------------------------------------------------
                                   SCF
               by Justin Turney, Rob Parrish, Andy Simmonett
                          and Daniel G. A. Smith
                              UKS Reference
                        1 Threads,    500 MiB Core
         ---------------------------------------------------------

  ==> Geometry <==

    Molecular point group: c2v
    Full point group: C_inf_v

    Geometry (in Angstrom), charge = 0, multiplicity = 5:

       Center              X                  Y                   Z               Mass       
    ------------   -----------------  -----------------  -----------------  -----------------
         BE           0.000000000000     0.000000000000     0.977308722112     9.012183065000
         O            0.000000000000     0.000000000000    -0.550655337911    15.994914619570

  Running in c2v symmetry.

  Rotational constants: A = ************  B =      1.25263  C =      1.25263 [cm^-1]
  Rotational constants: A = ************  B =  37552.79622  C =  37552.79622 [MHz]
  Nuclear repulsion =   11.082505920456759

  Charge       = 0
  Multiplicity = 5
  Electrons    = 12
  Nalpha       = 8
  Nbeta        = 4

  ==> Algorithm <==

  SCF Algorithm Type is DF.
  DIIS enabled.
  MOM disabled.
  Fractional occupation disabled.
  Guess Type is READ.
  Energy threshold   = 1.00e-08
  Density threshold  = 1.00e-08
  Integral threshold = 1.00e-12

  ==> Primary Basis <==

  Basis Set: CC-PVDZ
    Blend: CC-PVDZ
    Number of shells: 12
    Number of basis functions: 28
    Number of Cartesian functions: 30
    Spherical Harmonics?: true
    Max angular momentum: 2

  ==> DFT Potential <==

   => LibXC <=

    Version 6.2.2
    S. Lehtola, C. Steigemann, M. J.T. Oliveira, and M. A.L. Marques.,  SoftwareX 7, 1–5 (2018) (10.1016/j.softx.2017.11.002)

   => Composite Functional: B3LYP <= 

    B3LYP Hyb-GGA Exchange-Correlation Functional

    P. J. Stephens, F. J. Devlin, C. F. Chabalowski, and M. J. Frisch.,  J. Phys. Chem. 98, 11623 (1994) (10.1021/j100096a001)

    Deriv               =              1
    GGA                 =           TRUE
    Meta                =          FALSE

    Exchange Hybrid     =           TRUE
    MP2 Hybrid          =          FALSE

   => Exchange Functionals <=

    0.0800   Slater exchange
    0.7200         Becke 88

   => Exact (HF) Exchange <=

    0.2000               HF 

   => Correlation Functionals <=

    0.1900   Vosko, Wilk & Nusair (VWN5_RPA)
    0.8100   Lee, Yang & Parr

   => LibXC Density Thresholds  <==

    XC_HYB_GGA_XC_B3LYP:  1.00E-15 

   => Molecular Quadrature <=

    Radial Scheme          =       TREUTLER
    Pruning Scheme         =           NONE
    Nuclear Scheme         =       TREUTLER

    Blocking Scheme        =         OCTREE
    BS radius alpha        =              1
    Pruning alpha          =              1
    Radial Points          =             75
    Spherical Points       =            302
    Total Points           =          43578
    Total Blocks           =            402
    Max Points             =            254
    Max Functions          =             28
    Weights Tolerance      =       1.00E-15

   => Loading Basis Set <=

    Name: (CC-PVDZ AUX)
    Role: JKFIT
    Keyword: DF_BASIS_SCF
    atoms 1 entry BE         line    96 file /Users/joseantoniorodriguesromero/anaconda3/share/psi4/basis/def2-universal-jkfit.gbs 
    atoms 2 entry O          line   221 file /Users/joseantoniorodriguesromero/anaconda3/share/psi4/basis/cc-pvdz-jkfit.gbs 

   => Loading Basis Set <=

    Name: CC-PVDZ
    Role: ORBITAL
    Keyword: BASIS
    atoms 1 entry BE         line    75 file /Users/joseantoniorodriguesromero/anaconda3/share/psi4/basis/cc-pvdz.gbs 
    atoms 2 entry O          line   198 file /Users/joseantoniorodriguesromero/anaconda3/share/psi4/basis/cc-pvdz.gbs 

  Reading orbitals from file /tmp/quintet_BeO.default.68426.180.npy, no projection.

  ==> Integral Setup <==

  DFHelper Memory: AOs need 0.001 GiB; user supplied 0.332 GiB. 
  Using in-core AOs.

  ==> MemDFJK: Density-Fitted J/K Matrices <==

    J tasked:                   Yes
    K tasked:                   Yes
    wK tasked:                   No
    OpenMP threads:               1
    Memory [MiB]:               340
    Algorithm:                 Core
    Schwarz Cutoff:           1E-12
    Mask sparsity (%):       0.0000
    Fitting Condition:        1E-10

   => Auxiliary Basis Set <=

  Basis Set: (CC-PVDZ AUX)
    Blend: CC-PVDZ-JKFIT + DEF2-UNIVERSAL-JKFIT
    Number of shells: 41
    Number of basis functions: 121
    Number of Cartesian functions: 141
    Spherical Harmonics?: true
    Max angular momentum: 3

  Cached 100.0% of DFT collocation blocks in 0.034 [GiB].

  Minimum eigenvalue in the overlap matrix is 1.1838452386E-02.
  Reciprocal condition number of the overlap matrix is 3.9538828762E-03.
    Using symmetric orthogonalization.

  ==> Pre-Iterations <==

  SCF Guess: Orbitals guess was supplied from a previous computation.

   -------------------------------------------------------
    Irrep   Nso     Nmo     Nalpha   Nbeta   Ndocc  Nsocc
   -------------------------------------------------------
     A1        14      14       5       4       4       1
     A2         2       2       0       0       0       0
     B1         6       6       2       0       0       2
     B2         6       6       1       0       0       1
   -------------------------------------------------------
    Total      28      28       8       4       4       4
   -------------------------------------------------------

  ==> Iterations <==

                           Total Energy        Delta E     RMS |[F,P]|

   @DF-UKS iter   0:   -89.61996772471687   -8.96200e+01   1.05205e-02 
   @DF-UKS iter   1:   -89.62952215257398   -9.55443e-03   7.13876e-04 DIIS/ADIIS
   @DF-UKS iter   2:   -89.62962204337127   -9.98908e-05   2.57608e-04 DIIS/ADIIS/DAMP=1%
   @DF-UKS iter   3:   -89.62975055068731   -1.28507e-04   7.74508e-05 DIIS/DAMP=1%
   @DF-UKS iter   4:   -89.62960246553840    1.48085e-04   1.02894e-05 DIIS/DAMP=1%
   @DF-UKS iter   5:   -89.62963213283582   -2.96673e-05   1.27291e-06 DIIS/DAMP=1%
   @DF-UKS iter   6:   -89.62962985943562    2.27340e-06   1.50382e-07 DIIS/DAMP=1%
   @DF-UKS iter   7:   -89.62962987320809   -1.37725e-08   1.99310e-08 DIIS/DAMP=1%
   @DF-UKS iter   8:   -89.62962992149457   -4.82865e-08   1.14452e-09 DIIS/DAMP=1%
   @DF-UKS iter   9:   -89.62962991575964    5.73493e-09   1.58563e-10 DIIS/DAMP=1%
  Energy and wave function converged.


  ==> Post-Iterations <==

   Electrons on quadrature grid:
      Nalpha   =    8.0000032783 ; deviation = 3.278e-06
      Nbeta    =    3.9999994365 ; deviation = -5.635e-07
      Ntotal   =   12.0000027149 ; deviation = 2.715e-06 

   @Spin Contamination Metric:   2.870301233E-03
   @S^2 Expected:                6.000000000E+00
   @S^2 Observed:                6.002870301E+00
   @S   Expected:                2.000000000E+00
   @S   Observed:                2.000000000E+00

    Orbital Energies [Eh]
    ---------------------

    Alpha Occupied:                                                       

       1A1   -19.444438     2A1    -4.074346     3A1    -1.198170  
       1B1    -0.614279     1B2    -0.614099     4A1    -0.585873  
       5A1    -0.212117     2B1    -0.109994  

    Alpha Virtual:                                                        

       2B2    -0.044325     6A1     0.025037     3B1     0.165615  
       3B2     0.183840     7A1     0.194834     8A1     0.294655  
       1A2     0.438179     9A1     0.446128     4B1     0.498714  
       4B2     0.505643    10A1     0.662689     5B2     0.833309  
       5B1     0.836112    11A1     0.940981    12A1     1.570831  
       2A2     2.294382    13A1     2.294471     6B2     2.471407  
       6B1     2.473416    14A1     2.807812  

    Beta Occupied:                                                        

       1A1   -19.390390     2A1    -4.059354     3A1    -1.037812  
       4A1    -0.527754  

    Beta Virtual:                                                         

       1B2    -0.334209     1B1    -0.325184     5A1    -0.061597  
       2B2     0.018526     2B1     0.043978     6A1     0.059218  
       3B2     0.210798     3B1     0.234243     7A1     0.250487  
       8A1     0.351342     9A1     0.528110     1A2     0.528578  
       4B2     0.583309     4B1     0.606988    10A1     0.719132  
       5B2     0.931026     5B1     0.938611    11A1     0.985727  
      12A1     1.642559    13A1     2.471327     2A2     2.471348  
       6B2     2.563834     6B1     2.571286    14A1     2.892825  

    Final Occupation by Irrep:
             A1    A2    B1    B2 
    DOCC [     4,    0,    0,    0 ]
    SOCC [     1,    0,    2,    1 ]
    NA   [     5,    0,    2,    1 ]
    NB   [     4,    0,    0,    0 ]

  @DF-UKS Final Energy:   -89.62962991575964

   => Energetics <=

    Nuclear Repulsion Energy =             11.0825059204567591
    One-Electron Energy =                -142.9795479427137366
    Two-Electron Energy =                  51.4049678082026560
    DFT Exchange-Correlation Energy =      -9.1375557017053257
    Empirical Dispersion Energy =           0.0000000000000000
    VV10 Nonlocal Energy =                  0.0000000000000000
    Total Energy =                        -89.6296299157596508

  UHF NO Occupations:
  HONO-2 :    5 A1 1.0000000
  HONO-1 :    2 B1 1.0000000
  HONO-0 :    1 B2 1.0000000
  LUNO+0 :    6 A1 0.0011078
  LUNO+1 :    7 A1 0.0003273
  LUNO+2 :    8 A1 0.0000004
  LUNO+3 :    9 A1 0.0000003


Computation Completed


Properties will be evaluated at   0.000000,   0.000000,   0.000000 [a0]

Properties computed using the SCF density matrix


 Multipole Moments:

 ------------------------------------------------------------------------------------
     Multipole            Electronic (a.u.)      Nuclear  (a.u.)        Total (a.u.)
 ------------------------------------------------------------------------------------

 L = 1.  Multiply by 2.5417464519 to convert [e a0] to [Debye]
 Dipole X            :          0.0000000            0.0000000            0.0000000
 Dipole Y            :          0.0000000            0.0000000            0.0000000
 Dipole Z            :         -0.2873947           -0.9373189           -1.2247136
 Magnitude           :                                                    1.2247136

 ------------------------------------------------------------------------------------

*** tstop() called on Joses-MacBook-Pro-2.local at Wed Jul 16 18:41:06 2025
Module time:
	user time   =       3.05 seconds =       0.05 minutes
	system time =       3.27 seconds =       0.05 minutes
	total time  =          1 seconds =       0.02 minutes
Total time:
	user time   =      11.65 seconds =       0.19 minutes
	system time =      12.77 seconds =       0.21 minutes
	total time  =          3 seconds =       0.05 minutes

*** tstart() called on Joses-MacBook-Pro-2.local
*** at Wed Jul 16 18:41:06 2025


         ------------------------------------------------------------
                                   SCF GRAD                          
                          Rob Parrish, Justin Turney,                
                       Andy Simmonett, and Alex Sokolov              
         ------------------------------------------------------------

  ==> Geometry <==

    Molecular point group: c2v
    Full point group: C_inf_v

    Geometry (in Angstrom), charge = 0, multiplicity = 5:

       Center              X                  Y                   Z               Mass       
    ------------   -----------------  -----------------  -----------------  -----------------
         BE           0.000000000000     0.000000000000     0.977308722112     9.012183065000
         O            0.000000000000     0.000000000000    -0.550655337911    15.994914619570

  Nuclear repulsion =   11.082505920456759

  ==> Basis Set <==

  Basis Set: CC-PVDZ
    Blend: CC-PVDZ
    Number of shells: 12
    Number of basis functions: 28
    Number of Cartesian functions: 30
    Spherical Harmonics?: true
    Max angular momentum: 2

  ==> DFJKGrad: Density-Fitted SCF Gradients <==

    Gradient:                    1
    J tasked:                  Yes
    K tasked:                  Yes
    wK tasked:                  No
    OpenMP threads:              1
    Integrals threads:           1
    Memory [MiB]:              375
    Schwarz Cutoff:          1E-12
    Fitting Condition:       1E-10

   => Auxiliary Basis Set <=

  Basis Set: (CC-PVDZ AUX)
    Blend: CC-PVDZ-JKFIT + DEF2-UNIVERSAL-JKFIT
    Number of shells: 41
    Number of basis functions: 121
    Number of Cartesian functions: 141
    Spherical Harmonics?: true
    Max angular momentum: 3

  ==> DFT Potential <==

   => LibXC <=

    Version 6.2.2
    S. Lehtola, C. Steigemann, M. J.T. Oliveira, and M. A.L. Marques.,  SoftwareX 7, 1–5 (2018) (10.1016/j.softx.2017.11.002)

   => Composite Functional: B3LYP <= 

    B3LYP Hyb-GGA Exchange-Correlation Functional

    P. J. Stephens, F. J. Devlin, C. F. Chabalowski, and M. J. Frisch.,  J. Phys. Chem. 98, 11623 (1994) (10.1021/j100096a001)

    Deriv               =              1
    GGA                 =           TRUE
    Meta                =          FALSE

    Exchange Hybrid     =           TRUE
    MP2 Hybrid          =          FALSE

   => Exchange Functionals <=

    0.0800   Slater exchange
    0.7200         Becke 88

   => Exact (HF) Exchange <=

    0.2000               HF 

   => Correlation Functionals <=

    0.1900   Vosko, Wilk & Nusair (VWN5_RPA)
    0.8100   Lee, Yang & Parr

   => LibXC Density Thresholds  <==

    XC_HYB_GGA_XC_B3LYP:  1.00E-15 

   => Molecular Quadrature <=

    Radial Scheme          =       TREUTLER
    Pruning Scheme         =           NONE
    Nuclear Scheme         =       TREUTLER

    Blocking Scheme        =         OCTREE
    BS radius alpha        =              1
    Pruning alpha          =              1
    Radial Points          =             75
    Spherical Points       =            302
    Total Points           =          43578
    Total Blocks           =            402
    Max Points             =            254
    Max Functions          =             28
    Weights Tolerance      =       1.00E-15


  -Total Gradient:
     Atom            X                  Y                   Z
    ------   -----------------  -----------------  -----------------
       1        0.000000000000    -0.000000000000    -0.103453604431
       2        0.000000000000     0.000000000000     0.103482144688


*** tstop() called on Joses-MacBook-Pro-2.local at Wed Jul 16 18:41:06 2025
Module time:
	user time   =       0.52 seconds =       0.01 minutes
	system time =       1.05 seconds =       0.02 minutes
	total time  =          0 seconds =       0.00 minutes
Total time:
	user time   =      12.17 seconds =       0.20 minutes
	system time =      13.83 seconds =       0.23 minutes
	total time  =          3 seconds =       0.05 minutes

    			-----------------------------------------

    			 OPTKING 3.0: for geometry optimizations 

    			     By R.A. King, Bethel University     

    			        with contributions from          

    			    A.V. Copan, J. Cayton, A. Heide      

    			-----------------------------------------

    
	                            ===> Fragment 1 <== 

	 Z (Atomic Numbers)          Masses                          Geom                  
	       4.000000             9.012183          0.00000000  0.00000000  1.84684582   
	       8.000000            15.994915          0.00000000  0.00000000 -1.04058778   

	 - Coordinate -           - BOHR/RAD -       - ANG/DEG -
	 R(1,2)           =         2.887434           1.527964


	        --- Internal Coordinate Step in ANG or DEG, aJ/ANG or AJ/DEG ---
	-------------------------------------------------------------------------------
	           Coordinate      Previous         Force          Change          New 
	           ----------      --------        ------          ------        ------
	               R(1,2)       1.52796        0.85244        0.14041       1.66837
	-------------------------------------------------------------------------------

	                                 ==> Convergence Check <==                                  
    
	Measures of convergence in internal coordinates in au.
    
	Criteria marked as inactive (o), active & met (*), and active & unmet ( ).

	----------------------------------------------------------------------------------------------
	   Step    Total Energy     Delta E     Max Force     RMS Force      Max Disp      RMS Disp   
	----------------------------------------------------------------------------------------------
	  Convergence Criteria     1.00e-06 *    3.00e-04 *             o    1.20e-03 *             o
	----------------------------------------------------------------------------------------------
	     3     -89.62962992   -3.01e-02      1.03e-01      1.03e-01 o    2.65e-01      2.65e-01 o  ~
	----------------------------------------------------------------------------------------------

Next Geometry in Ang 
	Fragment 1 (Ang)

	   Be   0.0000000000   0.0000000000   1.0475119393
	    O   0.0000000000   0.0000000000  -0.6208585551


    Structure for next step:
    Molecular point group: c2v
    Full point group: C_inf_v

    Geometry (in Angstrom), charge = 0, multiplicity = 5:

    BE           0.000000000000     0.000000000000     1.067114782722
    O            0.000000000000     0.000000000000    -0.601255711706


Scratch directory: /tmp/
gradient() will perform analytic gradient computation.
   => Libint2 <=

    Primary   basis highest AM E, G, H:  6, 6, 3
    Auxiliary basis highest AM E, G, H:  7, 7, 4
    Onebody   basis highest AM E, G, H:  -, -, -
    Solid Harmonics ordering:            Gaussian

*** tstart() called on Joses-MacBook-Pro-2.local
*** at Wed Jul 16 18:41:06 2025

   => Loading Basis Set <=

    Name: CC-PVDZ
    Role: ORBITAL
    Keyword: BASIS
    atoms 1 entry BE         line    75 file /Users/joseantoniorodriguesromero/anaconda3/share/psi4/basis/cc-pvdz.gbs 
    atoms 2 entry O          line   198 file /Users/joseantoniorodriguesromero/anaconda3/share/psi4/basis/cc-pvdz.gbs 


         ---------------------------------------------------------
                                   SCF
               by Justin Turney, Rob Parrish, Andy Simmonett
                          and Daniel G. A. Smith
                              UKS Reference
                        1 Threads,    500 MiB Core
         ---------------------------------------------------------

  ==> Geometry <==

    Molecular point group: c2v
    Full point group: C_inf_v

    Geometry (in Angstrom), charge = 0, multiplicity = 5:

       Center              X                  Y                   Z               Mass       
    ------------   -----------------  -----------------  -----------------  -----------------
         BE           0.000000000000     0.000000000000     1.067114782722     9.012183065000
         O            0.000000000000     0.000000000000    -0.601255711706    15.994914619570

  Running in c2v symmetry.

  Rotational constants: A = ************  B =      1.05066  C =      1.05066 [cm^-1]
  Rotational constants: A = ************  B =  31498.04198  C =  31498.04198 [MHz]
  Nuclear repulsion =   10.149826311357474

  Charge       = 0
  Multiplicity = 5
  Electrons    = 12
  Nalpha       = 8
  Nbeta        = 4

  ==> Algorithm <==

  SCF Algorithm Type is DF.
  DIIS enabled.
  MOM disabled.
  Fractional occupation disabled.
  Guess Type is READ.
  Energy threshold   = 1.00e-08
  Density threshold  = 1.00e-08
  Integral threshold = 1.00e-12

  ==> Primary Basis <==

  Basis Set: CC-PVDZ
    Blend: CC-PVDZ
    Number of shells: 12
    Number of basis functions: 28
    Number of Cartesian functions: 30
    Spherical Harmonics?: true
    Max angular momentum: 2

  ==> DFT Potential <==

   => LibXC <=

    Version 6.2.2
    S. Lehtola, C. Steigemann, M. J.T. Oliveira, and M. A.L. Marques.,  SoftwareX 7, 1–5 (2018) (10.1016/j.softx.2017.11.002)

   => Composite Functional: B3LYP <= 

    B3LYP Hyb-GGA Exchange-Correlation Functional

    P. J. Stephens, F. J. Devlin, C. F. Chabalowski, and M. J. Frisch.,  J. Phys. Chem. 98, 11623 (1994) (10.1021/j100096a001)

    Deriv               =              1
    GGA                 =           TRUE
    Meta                =          FALSE

    Exchange Hybrid     =           TRUE
    MP2 Hybrid          =          FALSE

   => Exchange Functionals <=

    0.0800   Slater exchange
    0.7200         Becke 88

   => Exact (HF) Exchange <=

    0.2000               HF 

   => Correlation Functionals <=

    0.1900   Vosko, Wilk & Nusair (VWN5_RPA)
    0.8100   Lee, Yang & Parr

   => LibXC Density Thresholds  <==

    XC_HYB_GGA_XC_B3LYP:  1.00E-15 

   => Molecular Quadrature <=

    Radial Scheme          =       TREUTLER
    Pruning Scheme         =           NONE
    Nuclear Scheme         =       TREUTLER

    Blocking Scheme        =         OCTREE
    BS radius alpha        =              1
    Pruning alpha          =              1
    Radial Points          =             75
    Spherical Points       =            302
    Total Points           =          43582
    Total Blocks           =            406
    Max Points             =            256
    Max Functions          =             28
    Weights Tolerance      =       1.00E-15

   => Loading Basis Set <=

    Name: (CC-PVDZ AUX)
    Role: JKFIT
    Keyword: DF_BASIS_SCF
    atoms 1 entry BE         line    96 file /Users/joseantoniorodriguesromero/anaconda3/share/psi4/basis/def2-universal-jkfit.gbs 
    atoms 2 entry O          line   221 file /Users/joseantoniorodriguesromero/anaconda3/share/psi4/basis/cc-pvdz-jkfit.gbs 

   => Loading Basis Set <=

    Name: CC-PVDZ
    Role: ORBITAL
    Keyword: BASIS
    atoms 1 entry BE         line    75 file /Users/joseantoniorodriguesromero/anaconda3/share/psi4/basis/cc-pvdz.gbs 
    atoms 2 entry O          line   198 file /Users/joseantoniorodriguesromero/anaconda3/share/psi4/basis/cc-pvdz.gbs 

  Reading orbitals from file /tmp/quintet_BeO.default.68426.180.npy, no projection.

  ==> Integral Setup <==

  DFHelper Memory: AOs need 0.001 GiB; user supplied 0.332 GiB. 
  Using in-core AOs.

  ==> MemDFJK: Density-Fitted J/K Matrices <==

    J tasked:                   Yes
    K tasked:                   Yes
    wK tasked:                   No
    OpenMP threads:               1
    Memory [MiB]:               340
    Algorithm:                 Core
    Schwarz Cutoff:           1E-12
    Mask sparsity (%):       0.0000
    Fitting Condition:        1E-10

   => Auxiliary Basis Set <=

  Basis Set: (CC-PVDZ AUX)
    Blend: CC-PVDZ-JKFIT + DEF2-UNIVERSAL-JKFIT
    Number of shells: 41
    Number of basis functions: 121
    Number of Cartesian functions: 141
    Spherical Harmonics?: true
    Max angular momentum: 3

  Cached 100.0% of DFT collocation blocks in 0.034 [GiB].

  Minimum eigenvalue in the overlap matrix is 1.9684192481E-02.
  Reciprocal condition number of the overlap matrix is 6.6888329166E-03.
    Using symmetric orthogonalization.

  ==> Pre-Iterations <==

  SCF Guess: Orbitals guess was supplied from a previous computation.

   -------------------------------------------------------
    Irrep   Nso     Nmo     Nalpha   Nbeta   Ndocc  Nsocc
   -------------------------------------------------------
     A1        14      14       5       4       4       1
     A2         2       2       0       0       0       0
     B1         6       6       2       0       0       2
     B2         6       6       1       0       0       1
   -------------------------------------------------------
    Total      28      28       8       4       4       4
   -------------------------------------------------------

  ==> Iterations <==

                           Total Energy        Delta E     RMS |[F,P]|

   @DF-UKS iter   0:   -89.63098286485412   -8.96310e+01   1.03193e-02 
   @DF-UKS iter   1:   -89.64902586928372   -1.80430e-02   8.54126e-04 DIIS/ADIIS
   @DF-UKS iter   2:   -89.64912204292165   -9.61736e-05   4.15437e-04 DIIS/ADIIS/DAMP=1%
   @DF-UKS iter   3:   -89.64897140089501    1.50642e-04   1.26622e-04 DIIS/ADIIS/DAMP=1%
   @DF-UKS iter   4:   -89.64918663684608   -2.15236e-04   5.67176e-06 DIIS/DAMP=1%
   @DF-UKS iter   5:   -89.64914193123046    4.47056e-05   1.26668e-06 DIIS/DAMP=1%
   @DF-UKS iter   6:   -89.64914396148457   -2.03025e-06   1.63465e-07 DIIS/DAMP=1%
   @DF-UKS iter   7:   -89.64914360458002    3.56905e-07   2.54099e-08 DIIS/DAMP=1%
   @DF-UKS iter   8:   -89.64914361302675   -8.44673e-09   2.50015e-09 DIIS/DAMP=1%
  Energy and wave function converged.


  ==> Post-Iterations <==

   Electrons on quadrature grid:
      Nalpha   =    8.0000035892 ; deviation = 3.589e-06
      Nbeta    =    3.9999994390 ; deviation = -5.610e-07
      Ntotal   =   12.0000030282 ; deviation = 3.028e-06 

   @Spin Contamination Metric:   3.138106374E-03
   @S^2 Expected:                6.000000000E+00
   @S^2 Observed:                6.003138106E+00
   @S   Expected:                2.000000000E+00
   @S   Observed:                2.000000000E+00

    Orbital Energies [Eh]
    ---------------------

    Alpha Occupied:                                                       

       1A1   -19.430974     2A1    -4.075475     3A1    -1.171428  
       1B2    -0.592736     1B1    -0.592618     4A1    -0.560164  
       5A1    -0.214980     2B1    -0.113524  

    Alpha Virtual:                                                        

       2B2    -0.046828     6A1     0.021471     3B1     0.169299  
       3B2     0.188032     7A1     0.194138     8A1     0.253198  
       1A2     0.445075     9A1     0.453322     4B1     0.481691  
       4B2     0.490003    10A1     0.615034     5B2     0.837061  
       5B1     0.839374    11A1     0.925386    12A1     1.530258  
       2A2     2.307030    13A1     2.307073     6B2     2.453901  
       6B1     2.455701    14A1     2.691183  

    Beta Occupied:                                                        

       1A1   -19.376903     2A1    -4.059995     3A1    -1.009704  
       4A1    -0.501907  

    Beta Virtual:                                                         

       1B2    -0.311454     1B1    -0.304013     5A1    -0.066710  
       2B2     0.012199     2B1     0.038758     6A1     0.058893  
       3B2     0.213695     3B1     0.237358     7A1     0.248261  
       8A1     0.299097     9A1     0.534715     1A2     0.535875  
       4B2     0.561689     4B1     0.587487    10A1     0.675216  
       5B2     0.936988     5B1     0.944191    11A1     0.967866  
      12A1     1.604498    13A1     2.484112     2A2     2.484157  
       6B2     2.547734     6B1     2.553881    14A1     2.776212  

    Final Occupation by Irrep:
             A1    A2    B1    B2 
    DOCC [     4,    0,    0,    0 ]
    SOCC [     1,    0,    2,    1 ]
    NA   [     5,    0,    2,    1 ]
    NB   [     4,    0,    0,    0 ]

  @DF-UKS Final Energy:   -89.64914361302675

   => Energetics <=

    Nuclear Repulsion Energy =             10.1498263113574740
    One-Electron Energy =                -141.3351900244301760
    Two-Electron Energy =                  50.6537503906124016
    DFT Exchange-Correlation Energy =      -9.1175302905664619
    Empirical Dispersion Energy =           0.0000000000000000
    VV10 Nonlocal Energy =                  0.0000000000000000
    Total Energy =                        -89.6491436130267516

  UHF NO Occupations:
  HONO-2 :    1 B2 1.0000000
  HONO-1 :    2 B1 1.0000000
  HONO-0 :    5 A1 1.0000000
  LUNO+0 :    6 A1 0.0011681
  LUNO+1 :    7 A1 0.0004010
  LUNO+2 :    8 A1 0.0000004
  LUNO+3 :    9 A1 0.0000003


Computation Completed


Properties will be evaluated at   0.000000,   0.000000,   0.000000 [a0]

Properties computed using the SCF density matrix


 Multipole Moments:

 ------------------------------------------------------------------------------------
     Multipole            Electronic (a.u.)      Nuclear  (a.u.)        Total (a.u.)
 ------------------------------------------------------------------------------------

 L = 1.  Multiply by 2.5417464519 to convert [e a0] to [Debye]
 Dipole X            :          0.0000000            0.0000000            0.0000000
 Dipole Y            :          0.0000000            0.0000000            0.0000000
 Dipole Z            :         -0.1375398           -1.0234503           -1.1609901
 Magnitude           :                                                    1.1609901

 ------------------------------------------------------------------------------------

*** tstop() called on Joses-MacBook-Pro-2.local at Wed Jul 16 18:41:06 2025
Module time:
	user time   =       3.19 seconds =       0.05 minutes
	system time =       2.69 seconds =       0.04 minutes
	total time  =          0 seconds =       0.00 minutes
Total time:
	user time   =      15.41 seconds =       0.26 minutes
	system time =      16.79 seconds =       0.28 minutes
	total time  =          3 seconds =       0.05 minutes

*** tstart() called on Joses-MacBook-Pro-2.local
*** at Wed Jul 16 18:41:06 2025


         ------------------------------------------------------------
                                   SCF GRAD                          
                          Rob Parrish, Justin Turney,                
                       Andy Simmonett, and Alex Sokolov              
         ------------------------------------------------------------

  ==> Geometry <==

    Molecular point group: c2v
    Full point group: C_inf_v

    Geometry (in Angstrom), charge = 0, multiplicity = 5:

       Center              X                  Y                   Z               Mass       
    ------------   -----------------  -----------------  -----------------  -----------------
         BE           0.000000000000     0.000000000000     1.067114782722     9.012183065000
         O            0.000000000000     0.000000000000    -0.601255711706    15.994914619570

  Nuclear repulsion =   10.149826311357474

  ==> Basis Set <==

  Basis Set: CC-PVDZ
    Blend: CC-PVDZ
    Number of shells: 12
    Number of basis functions: 28
    Number of Cartesian functions: 30
    Spherical Harmonics?: true
    Max angular momentum: 2

  ==> DFJKGrad: Density-Fitted SCF Gradients <==

    Gradient:                    1
    J tasked:                  Yes
    K tasked:                  Yes
    wK tasked:                  No
    OpenMP threads:              1
    Integrals threads:           1
    Memory [MiB]:              375
    Schwarz Cutoff:          1E-12
    Fitting Condition:       1E-10

   => Auxiliary Basis Set <=

  Basis Set: (CC-PVDZ AUX)
    Blend: CC-PVDZ-JKFIT + DEF2-UNIVERSAL-JKFIT
    Number of shells: 41
    Number of basis functions: 121
    Number of Cartesian functions: 141
    Spherical Harmonics?: true
    Max angular momentum: 3

  ==> DFT Potential <==

   => LibXC <=

    Version 6.2.2
    S. Lehtola, C. Steigemann, M. J.T. Oliveira, and M. A.L. Marques.,  SoftwareX 7, 1–5 (2018) (10.1016/j.softx.2017.11.002)

   => Composite Functional: B3LYP <= 

    B3LYP Hyb-GGA Exchange-Correlation Functional

    P. J. Stephens, F. J. Devlin, C. F. Chabalowski, and M. J. Frisch.,  J. Phys. Chem. 98, 11623 (1994) (10.1021/j100096a001)

    Deriv               =              1
    GGA                 =           TRUE
    Meta                =          FALSE

    Exchange Hybrid     =           TRUE
    MP2 Hybrid          =          FALSE

   => Exchange Functionals <=

    0.0800   Slater exchange
    0.7200         Becke 88

   => Exact (HF) Exchange <=

    0.2000               HF 

   => Correlation Functionals <=

    0.1900   Vosko, Wilk & Nusair (VWN5_RPA)
    0.8100   Lee, Yang & Parr

   => LibXC Density Thresholds  <==

    XC_HYB_GGA_XC_B3LYP:  1.00E-15 

   => Molecular Quadrature <=

    Radial Scheme          =       TREUTLER
    Pruning Scheme         =           NONE
    Nuclear Scheme         =       TREUTLER

    Blocking Scheme        =         OCTREE
    BS radius alpha        =              1
    Pruning alpha          =              1
    Radial Points          =             75
    Spherical Points       =            302
    Total Points           =          43582
    Total Blocks           =            406
    Max Points             =            256
    Max Functions          =             28
    Weights Tolerance      =       1.00E-15


  -Total Gradient:
     Atom            X                  Y                   Z
    ------   -----------------  -----------------  -----------------
       1        0.000000000000     0.000000000000    -0.049367703531
       2        0.000000000000     0.000000000000     0.049398006879


*** tstop() called on Joses-MacBook-Pro-2.local at Wed Jul 16 18:41:06 2025
Module time:
	user time   =       0.62 seconds =       0.01 minutes
	system time =       1.17 seconds =       0.02 minutes
	total time  =          0 seconds =       0.00 minutes
Total time:
	user time   =      16.03 seconds =       0.27 minutes
	system time =      17.96 seconds =       0.30 minutes
	total time  =          3 seconds =       0.05 minutes

    			-----------------------------------------

    			 OPTKING 3.0: for geometry optimizations 

    			     By R.A. King, Bethel University     

    			        with contributions from          

    			    A.V. Copan, J. Cayton, A. Heide      

    			-----------------------------------------

    
	                            ===> Fragment 1 <== 

	 Z (Atomic Numbers)          Masses                          Geom                  
	       4.000000             9.012183          0.00000000  0.00000000  2.01655468   
	       8.000000            15.994915          0.00000000  0.00000000 -1.13620863   

	 - Coordinate -           - BOHR/RAD -       - ANG/DEG -
	 R(1,2)           =         3.152763           1.668370


	        --- Internal Coordinate Step in ANG or DEG, aJ/ANG or AJ/DEG ---
	-------------------------------------------------------------------------------
	           Coordinate      Previous         Force          Change          New 
	           ----------      --------        ------          ------        ------
	               R(1,2)       1.66837        0.40685        0.09214       1.76051
	-------------------------------------------------------------------------------

	                                 ==> Convergence Check <==                                  
    
	Measures of convergence in internal coordinates in au.
    
	Criteria marked as inactive (o), active & met (*), and active & unmet ( ).

	----------------------------------------------------------------------------------------------
	   Step    Total Energy     Delta E     Max Force     RMS Force      Max Disp      RMS Disp   
	----------------------------------------------------------------------------------------------
	  Convergence Criteria     1.00e-06 *    3.00e-04 *             o    1.20e-03 *             o
	----------------------------------------------------------------------------------------------
	     4     -89.64914361   -1.95e-02      4.94e-02      4.94e-02 o    1.74e-01      1.74e-01 o  ~
	----------------------------------------------------------------------------------------------

Next Geometry in Ang 
	Fragment 1 (Ang)

	   Be   0.0000000000   0.0000000000   1.1131824638
	    O   0.0000000000   0.0000000000  -0.6473233928


    Structure for next step:
    Molecular point group: c2v
    Full point group: C_inf_v

    Geometry (in Angstrom), charge = 0, multiplicity = 5:

    BE           0.000000000000     0.000000000000     1.126045941834
    O            0.000000000000     0.000000000000    -0.634459914840


Scratch directory: /tmp/
gradient() will perform analytic gradient computation.
   => Libint2 <=

    Primary   basis highest AM E, G, H:  6, 6, 3
    Auxiliary basis highest AM E, G, H:  7, 7, 4
    Onebody   basis highest AM E, G, H:  -, -, -
    Solid Harmonics ordering:            Gaussian

*** tstart() called on Joses-MacBook-Pro-2.local
*** at Wed Jul 16 18:41:06 2025

   => Loading Basis Set <=

    Name: CC-PVDZ
    Role: ORBITAL
    Keyword: BASIS
    atoms 1 entry BE         line    75 file /Users/joseantoniorodriguesromero/anaconda3/share/psi4/basis/cc-pvdz.gbs 
    atoms 2 entry O          line   198 file /Users/joseantoniorodriguesromero/anaconda3/share/psi4/basis/cc-pvdz.gbs 


         ---------------------------------------------------------
                                   SCF
               by Justin Turney, Rob Parrish, Andy Simmonett
                          and Daniel G. A. Smith
                              UKS Reference
                        1 Threads,    500 MiB Core
         ---------------------------------------------------------

  ==> Geometry <==

    Molecular point group: c2v
    Full point group: C_inf_v

    Geometry (in Angstrom), charge = 0, multiplicity = 5:

       Center              X                  Y                   Z               Mass       
    ------------   -----------------  -----------------  -----------------  -----------------
         BE           0.000000000000     0.000000000000     1.126045941834     9.012183065000
         O            0.000000000000     0.000000000000    -0.634459914840    15.994914619570

  Running in c2v symmetry.

  Rotational constants: A = ************  B =      0.94357  C =      0.94357 [cm^-1]
  Rotational constants: A = ************  B =  28287.43769  C =  28287.43769 [MHz]
  Nuclear repulsion =    9.618639254870613

  Charge       = 0
  Multiplicity = 5
  Electrons    = 12
  Nalpha       = 8
  Nbeta        = 4

  ==> Algorithm <==

  SCF Algorithm Type is DF.
  DIIS enabled.
  MOM disabled.
  Fractional occupation disabled.
  Guess Type is READ.
  Energy threshold   = 1.00e-08
  Density threshold  = 1.00e-08
  Integral threshold = 1.00e-12

  ==> Primary Basis <==

  Basis Set: CC-PVDZ
    Blend: CC-PVDZ
    Number of shells: 12
    Number of basis functions: 28
    Number of Cartesian functions: 30
    Spherical Harmonics?: true
    Max angular momentum: 2

  ==> DFT Potential <==

   => LibXC <=

    Version 6.2.2
    S. Lehtola, C. Steigemann, M. J.T. Oliveira, and M. A.L. Marques.,  SoftwareX 7, 1–5 (2018) (10.1016/j.softx.2017.11.002)

   => Composite Functional: B3LYP <= 

    B3LYP Hyb-GGA Exchange-Correlation Functional

    P. J. Stephens, F. J. Devlin, C. F. Chabalowski, and M. J. Frisch.,  J. Phys. Chem. 98, 11623 (1994) (10.1021/j100096a001)

    Deriv               =              1
    GGA                 =           TRUE
    Meta                =          FALSE

    Exchange Hybrid     =           TRUE
    MP2 Hybrid          =          FALSE

   => Exchange Functionals <=

    0.0800   Slater exchange
    0.7200         Becke 88

   => Exact (HF) Exchange <=

    0.2000               HF 

   => Correlation Functionals <=

    0.1900   Vosko, Wilk & Nusair (VWN5_RPA)
    0.8100   Lee, Yang & Parr

   => LibXC Density Thresholds  <==

    XC_HYB_GGA_XC_B3LYP:  1.00E-15 

   => Molecular Quadrature <=

    Radial Scheme          =       TREUTLER
    Pruning Scheme         =           NONE
    Nuclear Scheme         =       TREUTLER

    Blocking Scheme        =         OCTREE
    BS radius alpha        =              1
    Pruning alpha          =              1
    Radial Points          =             75
    Spherical Points       =            302
    Total Points           =          43587
    Total Blocks           =            409
    Max Points             =            256
    Max Functions          =             28
[...]
	               R(1,2)       2.07101        0.00156        0.00397       2.07498
	-------------------------------------------------------------------------------

	                                 ==> Convergence Check <==                                  
    
	Measures of convergence in internal coordinates in au.
    
	Criteria marked as inactive (o), active & met (*), and active & unmet ( ).

	----------------------------------------------------------------------------------------------
	   Step    Total Energy     Delta E     Max Force     RMS Force      Max Disp      RMS Disp   
	----------------------------------------------------------------------------------------------
	  Convergence Criteria     1.00e-06 *    3.00e-04 *             o    1.20e-03 *             o
	----------------------------------------------------------------------------------------------
	    12     -89.66219223   -7.31e-06      1.89e-04 *    1.89e-04 o    7.51e-03      7.51e-03 o  ~
	----------------------------------------------------------------------------------------------

Next Geometry in Ang 
	Fragment 1 (Ang)

	   Be   0.0000000000   0.0000000000   1.3266349608
	    O   0.0000000000   0.0000000000  -0.7483473752


    Structure for next step:
    Molecular point group: c2v
    Full point group: C_inf_v

    Geometry (in Angstrom), charge = 0, multiplicity = 5:

    BE           0.000000000000     0.000000000000     1.327189813042
    O            0.000000000000     0.000000000000    -0.747792522913


Scratch directory: /tmp/
gradient() will perform analytic gradient computation.
   => Libint2 <=

    Primary   basis highest AM E, G, H:  6, 6, 3
    Auxiliary basis highest AM E, G, H:  7, 7, 4
    Onebody   basis highest AM E, G, H:  -, -, -
    Solid Harmonics ordering:            Gaussian

*** tstart() called on Joses-MacBook-Pro-2.local
*** at Wed Jul 16 18:41:12 2025

   => Loading Basis Set <=

    Name: CC-PVDZ
    Role: ORBITAL
    Keyword: BASIS
    atoms 1 entry BE         line    75 file /Users/joseantoniorodriguesromero/anaconda3/share/psi4/basis/cc-pvdz.gbs 
    atoms 2 entry O          line   198 file /Users/joseantoniorodriguesromero/anaconda3/share/psi4/basis/cc-pvdz.gbs 


         ---------------------------------------------------------
                                   SCF
               by Justin Turney, Rob Parrish, Andy Simmonett
                          and Daniel G. A. Smith
                              UKS Reference
                        1 Threads,    500 MiB Core
         ---------------------------------------------------------

  ==> Geometry <==

    Molecular point group: c2v
    Full point group: C_inf_v

    Geometry (in Angstrom), charge = 0, multiplicity = 5:

       Center              X                  Y                   Z               Mass       
    ------------   -----------------  -----------------  -----------------  -----------------
         BE           0.000000000000     0.000000000000     1.327189813042     9.012183065000
         O            0.000000000000     0.000000000000    -0.747792522913    15.994914619570

  Running in c2v symmetry.

  Rotational constants: A = ************  B =      0.67923  C =      0.67923 [cm^-1]
  Rotational constants: A = ************  B =  20362.90573  C =  20362.90573 [MHz]
  Nuclear repulsion =    8.160874648431871

  Charge       = 0
  Multiplicity = 5
  Electrons    = 12
  Nalpha       = 8
  Nbeta        = 4

  ==> Algorithm <==

  SCF Algorithm Type is DF.
  DIIS enabled.
  MOM disabled.
  Fractional occupation disabled.
  Guess Type is READ.
  Energy threshold   = 1.00e-08
  Density threshold  = 1.00e-08
  Integral threshold = 1.00e-12

  ==> Primary Basis <==

  Basis Set: CC-PVDZ
    Blend: CC-PVDZ
    Number of shells: 12
    Number of basis functions: 28
    Number of Cartesian functions: 30
    Spherical Harmonics?: true
    Max angular momentum: 2

  ==> DFT Potential <==

   => LibXC <=

    Version 6.2.2
    S. Lehtola, C. Steigemann, M. J.T. Oliveira, and M. A.L. Marques.,  SoftwareX 7, 1–5 (2018) (10.1016/j.softx.2017.11.002)

   => Composite Functional: B3LYP <= 

    B3LYP Hyb-GGA Exchange-Correlation Functional

    P. J. Stephens, F. J. Devlin, C. F. Chabalowski, and M. J. Frisch.,  J. Phys. Chem. 98, 11623 (1994) (10.1021/j100096a001)

    Deriv               =              1
    GGA                 =           TRUE
    Meta                =          FALSE

    Exchange Hybrid     =           TRUE
    MP2 Hybrid          =          FALSE

   => Exchange Functionals <=

    0.0800   Slater exchange
    0.7200         Becke 88

   => Exact (HF) Exchange <=

    0.2000               HF 

   => Correlation Functionals <=

    0.1900   Vosko, Wilk & Nusair (VWN5_RPA)
    0.8100   Lee, Yang & Parr

   => LibXC Density Thresholds  <==

    XC_HYB_GGA_XC_B3LYP:  1.00E-15 

   => Molecular Quadrature <=

    Radial Scheme          =       TREUTLER
    Pruning Scheme         =           NONE
    Nuclear Scheme         =       TREUTLER

    Blocking Scheme        =         OCTREE
    BS radius alpha        =              1
    Pruning alpha          =              1
    Radial Points          =             75
    Spherical Points       =            302
    Total Points           =          43603
    Total Blocks           =            406
    Max Points             =            254
    Max Functions          =             28
    Weights Tolerance      =       1.00E-15

   => Loading Basis Set <=

    Name: (CC-PVDZ AUX)
    Role: JKFIT
    Keyword: DF_BASIS_SCF
    atoms 1 entry BE         line    96 file /Users/joseantoniorodriguesromero/anaconda3/share/psi4/basis/def2-universal-jkfit.gbs 
    atoms 2 entry O          line   221 file /Users/joseantoniorodriguesromero/anaconda3/share/psi4/basis/cc-pvdz-jkfit.gbs 

   => Loading Basis Set <=

    Name: CC-PVDZ
    Role: ORBITAL
    Keyword: BASIS
    atoms 1 entry BE         line    75 file /Users/joseantoniorodriguesromero/anaconda3/share/psi4/basis/cc-pvdz.gbs 
    atoms 2 entry O          line   198 file /Users/joseantoniorodriguesromero/anaconda3/share/psi4/basis/cc-pvdz.gbs 

  Reading orbitals from file /tmp/quintet_BeO.default.68426.180.npy, no projection.

  ==> Integral Setup <==

  DFHelper Memory: AOs need 0.001 GiB; user supplied 0.333 GiB. 
  Using in-core AOs.

  ==> MemDFJK: Density-Fitted J/K Matrices <==

    J tasked:                   Yes
    K tasked:                   Yes
    wK tasked:                   No
    OpenMP threads:               1
    Memory [MiB]:               340
    Algorithm:                 Core
    Schwarz Cutoff:           1E-12
    Mask sparsity (%):       0.0000
    Fitting Condition:        1E-10

   => Auxiliary Basis Set <=

  Basis Set: (CC-PVDZ AUX)
    Blend: CC-PVDZ-JKFIT + DEF2-UNIVERSAL-JKFIT
    Number of shells: 41
    Number of basis functions: 121
    Number of Cartesian functions: 141
    Spherical Harmonics?: true
    Max angular momentum: 3

  Cached 100.0% of DFT collocation blocks in 0.034 [GiB].

  Minimum eigenvalue in the overlap matrix is 3.5523096918E-02.
  Reciprocal condition number of the overlap matrix is 1.2927323383E-02.
    Using symmetric orthogonalization.

  ==> Pre-Iterations <==

  SCF Guess: Orbitals guess was supplied from a previous computation.

   -------------------------------------------------------
    Irrep   Nso     Nmo     Nalpha   Nbeta   Ndocc  Nsocc
   -------------------------------------------------------
     A1        14      14       5       4       4       1
     A2         2       2       0       0       0       0
     B1         6       6       2       0       0       2
     B2         6       6       1       0       0       1
   -------------------------------------------------------
    Total      28      28       8       4       4       4
   -------------------------------------------------------

  ==> Iterations <==

                           Total Energy        Delta E     RMS |[F,P]|

   @DF-UKS iter   0:   -89.66169187905184   -8.96617e+01   1.32726e-04 
   @DF-UKS iter   1:   -89.66219296266766   -5.01084e-04   3.11512e-05 DIIS
   @DF-UKS iter   2:   -89.66219301059321   -4.79256e-08   2.69857e-05 DIIS/DAMP=1%
   @DF-UKS iter   3:   -89.66218312098205    9.88961e-06   1.48439e-06 DIIS/DAMP=1%
   @DF-UKS iter   4:   -89.66219332414235   -1.02032e-05   2.46307e-07 DIIS/DAMP=1%
   @DF-UKS iter   5:   -89.66219300932372    3.14819e-07   3.97694e-08 DIIS/DAMP=1%
   @DF-UKS iter   6:   -89.66219310537818   -9.60545e-08   5.04279e-09 DIIS/DAMP=1%
   @DF-UKS iter   7:   -89.66219309874235    6.63583e-09   7.02522e-10 DIIS/DAMP=1%
  Energy and wave function converged.


  ==> Post-Iterations <==

   Electrons on quadrature grid:
      Nalpha   =    7.9999920016 ; deviation = -7.998e-06
      Nbeta    =    4.0000001576 ; deviation = 1.576e-07
      Ntotal   =   11.9999921592 ; deviation = -7.841e-06 

   @Spin Contamination Metric:   3.808498230E-03
   @S^2 Expected:                6.000000000E+00
   @S^2 Observed:                6.003808498E+00
   @S   Expected:                2.000000000E+00
   @S   Observed:                2.000000000E+00

    Orbital Energies [Eh]
    ---------------------

    Alpha Occupied:                                                       

       1A1   -19.384620     2A1    -4.085234     3A1    -1.109960  
       1B2    -0.540395     1B1    -0.539850     4A1    -0.491814  
       5A1    -0.229858     2B1    -0.120359  

    Alpha Virtual:                                                        

       2B2    -0.051778     6A1    -0.002341     3B1     0.174846  
       7A1     0.183171     3B2     0.194057     8A1     0.200547  
       4B1     0.452380     1A2     0.453615     9A1     0.462199  
       4B2     0.465036    10A1     0.562480     5B2     0.836459  
       5B1     0.837598    11A1     0.897437    12A1     1.435937  
       2A2     2.348333    13A1     2.348402     6B2     2.431566  
       6B1     2.432847    14A1     2.534189  

    Beta Occupied:                                                        

       1A1   -19.330943     2A1    -4.068245     3A1    -0.946124  
       4A1    -0.431895  

    Beta Virtual:                                                         

       1B2    -0.257121     1B1    -0.253097     5A1    -0.087126  
       2B2     0.000857     2B1     0.027706     6A1     0.044785  
       7A1     0.212989     3B2     0.218992     3B1     0.243902  
       8A1     0.246329     4B2     0.521613     9A1     0.544213  
       4B1     0.546510     1A2     0.547350    10A1     0.631541  
      11A1     0.935550     5B2     0.941387     5B1     0.947014  
      12A1     1.514125     2A2     2.524990    13A1     2.525050  
       6B2     2.527779     6B1     2.530803    14A1     2.619266  

    Final Occupation by Irrep:
             A1    A2    B1    B2 
    DOCC [     4,    0,    0,    0 ]
    SOCC [     1,    0,    2,    1 ]
    NA   [     5,    0,    2,    1 ]
    NB   [     4,    0,    0,    0 ]

  @DF-UKS Final Energy:   -89.66219309874235

   => Energetics <=

    Nuclear Repulsion Energy =              8.1608746484318715
    One-Electron Energy =                -137.8207593335678212
    Two-Electron Energy =                  49.0911470117424429
    DFT Exchange-Correlation Energy =      -9.0934554253488376
    Empirical Dispersion Energy =           0.0000000000000000
    VV10 Nonlocal Energy =                  0.0000000000000000
    Total Energy =                        -89.6621930987423497

  UHF NO Occupations:
  HONO-2 :    1 B1 1.0000000
  HONO-1 :    5 A1 1.0000000
  HONO-0 :    2 B1 1.0000000
  LUNO+0 :    6 A1 0.0013733
  LUNO+1 :    7 A1 0.0005313
  LUNO+2 :    8 A1 0.0000005
  LUNO+3 :    9 A1 0.0000002


Computation Completed


Properties will be evaluated at   0.000000,   0.000000,   0.000000 [a0]

Properties computed using the SCF density matrix


 Multipole Moments:

 ------------------------------------------------------------------------------------
     Multipole            Electronic (a.u.)      Nuclear  (a.u.)        Total (a.u.)
 ------------------------------------------------------------------------------------

 L = 1.  Multiply by 2.5417464519 to convert [e a0] to [Debye]
 Dipole X            :          0.0000000            0.0000000            0.0000000
 Dipole Y            :          0.0000000            0.0000000            0.0000000
 Dipole Z            :          0.3894308           -1.2728835           -0.8834526
 Magnitude           :                                                    0.8834526

 ------------------------------------------------------------------------------------

*** tstop() called on Joses-MacBook-Pro-2.local at Wed Jul 16 18:41:13 2025
Module time:
	user time   =       2.89 seconds =       0.05 minutes
	system time =       2.85 seconds =       0.05 minutes
	total time  =          1 seconds =       0.02 minutes
Total time:
	user time   =      48.73 seconds =       0.81 minutes
	system time =      55.64 seconds =       0.93 minutes
	total time  =         10 seconds =       0.17 minutes

*** tstart() called on Joses-MacBook-Pro-2.local
*** at Wed Jul 16 18:41:13 2025


         ------------------------------------------------------------
                                   SCF GRAD                          
                          Rob Parrish, Justin Turney,                
                       Andy Simmonett, and Alex Sokolov              
         ------------------------------------------------------------

  ==> Geometry <==

    Molecular point group: c2v
    Full point group: C_inf_v

    Geometry (in Angstrom), charge = 0, multiplicity = 5:

       Center              X                  Y                   Z               Mass       
    ------------   -----------------  -----------------  -----------------  -----------------
         BE           0.000000000000     0.000000000000     1.327189813042     9.012183065000
         O            0.000000000000     0.000000000000    -0.747792522913    15.994914619570

  Nuclear repulsion =    8.160874648431871

  ==> Basis Set <==

  Basis Set: CC-PVDZ
    Blend: CC-PVDZ
    Number of shells: 12
    Number of basis functions: 28
    Number of Cartesian functions: 30
    Spherical Harmonics?: true
    Max angular momentum: 2

  ==> DFJKGrad: Density-Fitted SCF Gradients <==

    Gradient:                    1
    J tasked:                  Yes
    K tasked:                  Yes
    wK tasked:                  No
    OpenMP threads:              1
    Integrals threads:           1
    Memory [MiB]:              375
    Schwarz Cutoff:          1E-12
    Fitting Condition:       1E-10

   => Auxiliary Basis Set <=

  Basis Set: (CC-PVDZ AUX)
    Blend: CC-PVDZ-JKFIT + DEF2-UNIVERSAL-JKFIT
    Number of shells: 41
    Number of basis functions: 121
    Number of Cartesian functions: 141
    Spherical Harmonics?: true
    Max angular momentum: 3

  ==> DFT Potential <==

   => LibXC <=

    Version 6.2.2
    S. Lehtola, C. Steigemann, M. J.T. Oliveira, and M. A.L. Marques.,  SoftwareX 7, 1–5 (2018) (10.1016/j.softx.2017.11.002)

   => Composite Functional: B3LYP <= 

    B3LYP Hyb-GGA Exchange-Correlation Functional

    P. J. Stephens, F. J. Devlin, C. F. Chabalowski, and M. J. Frisch.,  J. Phys. Chem. 98, 11623 (1994) (10.1021/j100096a001)

    Deriv               =              1
    GGA                 =           TRUE
    Meta                =          FALSE

    Exchange Hybrid     =           TRUE
    MP2 Hybrid          =          FALSE

   => Exchange Functionals <=

    0.0800   Slater exchange
    0.7200         Becke 88

   => Exact (HF) Exchange <=

    0.2000               HF 

   => Correlation Functionals <=

    0.1900   Vosko, Wilk & Nusair (VWN5_RPA)
    0.8100   Lee, Yang & Parr

   => LibXC Density Thresholds  <==

    XC_HYB_GGA_XC_B3LYP:  1.00E-15 

   => Molecular Quadrature <=

    Radial Scheme          =       TREUTLER
    Pruning Scheme         =           NONE
    Nuclear Scheme         =       TREUTLER

    Blocking Scheme        =         OCTREE
    BS radius alpha        =              1
    Pruning alpha          =              1
    Radial Points          =             75
    Spherical Points       =            302
    Total Points           =          43603
    Total Blocks           =            406
    Max Points             =            254
    Max Functions          =             28
    Weights Tolerance      =       1.00E-15


  -Total Gradient:
     Atom            X                  Y                   Z
    ------   -----------------  -----------------  -----------------
       1       -0.000000000000    -0.000000000000    -0.000032659979
       2        0.000000000000     0.000000000000     0.000056438421


*** tstop() called on Joses-MacBook-Pro-2.local at Wed Jul 16 18:41:13 2025
Module time:
	user time   =       0.44 seconds =       0.01 minutes
	system time =       1.10 seconds =       0.02 minutes
	total time  =          0 seconds =       0.00 minutes
Total time:
	user time   =      49.18 seconds =       0.82 minutes
	system time =      56.74 seconds =       0.95 minutes
	total time  =         10 seconds =       0.17 minutes

    			-----------------------------------------

    			 OPTKING 3.0: for geometry optimizations 

    			     By R.A. King, Bethel University     

    			        with contributions from          

    			    A.V. Copan, J. Cayton, A. Heide      

    			-----------------------------------------

    
	                            ===> Fragment 1 <== 

	 Z (Atomic Numbers)          Masses                          Geom                  
	       4.000000             9.012183          0.00000000  0.00000000  2.50802526   
	       8.000000            15.994915          0.00000000  0.00000000 -1.41312307   

	 - Coordinate -           - BOHR/RAD -       - ANG/DEG -
	 R(1,2)           =         3.921148           2.074982


	        --- Internal Coordinate Step in ANG or DEG, aJ/ANG or AJ/DEG ---
	-------------------------------------------------------------------------------
	           Coordinate      Previous         Force          Change          New 
	           ----------      --------        ------          ------        ------
	               R(1,2)       2.07498        0.00037        0.00106       2.07604
	-------------------------------------------------------------------------------

	                                 ==> Convergence Check <==                                  
    
	Measures of convergence in internal coordinates in au.
    
	Criteria marked as inactive (o), active & met (*), and active & unmet ( ).

	----------------------------------------------------------------------------------------------
	   Step    Total Energy     Delta E     Max Force     RMS Force      Max Disp      RMS Disp   
	----------------------------------------------------------------------------------------------
	  Convergence Criteria     1.00e-06 *    3.00e-04 *             o    1.20e-03 *             o
	----------------------------------------------------------------------------------------------
	    13     -89.66219310   -8.68e-07 *    4.45e-05 *    4.45e-05 o    2.01e-03      2.01e-03 o  ~
	----------------------------------------------------------------------------------------------

Next Geometry in Ang 
	Fragment 1 (Ang)

	   Be   0.0000000000   0.0000000000   1.3277204911
	    O   0.0000000000   0.0000000000  -0.7483232009


    Final optimized geometry and variables:
    Molecular point group: c2v
    Full point group: C_inf_v

    Geometry (in Angstrom), charge = 0, multiplicity = 5:

    BE           0.000000000000     0.000000000000     1.327189813042
    O            0.000000000000     0.000000000000    -0.747792522913


    Psi4 stopped on: Wednesday, 16 July 2025 06:41PM
    Psi4 wall time for execution: 0:00:10.61

*** Psi4 exiting successfully. Buy a developer a beer!
