
    -----------------------------------------------------------------------
          Psi4: An Open-Source Ab Initio Electronic Structure Package
                               Psi4 1.9.1 release

                         Git: Rev {} zzzzzzz 


    D. G. A. Smith, L. A. Burns, A. C. Simmonett, R. M. Parrish,
    M. C. Schieber, R. Galvelis, P. Kraus, H. Kruse, R. Di Remigio,
    A. Alenaizan, A. M. James, S. Lehtola, J. P. Misiewicz, M. Scheurer,
    R. A. Shaw, J. B. Schriber, Y. Xie, Z. L. Glick, D. A. Sirianni,
    J. S. O'Brien, J. M. Waldrop, A. Kumar, E. G. Hohenstein,
    B. P. Pritchard, B. R. Brooks, H. F. Schaefer III, A. Yu. Sokolov,
    K. Patkowski, A. E. DePrince III, U. Bozkaya, R. A. King,
    F. A. Evangelista, J. M. Turney, T. D. Crawford, C. D. Sherrill,
    J. Chem. Phys. 152(18) 184108 (2020). https://doi.org/10.1063/5.0006002

                            Additional Code Authors
    E. T. Seidl, C. L. Janssen, E. F. Valeev, M. L. Leininger,
    J. F. Gonthier, R. M. Richard, H. R. McAlexander, M. Saitow, X. Wang,
    P. Verma, M. H. Lechner, A. Jiang, S. Behnle, A. G. Heide,
    M. F. Herbst, and D. L. Poole

             Previous Authors, Complete List of Code Contributors,
                       and Citations for Specific Modules
    https://github.com/psi4/psi4/blob/master/codemeta.json
    https://github.com/psi4/psi4/graphs/contributors
    http://psicode.org/psi4manual/master/introduction.html#citing-psifour

    -----------------------------------------------------------------------


    Psi4 started on: Wednesday, 16 July 2025 07:15PM

    Process ID: 68970
    Host:       Joses-MacBook-Pro-2.local
    PSIDATADIR: /Users/joseantoniorodriguesromero/anaconda3/share/psi4
    Memory:     500.0 MiB
    Threads:    1
    
  ==> Input File <==

--------------------------------------------------------------------------
molecule { 
0 5
N   0.00000        0.60000        0.00000
Cl   0.00000       -0.60000        0.00000
}

set { 
basis              cc-pvdz
reference          uks
maxiter            500
geom_maxiter       500
DAMPING_PERCENTAGE 1
guess              SAP
}

optimize('b3lyp')
--------------------------------------------------------------------------

Scratch directory: /tmp/
gradient() will perform analytic gradient computation.
   => Libint2 <=

    Primary   basis highest AM E, G, H:  6, 6, 3
    Auxiliary basis highest AM E, G, H:  7, 7, 4
    Onebody   basis highest AM E, G, H:  -, -, -
    Solid Harmonics ordering:            Gaussian

*** tstart() called on Joses-MacBook-Pro-2.local
*** at Wed Jul 16 19:15:17 2025

   => Loading Basis Set <=

    Name: CC-PVDZ
    Role: ORBITAL
    Keyword: BASIS
    atoms 1 entry N          line   168 file /Users/joseantoniorodriguesromero/anaconda3/share/psi4/basis/cc-pvdz.gbs 
    atoms 2 entry CL         line   658 file /Users/joseantoniorodriguesromero/anaconda3/share/psi4/basis/cc-pvdz.gbs 


         ---------------------------------------------------------
                                   SCF
               by Justin Turney, Rob Parrish, Andy Simmonett
                          and Daniel G. A. Smith
                              UKS Reference
                        1 Threads,    500 MiB Core
         ---------------------------------------------------------

  ==> Geometry <==

    Molecular point group: c2v
    Full point group: C_inf_v

    Geometry (in Angstrom), charge = 0, multiplicity = 5:

       Center              X                  Y                   Z               Mass       
    ------------   -----------------  -----------------  -----------------  -----------------
         N            0.000000000000     0.000000000000     0.856870988293    14.003074004430
         CL           0.000000000000     0.000000000000    -0.343129011707    34.968852682000

  Running in c2v symmetry.

  Rotational constants: A = ************  B =      1.17078  C =      1.17078 [cm^-1]
  Rotational constants: A = ************  B =  35099.19293  C =  35099.19293 [MHz]
  Nuclear repulsion =   52.476740058108341

  Charge       = 0
  Multiplicity = 5
  Electrons    = 24
  Nalpha       = 14
  Nbeta        = 10

  ==> Algorithm <==

  SCF Algorithm Type is DF.
  DIIS enabled.
  MOM disabled.
  Fractional occupation disabled.
  Guess Type is SAP.
  Energy threshold   = 1.00e-08
  Density threshold  = 1.00e-08
  Integral threshold = 1.00e-12

  ==> Primary Basis <==

  Basis Set: CC-PVDZ
    Blend: CC-PVDZ
    Number of shells: 14
    Number of basis functions: 32
    Number of Cartesian functions: 34
    Spherical Harmonics?: true
    Max angular momentum: 2

  ==> DFT Potential <==

   => LibXC <=

    Version 6.2.2
    S. Lehtola, C. Steigemann, M. J.T. Oliveira, and M. A.L. Marques.,  SoftwareX 7, 1–5 (2018) (10.1016/j.softx.2017.11.002)

   => Composite Functional: B3LYP <= 

    B3LYP Hyb-GGA Exchange-Correlation Functional

    P. J. Stephens, F. J. Devlin, C. F. Chabalowski, and M. J. Frisch.,  J. Phys. Chem. 98, 11623 (1994) (10.1021/j100096a001)

    Deriv               =              1
    GGA                 =           TRUE
    Meta                =          FALSE

    Exchange Hybrid     =           TRUE
    MP2 Hybrid          =          FALSE

   => Exchange Functionals <=

    0.0800   Slater exchange
    0.7200         Becke 88

   => Exact (HF) Exchange <=

    0.2000               HF 

   => Correlation Functionals <=

    0.1900   Vosko, Wilk & Nusair (VWN5_RPA)
    0.8100   Lee, Yang & Parr

   => LibXC Density Thresholds  <==

    XC_HYB_GGA_XC_B3LYP:  1.00E-15 

   => Molecular Quadrature <=

    Radial Scheme          =       TREUTLER
    Pruning Scheme         =           NONE
    Nuclear Scheme         =       TREUTLER

    Blocking Scheme        =         OCTREE
    BS radius alpha        =              1
    Pruning alpha          =              1
    Radial Points          =             75
    Spherical Points       =            302
    Total Points           =          41002
    Total Blocks           =            366
    Max Points             =            254
    Max Functions          =             32
    Weights Tolerance      =       1.00E-15

   => Loading Basis Set <=

    Name: (CC-PVDZ AUX)
    Role: JKFIT
    Keyword: DF_BASIS_SCF
    atoms 1 entry N          line   171 file /Users/joseantoniorodriguesromero/anaconda3/share/psi4/basis/cc-pvdz-jkfit.gbs 
    atoms 2 entry CL         line   667 file /Users/joseantoniorodriguesromero/anaconda3/share/psi4/basis/cc-pvdz-jkfit.gbs 

  ==> Integral Setup <==

  DFHelper Memory: AOs need 0.002 GiB; user supplied 0.329 GiB. 
  Using in-core AOs.

  ==> MemDFJK: Density-Fitted J/K Matrices <==

    J tasked:                   Yes
    K tasked:                   Yes
    wK tasked:                   No
    OpenMP threads:               1
    Memory [MiB]:               336
    Algorithm:                 Core
    Schwarz Cutoff:           1E-12
    Mask sparsity (%):       0.0000
    Fitting Condition:        1E-10

   => Auxiliary Basis Set <=

  Basis Set: (CC-PVDZ AUX)
    Blend: CC-PVDZ-JKFIT
    Number of shells: 60
    Number of basis functions: 182
    Number of Cartesian functions: 211
    Spherical Harmonics?: true
    Max angular momentum: 3

  Cached 100.0% of DFT collocation blocks in 0.038 [GiB].

  Minimum eigenvalue in the overlap matrix is 8.6587886525E-03.
  Reciprocal condition number of the overlap matrix is 2.7969898349E-03.
    Using symmetric orthogonalization.

  ==> Pre-Iterations <==

  SCF Guess: Superposition of Atomic Potentials (doi:10.1021/acs.jctc.8b01089).

  ==> SAP guess <==

   => Molecular Quadrature <=

    Radial Scheme          =       TREUTLER
    Pruning Scheme         =           NONE
    Nuclear Scheme         =       TREUTLER

    Blocking Scheme        =         OCTREE
    BS radius alpha        =              1
    Pruning alpha          =              1
    Radial Points          =             75
    Spherical Points       =            302
    Total Points           =          41002
    Total Blocks           =            366
    Max Points             =            254
    Max Functions          =             32
    Weights Tolerance      =       1.00E-15

   -------------------------------------------------------
    Irrep   Nso     Nmo     Nalpha   Nbeta   Ndocc  Nsocc
   -------------------------------------------------------
     A1        16      16       8       6       6       2
     A2         2       2       0       0       0       0
     B1         7       7       3       2       2       1
     B2         7       7       3       2       2       1
   -------------------------------------------------------
    Total      32      32      14      10      10       4
   -------------------------------------------------------

  ==> Iterations <==

                           Total Energy        Delta E     RMS |[F,P]|

   @DF-UKS iter   1:  -513.78207917512543   -5.13782e+02   4.89084e-02 ADIIS/DIIS
   @DF-UKS iter   2:  -513.46657487448272    3.15504e-01   6.32052e-02 ADIIS/DIIS/DAMP=1%
   @DF-UKS iter   3:  -514.14270538065648   -6.76131e-01   6.28132e-03 ADIIS/DIIS/DAMP=1%
   @DF-UKS iter   4:  -514.14570308817554   -2.99771e-03   4.99129e-03 ADIIS/DIIS/DAMP=1%
   @DF-UKS iter   5:  -514.16331495258942   -1.76119e-02   7.72867e-04 ADIIS/DIIS/DAMP=1%
   @DF-UKS iter   6:  -514.15996042208178    3.35453e-03   1.70892e-04 ADIIS/DIIS/DAMP=1%
   @DF-UKS iter   7:  -514.16010374842858   -1.43326e-04   2.00437e-05 DIIS/DAMP=1%
   @DF-UKS iter   8:  -514.16006905976349    3.46887e-05   9.07129e-06 DIIS/DAMP=1%
   @DF-UKS iter   9:  -514.16005417652559    1.48832e-05   9.54314e-07 DIIS/DAMP=1%
   @DF-UKS iter  10:  -514.16005491024168   -7.33716e-07   1.41111e-07 DIIS/DAMP=1%
   @DF-UKS iter  11:  -514.16005493927264   -2.90310e-08   2.75861e-08 DIIS/DAMP=1%
   @DF-UKS iter  12:  -514.16005494520186   -5.92922e-09   1.65606e-09 DIIS/DAMP=1%
  Energy and wave function converged.


  ==> Post-Iterations <==

   Electrons on quadrature grid:
      Nalpha   =   13.9999994772 ; deviation = -5.228e-07
      Nbeta    =    9.9999996452 ; deviation = -3.548e-07
      Ntotal   =   23.9999991225 ; deviation = -8.775e-07 

   @Spin Contamination Metric:   5.834861734E-03
   @S^2 Expected:                6.000000000E+00
   @S^2 Observed:                6.005834862E+00
   @S   Expected:                2.000000000E+00
   @S   Observed:                2.000000000E+00

    Orbital Energies [Eh]
    ---------------------

    Alpha Occupied:                                                       

       1A1  -101.694236     2A1   -14.436680     3A1    -9.601666  
       4A1    -7.368157     1B1    -7.355991     1B2    -7.355991  
       5A1    -1.239609     6A1    -0.724186     2B2    -0.586142  
       2B1    -0.586142     7A1    -0.567368     3B2    -0.246856  
       3B1    -0.246856     8A1     0.054659  

    Alpha Virtual:                                                        

       4B1     0.448580     4B2     0.448580     9A1     0.475654  
      10A1     0.552609    11A1     0.604158     1A2     0.604159  
      12A1     0.623871     5B2     0.674923     5B1     0.674923  
       6B2     0.762756     6B1     0.762756    13A1     1.162573  
      14A1     1.607910     2A2     1.652797    15A1     1.652799  
       7B1     2.087414     7B2     2.087414    16A1     2.575148  

    Beta Occupied:                                                        

       1A1  -101.685973     2A1   -14.385189     3A1    -9.593327  
       4A1    -7.357473     1B1    -7.342764     1B2    -7.342764  
       5A1    -1.167243     6A1    -0.585440     2B1    -0.499167  
       2B2    -0.499167  

    Beta Virtual:                                                         

       7A1    -0.317738     3B2    -0.069908     3B1    -0.069908  
       8A1     0.191154     4B1     0.480182     4B2     0.480182  
       9A1     0.533071    10A1     0.621723     1A2     0.673575  
      11A1     0.673575    12A1     0.704631     5B2     0.740030  
       5B1     0.740030     6B2     0.847187     6B1     0.847187  
      13A1     1.238610    14A1     1.700971    15A1     1.751493  
       2A2     1.751494     7B1     2.198274     7B2     2.198274  
      16A1     2.684346  

    Final Occupation by Irrep:
             A1    A2    B1    B2 
    DOCC [     6,    0,    2,    2 ]
    SOCC [     2,    0,    1,    1 ]
    NA   [     8,    0,    3,    3 ]
    NB   [     6,    0,    2,    2 ]

  @DF-UKS Final Energy:  -514.16005494520186

   => Energetics <=

    Nuclear Repulsion Energy =             52.4767400581083407
    One-Electron Energy =                -810.5763130781710970
    Two-Electron Energy =                 272.4355959060489454
    DFT Exchange-Correlation Energy =     -28.4960778311881207
    Empirical Dispersion Energy =           0.0000000000000000
    VV10 Nonlocal Energy =                  0.0000000000000000
    Total Energy =                       -514.1600549452018640

  UHF NO Occupations:
  HONO-2 :    7 A1 1.0000000
  HONO-1 :    3 B1 1.0000000
  HONO-0 :    8 A1 1.0000000
  LUNO+0 :    4 B2 0.0012147
  LUNO+1 :    4 B1 0.0012147
  LUNO+2 :    9 A1 0.0003718
  LUNO+3 :   10 A1 0.0001176


Computation Completed


Properties will be evaluated at   0.000000,   0.000000,   0.000000 [a0]

Properties computed using the SCF density matrix


 Multipole Moments:

 ------------------------------------------------------------------------------------
     Multipole            Electronic (a.u.)      Nuclear  (a.u.)        Total (a.u.)
 ------------------------------------------------------------------------------------

 L = 1.  Multiply by 2.5417464519 to convert [e a0] to [Debye]
 Dipole X            :          0.0000000            0.0000000            0.0000000
 Dipole Y            :          0.0000000            0.0000000            0.0000000
 Dipole Z            :          0.5777671            0.3116229            0.8893900
 Magnitude           :                                                    0.8893900

 ------------------------------------------------------------------------------------

*** tstop() called on Joses-MacBook-Pro-2.local at Wed Jul 16 19:15:18 2025
Module time:
	user time   =       5.89 seconds =       0.10 minutes
	system time =       5.27 seconds =       0.09 minutes
	total time  =          1 seconds =       0.02 minutes
Total time:
	user time   =       5.89 seconds =       0.10 minutes
	system time =       5.27 seconds =       0.09 minutes
	total time  =          1 seconds =       0.02 minutes

*** tstart() called on Joses-MacBook-Pro-2.local
*** at Wed Jul 16 19:15:18 2025


         ------------------------------------------------------------
                                   SCF GRAD                          
                          Rob Parrish, Justin Turney,                
                       Andy Simmonett, and Alex Sokolov              
         ------------------------------------------------------------

  ==> Geometry <==

    Molecular point group: c2v
    Full point group: C_inf_v

    Geometry (in Angstrom), charge = 0, multiplicity = 5:

       Center              X                  Y                   Z               Mass       
    ------------   -----------------  -----------------  -----------------  -----------------
         N            0.000000000000     0.000000000000     0.856870988293    14.003074004430
         CL           0.000000000000     0.000000000000    -0.343129011707    34.968852682000

  Nuclear repulsion =   52.476740058108341

  ==> Basis Set <==

  Basis Set: CC-PVDZ
    Blend: CC-PVDZ
    Number of shells: 14
    Number of basis functions: 32
    Number of Cartesian functions: 34
    Spherical Harmonics?: true
    Max angular momentum: 2

  ==> DFJKGrad: Density-Fitted SCF Gradients <==

    Gradient:                    1
    J tasked:                  Yes
    K tasked:                  Yes
    wK tasked:                  No
    OpenMP threads:              1
    Integrals threads:           1
    Memory [MiB]:              375
    Schwarz Cutoff:          1E-12
    Fitting Condition:       1E-10

   => Auxiliary Basis Set <=

  Basis Set: (CC-PVDZ AUX)
    Blend: CC-PVDZ-JKFIT
    Number of shells: 60
    Number of basis functions: 182
    Number of Cartesian functions: 211
    Spherical Harmonics?: true
    Max angular momentum: 3

  ==> DFT Potential <==

   => LibXC <=

    Version 6.2.2
    S. Lehtola, C. Steigemann, M. J.T. Oliveira, and M. A.L. Marques.,  SoftwareX 7, 1–5 (2018) (10.1016/j.softx.2017.11.002)

   => Composite Functional: B3LYP <= 

    B3LYP Hyb-GGA Exchange-Correlation Functional

    P. J. Stephens, F. J. Devlin, C. F. Chabalowski, and M. J. Frisch.,  J. Phys. Chem. 98, 11623 (1994) (10.1021/j100096a001)

    Deriv               =              1
    GGA                 =           TRUE
    Meta                =          FALSE

    Exchange Hybrid     =           TRUE
    MP2 Hybrid          =          FALSE

   => Exchange Functionals <=

    0.0800   Slater exchange
    0.7200         Becke 88

   => Exact (HF) Exchange <=

    0.2000               HF 

   => Correlation Functionals <=

    0.1900   Vosko, Wilk & Nusair (VWN5_RPA)
    0.8100   Lee, Yang & Parr

   => LibXC Density Thresholds  <==

    XC_HYB_GGA_XC_B3LYP:  1.00E-15 

   => Molecular Quadrature <=

    Radial Scheme          =       TREUTLER
    Pruning Scheme         =           NONE
    Nuclear Scheme         =       TREUTLER

    Blocking Scheme        =         OCTREE
    BS radius alpha        =              1
    Pruning alpha          =              1
    Radial Points          =             75
    Spherical Points       =            302
    Total Points           =          41002
    Total Blocks           =            366
    Max Points             =            254
    Max Functions          =             32
    Weights Tolerance      =       1.00E-15


  -Total Gradient:
     Atom            X                  Y                   Z
    ------   -----------------  -----------------  -----------------
       1        0.000000000000     0.000000000000    -1.041489694161
       2        0.000000000000     0.000000000000     1.041471278159


*** tstop() called on Joses-MacBook-Pro-2.local at Wed Jul 16 19:15:18 2025
Module time:
	user time   =       1.24 seconds =       0.02 minutes
	system time =       1.69 seconds =       0.03 minutes
	total time  =          0 seconds =       0.00 minutes
Total time:
	user time   =       7.14 seconds =       0.12 minutes
	system time =       6.96 seconds =       0.12 minutes
	total time  =          1 seconds =       0.02 minutes

    			-----------------------------------------

    			 OPTKING 3.0: for geometry optimizations 

    			     By R.A. King, Bethel University     

    			        with contributions from          

    			    A.V. Copan, J. Cayton, A. Heide      

    			-----------------------------------------

    
	                            ===> Fragment 1 <== 

	 Z (Atomic Numbers)          Masses                          Geom                  
	       7.000000            14.003074          0.00000000  0.00000000  1.61925149   
	      17.000000            34.968853          0.00000000  0.00000000 -0.64841986   

	 - Coordinate -           - BOHR/RAD -       - ANG/DEG -
	 R(1,2)           =         2.267671           1.200000


	        --- Internal Coordinate Step in ANG or DEG, aJ/ANG or AJ/DEG ---
	-------------------------------------------------------------------------------
	           Coordinate      Previous         Force          Change          New 
	           ----------      --------        ------          ------        ------
	               R(1,2)       1.20000        8.58047        0.12449       1.32449
	-------------------------------------------------------------------------------

	                                 ==> Convergence Check <==                                  
    
	Measures of convergence in internal coordinates in au.
    
	Criteria marked as inactive (o), active & met (*), and active & unmet ( ).

	----------------------------------------------------------------------------------------------
	   Step    Total Energy     Delta E     Max Force     RMS Force      Max Disp      RMS Disp   
	----------------------------------------------------------------------------------------------
	  Convergence Criteria     1.00e-06 *    3.00e-04 *             o    1.20e-03 *             o
	----------------------------------------------------------------------------------------------
	     1    -514.16005495   -5.14e+02      1.04e+00      1.04e+00 o    2.35e-01      2.35e-01 o  ~
	----------------------------------------------------------------------------------------------

Next Geometry in Ang 
	Fragment 1 (Ang)

	    N   0.0000000000   0.0000000000   0.9191140635
	   Cl   0.0000000000   0.0000000000  -0.4053720869


    Structure for next step:
    Molecular point group: c2v
    Full point group: C_inf_v

    Geometry (in Angstrom), charge = 0, multiplicity = 5:

    N            0.000000000000     0.000000000000     0.945761463864
    CL           0.000000000000     0.000000000000    -0.378724686494


Scratch directory: /tmp/
gradient() will perform analytic gradient computation.
   => Libint2 <=

    Primary   basis highest AM E, G, H:  6, 6, 3
    Auxiliary basis highest AM E, G, H:  7, 7, 4
    Onebody   basis highest AM E, G, H:  -, -, -
    Solid Harmonics ordering:            Gaussian

*** tstart() called on Joses-MacBook-Pro-2.local
*** at Wed Jul 16 19:15:18 2025

   => Loading Basis Set <=

    Name: CC-PVDZ
    Role: ORBITAL
    Keyword: BASIS
    atoms 1 entry N          line   168 file /Users/joseantoniorodriguesromero/anaconda3/share/psi4/basis/cc-pvdz.gbs 
    atoms 2 entry CL         line   658 file /Users/joseantoniorodriguesromero/anaconda3/share/psi4/basis/cc-pvdz.gbs 


         ---------------------------------------------------------
                                   SCF
               by Justin Turney, Rob Parrish, Andy Simmonett
                          and Daniel G. A. Smith
                              UKS Reference
                        1 Threads,    500 MiB Core
         ---------------------------------------------------------

  ==> Geometry <==

    Molecular point group: c2v
    Full point group: C_inf_v

    Geometry (in Angstrom), charge = 0, multiplicity = 5:

       Center              X                  Y                   Z               Mass       
    ------------   -----------------  -----------------  -----------------  -----------------
         N            0.000000000000     0.000000000000     0.945761463864    14.003074004430
         CL           0.000000000000     0.000000000000    -0.378724686494    34.968852682000

  Running in c2v symmetry.

  Rotational constants: A = ************  B =      0.96105  C =      0.96105 [cm^-1]
  Rotational constants: A = ************  B =  28811.42771  C =  28811.42771 [MHz]
  Nuclear repulsion =   47.544542502552403

  Charge       = 0
  Multiplicity = 5
  Electrons    = 24
  Nalpha       = 14
  Nbeta        = 10

  ==> Algorithm <==

  SCF Algorithm Type is DF.
  DIIS enabled.
  MOM disabled.
  Fractional occupation disabled.
  Guess Type is READ.
  Energy threshold   = 1.00e-08
  Density threshold  = 1.00e-08
  Integral threshold = 1.00e-12

  ==> Primary Basis <==

  Basis Set: CC-PVDZ
    Blend: CC-PVDZ
    Number of shells: 14
    Number of basis functions: 32
    Number of Cartesian functions: 34
    Spherical Harmonics?: true
    Max angular momentum: 2

  ==> DFT Potential <==

   => LibXC <=

    Version 6.2.2
    S. Lehtola, C. Steigemann, M. J.T. Oliveira, and M. A.L. Marques.,  SoftwareX 7, 1–5 (2018) (10.1016/j.softx.2017.11.002)

   => Composite Functional: B3LYP <= 

    B3LYP Hyb-GGA Exchange-Correlation Functional

    P. J. Stephens, F. J. Devlin, C. F. Chabalowski, and M. J. Frisch.,  J. Phys. Chem. 98, 11623 (1994) (10.1021/j100096a001)

    Deriv               =              1
    GGA                 =           TRUE
    Meta                =          FALSE

    Exchange Hybrid     =           TRUE
    MP2 Hybrid          =          FALSE

   => Exchange Functionals <=

    0.0800   Slater exchange
    0.7200         Becke 88

   => Exact (HF) Exchange <=

    0.2000               HF 

   => Correlation Functionals <=

    0.1900   Vosko, Wilk & Nusair (VWN5_RPA)
    0.8100   Lee, Yang & Parr

   => LibXC Density Thresholds  <==

    XC_HYB_GGA_XC_B3LYP:  1.00E-15 

   => Molecular Quadrature <=

    Radial Scheme          =       TREUTLER
    Pruning Scheme         =           NONE
    Nuclear Scheme         =       TREUTLER

    Blocking Scheme        =         OCTREE
    BS radius alpha        =              1
    Pruning alpha          =              1
    Radial Points          =             75
    Spherical Points       =            302
    Total Points           =          41037
    Total Blocks           =            367
    Max Points             =            256
    Max Functions          =             32
    Weights Tolerance      =       1.00E-15

   => Loading Basis Set <=

    Name: (CC-PVDZ AUX)
    Role: JKFIT
    Keyword: DF_BASIS_SCF
    atoms 1 entry N          line   171 file /Users/joseantoniorodriguesromero/anaconda3/share/psi4/basis/cc-pvdz-jkfit.gbs 
    atoms 2 entry CL         line   667 file /Users/joseantoniorodriguesromero/anaconda3/share/psi4/basis/cc-pvdz-jkfit.gbs 

   => Loading Basis Set <=

    Name: CC-PVDZ
    Role: ORBITAL
    Keyword: BASIS
    atoms 1 entry N          line   168 file /Users/joseantoniorodriguesromero/anaconda3/share/psi4/basis/cc-pvdz.gbs 
    atoms 2 entry CL         line   658 file /Users/joseantoniorodriguesromero/anaconda3/share/psi4/basis/cc-pvdz.gbs 

  Reading orbitals from file /tmp/quintet_NCl.default.68970.180.npy, no projection.

  ==> Integral Setup <==

  DFHelper Memory: AOs need 0.002 GiB; user supplied 0.329 GiB. 
  Using in-core AOs.

  ==> MemDFJK: Density-Fitted J/K Matrices <==

    J tasked:                   Yes
    K tasked:                   Yes
    wK tasked:                   No
    OpenMP threads:               1
    Memory [MiB]:               336
    Algorithm:                 Core
    Schwarz Cutoff:           1E-12
    Mask sparsity (%):       0.0000
    Fitting Condition:        1E-10

   => Auxiliary Basis Set <=

  Basis Set: (CC-PVDZ AUX)
    Blend: CC-PVDZ-JKFIT
    Number of shells: 60
    Number of basis functions: 182
    Number of Cartesian functions: 211
    Spherical Harmonics?: true
    Max angular momentum: 3

  Cached 100.0% of DFT collocation blocks in 0.038 [GiB].

  Minimum eigenvalue in the overlap matrix is 1.2000244075E-02.
  Reciprocal condition number of the overlap matrix is 3.9694216529E-03.
    Using symmetric orthogonalization.

  ==> Pre-Iterations <==

  SCF Guess: Orbitals guess was supplied from a previous computation.

   -------------------------------------------------------
    Irrep   Nso     Nmo     Nalpha   Nbeta   Ndocc  Nsocc
   -------------------------------------------------------
     A1        16      16       8       6       6       2
     A2         2       2       0       0       0       0
     B1         7       7       3       2       2       1
     B2         7       7       3       2       2       1
   -------------------------------------------------------
    Total      32      32      14      10      10       4
   -------------------------------------------------------

  ==> Iterations <==

                           Total Energy        Delta E     RMS |[F,P]|

   @DF-UKS iter   0:  -514.39723026217166   -5.14397e+02   9.67024e-02 
   @DF-UKS iter   1:  -514.33817632994101    5.90539e-02   4.79898e-03 ADIIS/DIIS
   @DF-UKS iter   2:  -514.33905022171075   -8.73892e-04   5.04237e-03 ADIIS/DIIS/DAMP=1%
   @DF-UKS iter   3:  -514.34768455600397   -8.63433e-03   1.65558e-03 ADIIS/DIIS/DAMP=1%
   @DF-UKS iter   4:  -514.34393124769883    3.75331e-03   5.65546e-04 ADIIS/DIIS/DAMP=1%
   @DF-UKS iter   5:  -514.34378373314871    1.47515e-04   5.03538e-05 DIIS/DAMP=1%
   @DF-UKS iter   6:  -514.34376145128533    2.22819e-05   1.29938e-05 DIIS/DAMP=1%
   @DF-UKS iter   7:  -514.34375629349620    5.15779e-06   2.75870e-06 DIIS/DAMP=1%
   @DF-UKS iter   8:  -514.34375934479056   -3.05129e-06   1.05407e-06 DIIS/DAMP=1%
   @DF-UKS iter   9:  -514.34376001000055   -6.65210e-07   5.76007e-08 DIIS/DAMP=1%
   @DF-UKS iter  10:  -514.34376023211667   -2.22116e-07   1.45423e-08 DIIS/DAMP=1%
   @DF-UKS iter  11:  -514.34376025060044   -1.84838e-08   1.15169e-09 DIIS/DAMP=1%
   @DF-UKS iter  12:  -514.34376025227823   -1.67779e-09   1.08017e-10 DIIS/DAMP=1%
  Energy and wave function converged.


  ==> Post-Iterations <==

   Electrons on quadrature grid:
      Nalpha   =   14.0000001691 ; deviation = 1.691e-07
      Nbeta    =   10.0000003458 ; deviation = 3.458e-07
      Ntotal   =   24.0000005149 ; deviation = 5.149e-07 

   @Spin Contamination Metric:   6.794527105E-03
   @S^2 Expected:                6.000000000E+00
   @S^2 Observed:                6.006794527E+00
   @S   Expected:                2.000000000E+00
   @S   Observed:                2.000000000E+00

    Orbital Energies [Eh]
    ---------------------

    Alpha Occupied:                                                       

       1A1  -101.674918     2A1   -14.435620     3A1    -9.578114  
       4A1    -7.345160     1B2    -7.333088     1B1    -7.333088  
       5A1    -1.158428     6A1    -0.735685     7A1    -0.551129  
       2B1    -0.534214     2B2    -0.534214     3B1    -0.266696  
       3B2    -0.266696     8A1     0.023807  

    Alpha Virtual:                                                        

       4B2     0.472345     4B1     0.472345     9A1     0.500021  
      10A1     0.544790    11A1     0.574013    12A1     0.627450  
       1A2     0.627451     5B2     0.669217     5B1     0.669217  
       6B1     0.728948     6B2     0.728948    13A1     1.152979  
      14A1     1.351541     2A2     1.651296    15A1     1.651298  
       7B1     1.988525     7B2     1.988525    16A1     2.521881  

    Beta Occupied:                                                        

       1A1  -101.666129     2A1   -14.380844     3A1    -9.569186  
       4A1    -7.332203     1B2    -7.320243     1B1    -7.320243  
       5A1    -1.076892     6A1    -0.594667     2B1    -0.444399  
       2B2    -0.444399  

    Beta Virtual:                                                         

       7A1    -0.307384     3B1    -0.084788     3B2    -0.084788  
       8A1     0.170627     4B2     0.501851     4B1     0.501851  
       9A1     0.553309    10A1     0.605550    11A1     0.669161  
      12A1     0.690924     1A2     0.690925     5B2     0.758549  
       5B1     0.758549     6B1     0.791827     6B2     0.791827  
      13A1     1.225544    14A1     1.447101    15A1     1.760717  
       2A2     1.760718     7B1     2.103221     7B2     2.103221  
      16A1     2.637617  

    Final Occupation by Irrep:
             A1    A2    B1    B2 
    DOCC [     6,    0,    2,    2 ]
    SOCC [     2,    0,    1,    1 ]
    NA   [     8,    0,    3,    3 ]
    NB   [     6,    0,    2,    2 ]

  @DF-UKS Final Energy:  -514.34376025227823

   => Energetics <=

    Nuclear Repulsion Energy =             47.5445425025524031
    One-Electron Energy =                -801.6800943457817539
    Two-Electron Energy =                 268.2005457506995754
    DFT Exchange-Correlation Energy =     -28.4087541597484687
    Empirical Dispersion Energy =           0.0000000000000000
    VV10 Nonlocal Energy =                  0.0000000000000000
    Total Energy =                       -514.3437602522782299

  UHF NO Occupations:
  HONO-2 :    8 A1 1.0000000
  HONO-1 :    3 B1 1.0000000
  HONO-0 :    3 B2 1.0000000
  LUNO+0 :    4 B2 0.0013716
  LUNO+1 :    4 B1 0.0013716
  LUNO+2 :    9 A1 0.0005228
  LUNO+3 :   10 A1 0.0001331


Computation Completed


Properties will be evaluated at   0.000000,   0.000000,   0.000000 [a0]

Properties computed using the SCF density matrix


 Multipole Moments:

 ------------------------------------------------------------------------------------
     Multipole            Electronic (a.u.)      Nuclear  (a.u.)        Total (a.u.)
 ------------------------------------------------------------------------------------

 L = 1.  Multiply by 2.5417464519 to convert [e a0] to [Debye]
 Dipole X            :          0.0000000            0.0000000            0.0000000
 Dipole Y            :          0.0000000            0.0000000            0.0000000
 Dipole Z            :          0.3098567            0.3439501            0.6538069
 Magnitude           :                                                    0.6538069

 ------------------------------------------------------------------------------------

*** tstop() called on Joses-MacBook-Pro-2.local at Wed Jul 16 19:15:19 2025
Module time:
	user time   =       6.33 seconds =       0.11 minutes
	system time =       4.10 seconds =       0.07 minutes
	total time  =          1 seconds =       0.02 minutes
Total time:
	user time   =      13.51 seconds =       0.23 minutes
	system time =      11.27 seconds =       0.19 minutes
	total time  =          2 seconds =       0.03 minutes

*** tstart() called on Joses-MacBook-Pro-2.local
*** at Wed Jul 16 19:15:19 2025


         ------------------------------------------------------------
                                   SCF GRAD                          
                          Rob Parrish, Justin Turney,                
                       Andy Simmonett, and Alex Sokolov              
         ------------------------------------------------------------

  ==> Geometry <==

    Molecular point group: c2v
    Full point group: C_inf_v

    Geometry (in Angstrom), charge = 0, multiplicity = 5:

       Center              X                  Y                   Z               Mass       
    ------------   -----------------  -----------------  -----------------  -----------------
         N            0.000000000000     0.000000000000     0.945761463864    14.003074004430
         CL           0.000000000000     0.000000000000    -0.378724686494    34.968852682000

  Nuclear repulsion =   47.544542502552403

  ==> Basis Set <==

  Basis Set: CC-PVDZ
    Blend: CC-PVDZ
    Number of shells: 14
    Number of basis functions: 32
    Number of Cartesian functions: 34
    Spherical Harmonics?: true
    Max angular momentum: 2

  ==> DFJKGrad: Density-Fitted SCF Gradients <==

    Gradient:                    1
    J tasked:                  Yes
    K tasked:                  Yes
    wK tasked:                  No
    OpenMP threads:              1
    Integrals threads:           1
    Memory [MiB]:              375
    Schwarz Cutoff:          1E-12
    Fitting Condition:       1E-10

   => Auxiliary Basis Set <=

  Basis Set: (CC-PVDZ AUX)
    Blend: CC-PVDZ-JKFIT
    Number of shells: 60
    Number of basis functions: 182
    Number of Cartesian functions: 211
    Spherical Harmonics?: true
    Max angular momentum: 3

  ==> DFT Potential <==

   => LibXC <=

    Version 6.2.2
    S. Lehtola, C. Steigemann, M. J.T. Oliveira, and M. A.L. Marques.,  SoftwareX 7, 1–5 (2018) (10.1016/j.softx.2017.11.002)

   => Composite Functional: B3LYP <= 

    B3LYP Hyb-GGA Exchange-Correlation Functional

    P. J. Stephens, F. J. Devlin, C. F. Chabalowski, and M. J. Frisch.,  J. Phys. Chem. 98, 11623 (1994) (10.1021/j100096a001)

    Deriv               =              1
    GGA                 =           TRUE
    Meta                =          FALSE

    Exchange Hybrid     =           TRUE
    MP2 Hybrid          =          FALSE

   => Exchange Functionals <=

    0.0800   Slater exchange
    0.7200         Becke 88

   => Exact (HF) Exchange <=

    0.2000               HF 

   => Correlation Functionals <=

    0.1900   Vosko, Wilk & Nusair (VWN5_RPA)
    0.8100   Lee, Yang & Parr

   => LibXC Density Thresholds  <==

    XC_HYB_GGA_XC_B3LYP:  1.00E-15 

   => Molecular Quadrature <=

    Radial Scheme          =       TREUTLER
    Pruning Scheme         =           NONE
    Nuclear Scheme         =       TREUTLER

    Blocking Scheme        =         OCTREE
    BS radius alpha        =              1
    Pruning alpha          =              1
    Radial Points          =             75
    Spherical Points       =            302
    Total Points           =          41037
    Total Blocks           =            367
    Max Points             =            256
    Max Functions          =             32
    Weights Tolerance      =       1.00E-15


  -Total Gradient:
     Atom            X                  Y                   Z
    ------   -----------------  -----------------  -----------------
       1        0.000000000000     0.000000000000    -0.581982830370
       2        0.000000000000     0.000000000000     0.581959697766


*** tstop() called on Joses-MacBook-Pro-2.local at Wed Jul 16 19:15:19 2025
Module time:
	user time   =       1.01 seconds =       0.02 minutes
	system time =       1.78 seconds =       0.03 minutes
	total time  =          0 seconds =       0.00 minutes
Total time:
	user time   =      14.52 seconds =       0.24 minutes
	system time =      13.05 seconds =       0.22 minutes
	total time  =          2 seconds =       0.03 minutes

    			-----------------------------------------

    			 OPTKING 3.0: for geometry optimizations 

    			     By R.A. King, Bethel University     

    			        with contributions from          

    			    A.V. Copan, J. Cayton, A. Heide      

    			-----------------------------------------

    
	                            ===> Fragment 1 <== 

	 Z (Atomic Numbers)          Masses                          Geom                  
	       7.000000            14.003074          0.00000000  0.00000000  1.78723015   
	      17.000000            34.968853          0.00000000  0.00000000 -0.71568593   

	 - Coordinate -           - BOHR/RAD -       - ANG/DEG -
	 R(1,2)           =         2.502916           1.324486


	        --- Internal Coordinate Step in ANG or DEG, aJ/ANG or AJ/DEG ---
	-------------------------------------------------------------------------------
	           Coordinate      Previous         Force          Change          New 
	           ----------      --------        ------          ------        ------
	               R(1,2)       1.32449        4.79470        0.13735       1.46184
	-------------------------------------------------------------------------------

	                                 ==> Convergence Check <==                                  
    
	Measures of convergence in internal coordinates in au.
    
	Criteria marked as inactive (o), active & met (*), and active & unmet ( ).

	----------------------------------------------------------------------------------------------
	   Step    Total Energy     Delta E     Max Force     RMS Force      Max Disp      RMS Disp   
	----------------------------------------------------------------------------------------------
	  Convergence Criteria     1.00e-06 *    3.00e-04 *             o    1.20e-03 *             o
	----------------------------------------------------------------------------------------------
	     2    -514.34376025   -1.84e-01      5.82e-01      5.82e-01 o    2.60e-01      2.60e-01 o  ~
	----------------------------------------------------------------------------------------------

Next Geometry in Ang 
	Fragment 1 (Ang)

	    N   0.0000000000   0.0000000000   1.0144374995
	   Cl   0.0000000000   0.0000000000  -0.4474007222


    Structure for next step:
    Molecular point group: c2v
    Full point group: C_inf_v

    Geometry (in Angstrom), charge = 0, multiplicity = 5:

    N            0.000000000000     0.000000000000     1.043838968141
    CL           0.000000000000     0.000000000000    -0.417999253579


Scratch directory: /tmp/
gradient() will perform analytic gradient computation.
   => Libint2 <=

    Primary   basis highest AM E, G, H:  6, 6, 3
    Auxiliary basis highest AM E, G, H:  7, 7, 4
    Onebody   basis highest AM E, G, H:  -, -, -
    Solid Harmonics ordering:            Gaussian

*** tstart() called on Joses-MacBook-Pro-2.local
*** at Wed Jul 16 19:15:19 2025

   => Loading Basis Set <=

    Name: CC-PVDZ
    Role: ORBITAL
    Keyword: BASIS
    atoms 1 entry N          line   168 file /Users/joseantoniorodriguesromero/anaconda3/share/psi4/basis/cc-pvdz.gbs 
    atoms 2 entry CL         line   658 file /Users/joseantoniorodriguesromero/anaconda3/share/psi4/basis/cc-pvdz.gbs 


         ---------------------------------------------------------
                                   SCF
               by Justin Turney, Rob Parrish, Andy Simmonett
                          and Daniel G. A. Smith
                              UKS Reference
                        1 Threads,    500 MiB Core
         ---------------------------------------------------------

  ==> Geometry <==

    Molecular point group: c2v
    Full point group: C_inf_v

    Geometry (in Angstrom), charge = 0, multiplicity = 5:

       Center              X                  Y                   Z               Mass       
    ------------   -----------------  -----------------  -----------------  -----------------
         N            0.000000000000     0.000000000000     1.043838968141    14.003074004430
         CL           0.000000000000     0.000000000000    -0.417999253579    34.968852682000

  Running in c2v symmetry.

  Rotational constants: A = ************  B =      0.78893  C =      0.78893 [cm^-1]
  Rotational constants: A = ************  B =  23651.62566  C =  23651.62566 [MHz]
  Nuclear repulsion =   43.077330400914711

  Charge       = 0
  Multiplicity = 5
  Electrons    = 24
  Nalpha       = 14
  Nbeta        = 10

  ==> Algorithm <==

  SCF Algorithm Type is DF.
  DIIS enabled.
  MOM disabled.
  Fractional occupation disabled.
  Guess Type is READ.
  Energy threshold   = 1.00e-08
  Density threshold  = 1.00e-08
  Integral threshold = 1.00e-12

  ==> Primary Basis <==

  Basis Set: CC-PVDZ
    Blend: CC-PVDZ
    Number of shells: 14
    Number of basis functions: 32
    Number of Cartesian functions: 34
    Spherical Harmonics?: true
    Max angular momentum: 2

  ==> DFT Potential <==

   => LibXC <=

    Version 6.2.2
    S. Lehtola, C. Steigemann, M. J.T. Oliveira, and M. A.L. Marques.,  SoftwareX 7, 1–5 (2018) (10.1016/j.softx.2017.11.002)

   => Composite Functional: B3LYP <= 

    B3LYP Hyb-GGA Exchange-Correlation Functional

    P. J. Stephens, F. J. Devlin, C. F. Chabalowski, and M. J. Frisch.,  J. Phys. Chem. 98, 11623 (1994) (10.1021/j100096a001)

    Deriv               =              1
    GGA                 =           TRUE
    Meta                =          FALSE

    Exchange Hybrid     =           TRUE
    MP2 Hybrid          =          FALSE

   => Exchange Functionals <=

    0.0800   Slater exchange
    0.7200         Becke 88

   => Exact (HF) Exchange <=

    0.2000               HF 

   => Correlation Functionals <=

    0.1900   Vosko, Wilk & Nusair (VWN5_RPA)
    0.8100   Lee, Yang & Parr

   => LibXC Density Thresholds  <==

    XC_HYB_GGA_XC_B3LYP:  1.00E-15 

   => Molecular Quadrature <=

    Radial Scheme          =       TREUTLER
    Pruning Scheme         =           NONE
    Nuclear Scheme         =       TREUTLER

    Blocking Scheme        =         OCTREE
    BS radius alpha        =              1
    Pruning alpha          =              1
    Radial Points          =             75
    Spherical Points       =            302
    Total Points           =          41063
    Total Blocks           =            366
    Max Points             =            256
    Max Functions          =             32
    Weights Tolerance      =       1.00E-15

   => Loading Basis Set <=

    Name: (CC-PVDZ AUX)
    Role: JKFIT
    Keyword: DF_BASIS_SCF
    atoms 1 entry N          line   171 file /Users/joseantoniorodriguesromero/anaconda3/share/psi4/basis/cc-pvdz-jkfit.gbs 
    atoms 2 entry CL         line   667 file /Users/joseantoniorodriguesromero/anaconda3/share/psi4/basis/cc-pvdz-jkfit.gbs 

   => Loading Basis Set <=

    Name: CC-PVDZ
    Role: ORBITAL
    Keyword: BASIS
    atoms 1 entry N          line   168 file /Users/joseantoniorodriguesromero/anaconda3/share/psi4/basis/cc-pvdz.gbs 
    atoms 2 entry CL         line   658 file /Users/joseantoniorodriguesromero/anaconda3/share/psi4/basis/cc-pvdz.gbs 

  Reading orbitals from file /tmp/quintet_NCl.default.68970.180.npy, no projection.

  ==> Integral Setup <==

  DFHelper Memory: AOs need 0.002 GiB; user supplied 0.329 GiB. 
  Using in-core AOs.

  ==> MemDFJK: Density-Fitted J/K Matrices <==

    J tasked:                   Yes
    K tasked:                   Yes
    wK tasked:                   No
    OpenMP threads:               1
    Memory [MiB]:               336
    Algorithm:                 Core
    Schwarz Cutoff:           1E-12
    Mask sparsity (%):       0.0000
    Fitting Condition:        1E-10

   => Auxiliary Basis Set <=

  Basis Set: (CC-PVDZ AUX)
    Blend: CC-PVDZ-JKFIT
    Number of shells: 60
    Number of basis functions: 182
    Number of Cartesian functions: 211
    Spherical Harmonics?: true
    Max angular momentum: 3

  Cached 100.0% of DFT collocation blocks in 0.038 [GiB].

  Minimum eigenvalue in the overlap matrix is 1.6922673756E-02.
  Reciprocal condition number of the overlap matrix is 5.7861374435E-03.
    Using symmetric orthogonalization.

  ==> Pre-Iterations <==

  SCF Guess: Orbitals guess was supplied from a previous computation.

   -------------------------------------------------------
    Irrep   Nso     Nmo     Nalpha   Nbeta   Ndocc  Nsocc
   -------------------------------------------------------
     A1        16      16       8       6       6       2
     A2         2       2       0       0       0       0
     B1         7       7       3       2       2       1
     B2         7       7       3       2       2       1
   -------------------------------------------------------
    Total      32      32      14      10      10       4
   -------------------------------------------------------

  ==> Iterations <==

                           Total Energy        Delta E     RMS |[F,P]|

   @DF-UKS iter   0:  -514.46907645380702   -5.14469e+02   7.99232e-02 
   @DF-UKS iter   1:  -514.45793550673307    1.11409e-02   4.26142e-03 ADIIS/DIIS
   @DF-UKS iter   2:  -514.45579734963371    2.13816e-03   6.28025e-03 ADIIS/DIIS/DAMP=1%
   @DF-UKS iter   3:  -514.46653488890558   -1.07375e-02   1.44137e-03 ADIIS/DIIS/DAMP=1%
   @DF-UKS iter   4:  -514.46385718640136    2.67770e-03   6.66541e-04 ADIIS/DIIS/DAMP=1%
   @DF-UKS iter   5:  -514.46328196682998    5.75220e-04   5.87586e-05 DIIS/DAMP=1%
   @DF-UKS iter   6:  -514.46329600566014   -1.40388e-05   1.55471e-05 DIIS/DAMP=1%
   @DF-UKS iter   7:  -514.46328509592820    1.09097e-05   3.09417e-06 DIIS/DAMP=1%
   @DF-UKS iter   8:  -514.46328753338821   -2.43746e-06   1.42358e-06 DIIS/DAMP=1%
   @DF-UKS iter   9:  -514.46328876493158   -1.23154e-06   2.57333e-07 DIIS/DAMP=1%
   @DF-UKS iter  10:  -514.46328891803137   -1.53100e-07   1.89842e-08 DIIS/DAMP=1%
   @DF-UKS iter  11:  -514.46328900026856   -8.22372e-08   2.68227e-09 DIIS/DAMP=1%
   @DF-UKS iter  12:  -514.46328900074764   -4.79076e-10   1.04892e-10 DIIS/DAMP=1%
  Energy and wave function converged.


  ==> Post-Iterations <==

   Electrons on quadrature grid:
      Nalpha   =   13.9999997886 ; deviation = -2.114e-07
      Nbeta    =   10.0000002600 ; deviation = 2.600e-07
      Ntotal   =   24.0000000487 ; deviation = 4.866e-08 

   @Spin Contamination Metric:   7.080458618E-03
   @S^2 Expected:                6.000000000E+00
   @S^2 Observed:                6.007080459E+00
   @S   Expected:                2.000000000E+00
   @S   Observed:                2.000000000E+00

    Orbital Energies [Eh]
    ---------------------

    Alpha Occupied:                                                       

       1A1  -101.641538     2A1   -14.432254     3A1    -9.548529  
       4A1    -7.316816     1B1    -7.302518     1B2    -7.302518  
       5A1    -1.077257     6A1    -0.745875     7A1    -0.532225  
       2B1    -0.487127     2B2    -0.487127     3B1    -0.282505  
       3B2    -0.282505     8A1    -0.026873  

    Alpha Virtual:                                                        

       9A1     0.487496     4B1     0.495664     4B2     0.495664  
      10A1     0.531620    11A1     0.592966     5B1     0.636040  
       5B2     0.636040     1A2     0.653232    12A1     0.653232  
       6B1     0.738996     6B2     0.738996    13A1     1.120435  
      14A1     1.182182     2A2     1.653040    15A1     1.653042  
       7B1     1.894687     7B2     1.894687    16A1     2.431802  

    Beta Occupied:                                                        

       1A1  -101.632177     2A1   -14.373706     3A1    -9.538973  
       4A1    -7.300196     1B1    -7.290656     1B2    -7.290656  
       5A1    -0.985192     6A1    -0.601269     2B1    -0.398287  
       2B2    -0.398287  

    Beta Virtual:                                                         

       7A1    -0.295482     3B1    -0.093278     3B2    -0.093278  
       8A1     0.138010     4B1     0.522503     4B2     0.522503  
       9A1     0.556371    10A1     0.574532    11A1     0.690078  
      12A1     0.706119     1A2     0.706119     5B1     0.730274  
       5B2     0.730274     6B1     0.802294     6B2     0.802294  
      13A1     1.201949    14A1     1.269986     2A2     1.775972  
      15A1     1.775976     7B1     2.016692     7B2     2.016692  
      16A1     2.553355  

    Final Occupation by Irrep:
             A1    A2    B1    B2 
    DOCC [     6,    0,    2,    2 ]
    SOCC [     2,    0,    1,    1 ]
    NA   [     8,    0,    3,    3 ]
    NB   [     6,    0,    2,    2 ]

  @DF-UKS Final Energy:  -514.46328900074764

   => Energetics <=

    Nuclear Repulsion Energy =             43.0773304009147111
    One-Electron Energy =                -793.6191204773747359
    Two-Electron Energy =                 264.4323637718972009
    DFT Exchange-Correlation Energy =     -28.3538626961847946
    Empirical Dispersion Energy =           0.0000000000000000
    VV10 Nonlocal Energy =                  0.0000000000000000
    Total Energy =                       -514.4632890007476362

  UHF NO Occupations:
  HONO-2 :    3 B1 1.0000000
  HONO-1 :    7 A1 1.0000000
  HONO-0 :    8 A1 1.0000000
  LUNO+0 :    4 B1 0.0013406
  LUNO+1 :    4 B2 0.0013406
  LUNO+2 :    9 A1 0.0007412
  LUNO+3 :   10 A1 0.0001197


Computation Completed


Properties will be evaluated at   0.000000,   0.000000,   0.000000 [a0]

Properties computed using the SCF density matrix


 Multipole Moments:

 ------------------------------------------------------------------------------------
     Multipole            Electronic (a.u.)      Nuclear  (a.u.)        Total (a.u.)
 ------------------------------------------------------------------------------------

 L = 1.  Multiply by 2.5417464519 to convert [e a0] to [Debye]
 Dipole X            :          0.0000000            0.0000000            0.0000000
 Dipole Y            :          0.0000000            0.0000000            0.0000000
 Dipole Z            :          0.0357690            0.3796185            0.4153875
 Magnitude           :                                                    0.4153875

 ------------------------------------------------------------------------------------

*** tstop() called on Joses-MacBook-Pro-2.local at Wed Jul 16 19:15:21 2025
Module time:
	user time   =       6.23 seconds =       0.10 minutes
	system time =       4.73 seconds =       0.08 minutes
	total time  =          2 seconds =       0.03 minutes
Total time:
	user time   =      20.79 seconds =       0.35 minutes
	system time =      18.00 seconds =       0.30 minutes
	total time  =          4 seconds =       0.07 minutes

*** tstart() called on Joses-MacBook-Pro-2.local
*** at Wed Jul 16 19:15:21 2025


         ------------------------------------------------------------
                                   SCF GRAD                          
                          Rob Parrish, Justin Turney,                
                       Andy Simmonett, and Alex Sokolov              
         ------------------------------------------------------------

  ==> Geometry <==

    Molecular point group: c2v
    Full point group: C_inf_v

    Geometry (in Angstrom), charge = 0, multiplicity = 5:

       Center              X                  Y                   Z               Mass       
    ------------   -----------------  -----------------  -----------------  -----------------
         N            0.000000000000     0.000000000000     1.043838968141    14.003074004430
         CL           0.000000000000     0.000000000000    -0.417999253579    34.968852682000

  Nuclear repulsion =   43.077330400914711

  ==> Basis Set <==

  Basis Set: CC-PVDZ
    Blend: CC-PVDZ
    Number of shells: 14
    Number of basis functions: 32
    Number of Cartesian functions: 34
    Spherical Harmonics?: true
    Max angular momentum: 2

  ==> DFJKGrad: Density-Fitted SCF Gradients <==

    Gradient:                    1
    J tasked:                  Yes
    K tasked:                  Yes
    wK tasked:                  No
    OpenMP threads:              1
    Integrals threads:           1
    Memory [MiB]:              375
    Schwarz Cutoff:          1E-12
    Fitting Condition:       1E-10

   => Auxiliary Basis Set <=

  Basis Set: (CC-PVDZ AUX)
    Blend: CC-PVDZ-JKFIT
    Number of shells: 60
    Number of basis functions: 182
    Number of Cartesian functions: 211
    Spherical Harmonics?: true
    Max angular momentum: 3

  ==> DFT Potential <==

   => LibXC <=

    Version 6.2.2
    S. Lehtola, C. Steigemann, M. J.T. Oliveira, and M. A.L. Marques.,  SoftwareX 7, 1–5 (2018) (10.1016/j.softx.2017.11.002)

   => Composite Functional: B3LYP <= 

    B3LYP Hyb-GGA Exchange-Correlation Functional

    P. J. Stephens, F. J. Devlin, C. F. Chabalowski, and M. J. Frisch.,  J. Phys. Chem. 98, 11623 (1994) (10.1021/j100096a001)

    Deriv               =              1
    GGA                 =           TRUE
    Meta                =          FALSE

    Exchange Hybrid     =           TRUE
    MP2 Hybrid          =          FALSE

   => Exchange Functionals <=

    0.0800   Slater exchange
    0.7200         Becke 88

   => Exact (HF) Exchange <=

    0.2000               HF 

   => Correlation Functionals <=

    0.1900   Vosko, Wilk & Nusair (VWN5_RPA)
    0.8100   Lee, Yang & Parr

   => LibXC Density Thresholds  <==

    XC_HYB_GGA_XC_B3LYP:  1.00E-15 

   => Molecular Quadrature <=

    Radial Scheme          =       TREUTLER
    Pruning Scheme         =           NONE
    Nuclear Scheme         =       TREUTLER

    Blocking Scheme        =         OCTREE
    BS radius alpha        =              1
    Pruning alpha          =              1
    Radial Points          =             75
    Spherical Points       =            302
    Total Points           =          41063
    Total Blocks           =            366
    Max Points             =            256
    Max Functions          =             32
    Weights Tolerance      =       1.00E-15


  -Total Gradient:
     Atom            X                  Y                   Z
    ------   -----------------  -----------------  -----------------
       1        0.000000000000    -0.000000000000    -0.370701419702
       2        0.000000000000    -0.000000000000     0.370677985688


*** tstop() called on Joses-MacBook-Pro-2.local at Wed Jul 16 19:15:21 2025
Module time:
	user time   =       1.20 seconds =       0.02 minutes
	system time =       1.73 seconds =       0.03 minutes
	total time  =          0 seconds =       0.00 minutes
Total time:
	user time   =      22.00 seconds =       0.37 minutes
	system time =      19.73 seconds =       0.33 minutes
	total time  =          4 seconds =       0.07 minutes

    			-----------------------------------------

    			 OPTKING 3.0: for geometry optimizations 

    			     By R.A. King, Bethel University     

    			        with contributions from          

    			    A.V. Copan, J. Cayton, A. Heide      

    			-----------------------------------------

    
	                            ===> Fragment 1 <== 

	 Z (Atomic Numbers)          Masses                          Geom                  
	       7.000000            14.003074          0.00000000  0.00000000  1.97256977   
	      17.000000            34.968853          0.00000000  0.00000000 -0.78990411   

	 - Coordinate -           - BOHR/RAD -       - ANG/DEG -
	 R(1,2)           =         2.762474           1.461838


	        --- Internal Coordinate Step in ANG or DEG, aJ/ANG or AJ/DEG ---
	-------------------------------------------------------------------------------
	           Coordinate      Previous         Force          Change          New 
	           ----------      --------        ------          ------        ------
	               R(1,2)       1.46184        3.05401        0.13524       1.59708
	-------------------------------------------------------------------------------

	                                 ==> Convergence Check <==                                  
    
	Measures of convergence in internal coordinates in au.
    
	Criteria marked as inactive (o), active & met (*), and active & unmet ( ).

	----------------------------------------------------------------------------------------------
	   Step    Total Energy     Delta E     Max Force     RMS Force      Max Disp      RMS Disp   
	----------------------------------------------------------------------------------------------
	  Convergence Criteria     1.00e-06 *    3.00e-04 *             o    1.20e-03 *             o
	----------------------------------------------------------------------------------------------
	     3    -514.46328900   -1.20e-01      3.71e-01      3.71e-01 o    2.56e-01      2.56e-01 o  ~
	----------------------------------------------------------------------------------------------

Next Geometry in Ang 
	Fragment 1 (Ang)

	    N   0.0000000000   0.0000000000   1.1114612809
	   Cl   0.0000000000   0.0000000000  -0.4856215663


    Structure for next step:
    Molecular point group: c2v
    Full point group: C_inf_v

    Geometry (in Angstrom), charge = 0, multiplicity = 5:

    N            0.000000000000     0.000000000000     1.140411631393
    CL           0.000000000000     0.000000000000    -0.456671215814


Scratch directory: /tmp/
gradient() will perform analytic gradient computation.
   => Libint2 <=

    Primary   basis highest AM E, G, H:  6, 6, 3
    Auxiliary basis highest AM E, G, H:  7, 7, 4
    Onebody   basis highest AM E, G, H:  -, -, -
    Solid Harmonics ordering:            Gaussian

*** tstart() called on Joses-MacBook-Pro-2.local
*** at Wed Jul 16 19:15:21 2025

   => Loading Basis Set <=

    Name: CC-PVDZ
    Role: ORBITAL
    Keyword: BASIS
    atoms 1 entry N          line   168 file /Users/joseantoniorodriguesromero/anaconda3/share/psi4/basis/cc-pvdz.gbs 
    atoms 2 entry CL         line   658 file /Users/joseantoniorodriguesromero/anaconda3/share/psi4/basis/cc-pvdz.gbs 


         ---------------------------------------------------------
                                   SCF
               by Justin Turney, Rob Parrish, Andy Simmonett
                          and Daniel G. A. Smith
                              UKS Reference
                        1 Threads,    500 MiB Core
         ---------------------------------------------------------

  ==> Geometry <==

    Molecular point group: c2v
    Full point group: C_inf_v

    Geometry (in Angstrom), charge = 0, multiplicity = 5:

       Center              X                  Y                   Z               Mass       
    ------------   -----------------  -----------------  -----------------  -----------------
         N            0.000000000000     0.000000000000     1.140411631393    14.003074004430
         CL           0.000000000000     0.000000000000    -0.456671215814    34.968852682000

  Running in c2v symmetry.

  Rotational constants: A = ************  B =      0.66097  C =      0.66097 [cm^-1]
  Rotational constants: A = ************  B =  19815.48615  C =  19815.48615 [MHz]
  Nuclear repulsion =   39.429443613305857

  Charge       = 0
  Multiplicity = 5
  Electrons    = 24
  Nalpha       = 14
  Nbeta        = 10

  ==> Algorithm <==

  SCF Algorithm Type is DF.
  DIIS enabled.
  MOM disabled.
  Fractional occupation disabled.
  Guess Type is READ.
  Energy threshold   = 1.00e-08
  Density threshold  = 1.00e-08
  Integral threshold = 1.00e-12

  ==> Primary Basis <==

  Basis Set: CC-PVDZ
    Blend: CC-PVDZ
    Number of shells: 14
    Number of basis functions: 32
    Number of Cartesian functions: 34
    Spherical Harmonics?: true
    Max angular momentum: 2

  ==> DFT Potential <==

   => LibXC <=

    Version 6.2.2
    S. Lehtola, C. Steigemann, M. J.T. Oliveira, and M. A.L. Marques.,  SoftwareX 7, 1–5 (2018) (10.1016/j.softx.2017.11.002)

   => Composite Functional: B3LYP <= 

    B3LYP Hyb-GGA Exchange-Correlation Functional

    P. J. Stephens, F. J. Devlin, C. F. Chabalowski, and M. J. Frisch.,  J. Phys. Chem. 98, 11623 (1994) (10.1021/j100096a001)

    Deriv               =              1
    GGA                 =           TRUE
    Meta                =          FALSE

    Exchange Hybrid     =           TRUE
    MP2 Hybrid          =          FALSE

   => Exchange Functionals <=

    0.0800   Slater exchange
    0.7200         Becke 88

   => Exact (HF) Exchange <=

    0.2000               HF 

   => Correlation Functionals <=

    0.1900   Vosko, Wilk & Nusair (VWN5_RPA)
    0.8100   Lee, Yang & Parr

   => LibXC Density Thresholds  <==

    XC_HYB_GGA_XC_B3LYP:  1.00E-15 

   => Molecular Quadrature <=

    Radial Scheme          =       TREUTLER
    Pruning Scheme         =           NONE
    Nuclear Scheme         =       TREUTLER

    Blocking Scheme        =         OCTREE
    BS radius alpha        =              1
    Pruning alpha          =              1
    Radial Points          =             75
    Spherical Points       =            302
    Total Points           =          41089
    Total Blocks           =            367
    Max Points             =            256
    Max Functions          =             32
    Weights Tolerance      =       1.00E-15

   => Loading Basis Set <=

    Name: (CC-PVDZ AUX)
    Role: JKFIT
    Keyword: DF_BASIS_SCF
    atoms 1 entry N          line   171 file /Users/joseantoniorodriguesromero/anaconda3/share/psi4/basis/cc-pvdz-jkfit.gbs 
    atoms 2 entry CL         line   667 file /Users/joseantoniorodriguesromero/anaconda3/share/psi4/basis/cc-pvdz-jkfit.gbs 

   => Loading Basis Set <=

    Name: CC-PVDZ
    Role: ORBITAL
    Keyword: BASIS
    atoms 1 entry N          line   168 file /Users/joseantoniorodriguesromero/anaconda3/share/psi4/basis/cc-pvdz.gbs 
    atoms 2 entry CL         line   658 file /Users/joseantoniorodriguesromero/anaconda3/share/psi4/basis/cc-pvdz.gbs 

  Reading orbitals from file /tmp/quintet_NCl.default.68970.180.npy, no projection.

  ==> Integral Setup <==

  DFHelper Memory: AOs need 0.002 GiB; user supplied 0.329 GiB. 
  Using in-core AOs.

  ==> MemDFJK: Density-Fitted J/K Matrices <==

    J tasked:                   Yes
    K tasked:                   Yes
    wK tasked:                   No
    OpenMP threads:               1
    Memory [MiB]:               336
    Algorithm:                 Core
    Schwarz Cutoff:           1E-12
    Mask sparsity (%):       0.0000
    Fitting Condition:        1E-10

   => Auxiliary Basis Set <=

  Basis Set: (CC-PVDZ AUX)
    Blend: CC-PVDZ-JKFIT
    Number of shells: 60
    Number of basis functions: 182
    Number of Cartesian functions: 211
    Spherical Harmonics?: true
    Max angular momentum: 3

  Cached 100.0% of DFT collocation blocks in 0.037 [GiB].

  Minimum eigenvalue in the overlap matrix is 2.3218516181E-02.
  Reciprocal condition number of the overlap matrix is 8.2496337193E-03.
    Using symmetric orthogonalization.

  ==> Pre-Iterations <==

  SCF Guess: Orbitals guess was supplied from a previous computation.

   -------------------------------------------------------
    Irrep   Nso     Nmo     Nalpha   Nbeta   Ndocc  Nsocc
   -------------------------------------------------------
     A1        16      16       8       6       6       2
     A2         2       2       0       0       0       0
     B1         7       7       3       2       2       1
     B2         7       7       3       2       2       1
   -------------------------------------------------------
    Total      32      32      14      10      10       4
   -------------------------------------------------------

  ==> Iterations <==

                           Total Energy        Delta E     RMS |[F,P]|

   @DF-UKS iter   0:  -514.52313679739746   -5.14523e+02   5.53673e-02 
   @DF-UKS iter   1:  -514.54084838607957   -1.77116e-02   3.45840e-03 ADIIS/DIIS
   @DF-UKS iter   2:  -514.54176392771296   -9.15542e-04   3.52921e-03 ADIIS/DIIS/DAMP=1%
   @DF-UKS iter   3:  -514.54724405558215   -5.48013e-03   1.18252e-03 ADIIS/DIIS/DAMP=1%
   @DF-UKS iter   4:  -514.54417647536559    3.06758e-03   5.43498e-04 ADIIS/DIIS/DAMP=1%
   @DF-UKS iter   5:  -514.54429527443881   -1.18799e-04   5.66595e-05 DIIS/DAMP=1%
   @DF-UKS iter   6:  -514.54425143352694    4.38409e-05   1.52593e-05 DIIS/DAMP=1%
   @DF-UKS iter   7:  -514.54424519186330    6.24166e-06   3.27988e-06 DIIS/DAMP=1%
   @DF-UKS iter   8:  -514.54424671500919   -1.52315e-06   1.10263e-06 DIIS/DAMP=1%
   @DF-UKS iter   9:  -514.54424858121502   -1.86621e-06   2.39992e-07 DIIS/DAMP=1%
   @DF-UKS iter  10:  -514.54424858804839   -6.83337e-09   1.57486e-08 DIIS/DAMP=1%
   @DF-UKS iter  11:  -514.54424867921625   -9.11679e-08   1.63988e-09 DIIS/DAMP=1%
   @DF-UKS iter  12:  -514.54424867899183    2.24418e-10   1.26712e-10 DIIS/DAMP=1%
  Energy and wave function converged.


  ==> Post-Iterations <==

   Electrons on quadrature grid:
      Nalpha   =   13.9999998721 ; deviation = -1.279e-07
      Nbeta    =    9.9999998861 ; deviation = -1.139e-07
      Ntotal   =   23.9999997582 ; deviation = -2.418e-07 

   @Spin Contamination Metric:   6.482750686E-03
   @S^2 Expected:                6.000000000E+00
   @S^2 Observed:                6.006482751E+00
   @S   Expected:                2.000000000E+00
   @S   Observed:                2.000000000E+00

    Orbital Energies [Eh]
    ---------------------

    Alpha Occupied:                                                       

       1A1  -101.611559     2A1   -14.431084     3A1    -9.524024  
       4A1    -7.293559     1B1    -7.276756     1B2    -7.276756  
       5A1    -1.013114     6A1    -0.756226     7A1    -0.515203  
       2B1    -0.451902     2B2    -0.451902     3B1    -0.294970  
       3B2    -0.294970     8A1    -0.088349  

    Alpha Virtual:                                                        

       9A1     0.462527     4B2     0.514396     4B1     0.514396  
      10A1     0.550699     5B1     0.607274     5B2     0.607274  
      11A1     0.616707     1A2     0.674759    12A1     0.674759  
       6B2     0.754603     6B1     0.754603    13A1     1.017897  
      14A1     1.147664     2A2     1.654580    15A1     1.654581  
       7B2     1.817963     7B1     1.817963    16A1     2.318845  

    Beta Occupied:                                                        

       1A1  -101.601982     2A1   -14.370241     3A1    -9.514273  
       4A1    -7.273526     1B1    -7.266288     1B2    -7.266288  
       5A1    -0.914074     6A1    -0.606946     2B1    -0.368373  
       2B2    -0.368373  

    Beta Virtual:                                                         

       7A1    -0.286671     3B1    -0.097606     3B2    -0.097606  
       8A1     0.097878     9A1     0.528248     4B2     0.537863  
       4B1     0.537863    10A1     0.590559     5B1     0.698604  
       5B2     0.698604    11A1     0.715835     1A2     0.715835  
      12A1     0.717526     6B2     0.826313     6B1     0.826313  
      13A1     1.113681    14A1     1.221428     2A2     1.788882  
      15A1     1.788890     7B2     1.947753     7B1     1.947753  
      16A1     2.444432  

    Final Occupation by Irrep:
             A1    A2    B1    B2 
    DOCC [     6,    0,    2,    2 ]
    SOCC [     2,    0,    1,    1 ]
    NA   [     8,    0,    3,    3 ]
    NB   [     6,    0,    2,    2 ]

  @DF-UKS Final Energy:  -514.54424867899183

   => Energetics <=

    Nuclear Repulsion Energy =             39.4294436133058568
    One-Electron Energy =                -786.9512544503095341
    Two-Electron Energy =                 261.2986536023482245
    DFT Exchange-Correlation Energy =     -28.3210914443362931
    Empirical Dispersion Energy =           0.0000000000000000
    VV10 Nonlocal Energy =                  0.0000000000000000
    Total Energy =                       -514.5442486789918348

  UHF NO Occupations:
  HONO-2 :    3 B2 1.0000000
  HONO-1 :    8 A1 1.0000000
  HONO-0 :    3 B1 1.0000000
  LUNO+0 :    4 B1 0.0010821
  LUNO+1 :    4 B2 0.0010821
  LUNO+2 :    9 A1 0.0009426
  LUNO+3 :   10 A1 0.0001361


Computation Completed


Properties will be evaluated at   0.000000,   0.000000,   0.000000 [a0]

Properties computed using the SCF density matrix


 Multipole Moments:

 ------------------------------------------------------------------------------------
     Multipole            Electronic (a.u.)      Nuclear  (a.u.)        Total (a.u.)
 ------------------------------------------------------------------------------------

 L = 1.  Multiply by 2.5417464519 to convert [e a0] to [Debye]
 Dipole X            :          0.0000000            0.0000000            0.0000000
 Dipole Y            :          0.0000000            0.0000000            0.0000000
 Dipole Z            :         -0.1555668            0.4147396            0.2591728
 Magnitude           :                                                    0.2591728

 ------------------------------------------------------------------------------------

*** tstop() called on Joses-MacBook-Pro-2.local at Wed Jul 16 19:15:22 2025
Module time:
	user time   =       6.37 seconds =       0.11 minutes
	system time =       4.00 seconds =       0.07 minutes
	total time  =          1 seconds =       0.02 minutes
Total time:
	user time   =      28.41 seconds =       0.47 minutes
	system time =      23.95 seconds =       0.40 minutes
	total time  =          5 seconds =       0.08 minutes

*** tstart() called on Joses-MacBook-Pro-2.local
*** at Wed Jul 16 19:15:22 2025


         ------------------------------------------------------------
                                   SCF GRAD                          
                          Rob Parrish, Justin Turney,                
                       Andy Simmonett, and Alex Sokolov              
         ------------------------------------------------------------

  ==> Geometry <==

    Molecular point group: c2v
    Full point group: C_inf_v

    Geometry (in Angstrom), charge = 0, multiplicity = 5:

       Center              X                  Y                   Z               Mass       
    ------------   -----------------  -----------------  -----------------  -----------------
         N            0.000000000000     0.000000000000     1.140411631393    14.003074004430
         CL           0.000000000000     0.000000000000    -0.456671215814    34.968852682000

  Nuclear repulsion =   39.429443613305857

  ==> Basis Set <==

  Basis Set: CC-PVDZ
    Blend: CC-PVDZ
    Number of shells: 14
    Number of basis functions: 32
    Number of Cartesian functions: 34
    Spherical Harmonics?: true
    Max angular momentum: 2

  ==> DFJKGrad: Density-Fitted SCF Gradients <==

    Gradient:                    1
    J tasked:                  Yes
    K tasked:                  Yes
    wK tasked:                  No
    OpenMP threads:              1
    Integrals threads:           1
    Memory [MiB]:              375
    Schwarz Cutoff:          1E-12
    Fitting Condition:       1E-10

   => Auxiliary Basis Set <=

  Basis Set: (CC-PVDZ AUX)
    Blend: CC-PVDZ-JKFIT
    Number of shells: 60
    Number of basis functions: 182
    Number of Cartesian functions: 211
    Spherical Harmonics?: true
    Max angular momentum: 3

  ==> DFT Potential <==

   => LibXC <=

    Version 6.2.2
    S. Lehtola, C. Steigemann, M. J.T. Oliveira, and M. A.L. Marques.,  SoftwareX 7, 1–5 (2018) (10.1016/j.softx.2017.11.002)

   => Composite Functional: B3LYP <= 

    B3LYP Hyb-GGA Exchange-Correlation Functional

    P. J. Stephens, F. J. Devlin, C. F. Chabalowski, and M. J. Frisch.,  J. Phys. Chem. 98, 11623 (1994) (10.1021/j100096a001)

    Deriv               =              1
    GGA                 =           TRUE
    Meta                =          FALSE

    Exchange Hybrid     =           TRUE
    MP2 Hybrid          =          FALSE

   => Exchange Functionals <=

    0.0800   Slater exchange
    0.7200         Becke 88

   => Exact (HF) Exchange <=

    0.2000               HF 

   => Correlation Functionals <=

    0.1900   Vosko, Wilk & Nusair (VWN5_RPA)
    0.8100   Lee, Yang & Parr

   => LibXC Density Thresholds  <==

    XC_HYB_GGA_XC_B3LYP:  1.00E-15 

   => Molecular Quadrature <=

    Radial Scheme          =       TREUTLER
    Pruning Scheme         =           NONE
    Nuclear Scheme         =       TREUTLER

    Blocking Scheme        =         OCTREE
    BS radius alpha        =              1
    Pruning alpha          =              1
    Radial Points          =             75
    Spherical Points       =            302
    Total Points           =          41089
    Total Blocks           =            367
    Max Points             =            256
    Max Functions          =             32
    Weights Tolerance      =       1.00E-15


  -Total Gradient:
     Atom            X                  Y                   Z
    ------   -----------------  -----------------  -----------------
       1        0.000000000000     0.000000000000    -0.271056651114
       2        0.000000000000    -0.000000000000     0.271037032004


*** tstop() called on Joses-MacBook-Pro-2.local at Wed Jul 16 19:15:22 2025
Module time:
	user time   =       1.39 seconds =       0.02 minutes
	system time =       1.72 seconds =       0.03 minutes
	total time  =          0 seconds =       0.00 minutes
Total time:
	user time   =      29.81 seconds =       0.50 minutes
	system time =      25.67 seconds =       0.43 minutes
	total time  =          5 seconds =       0.08 minutes

    			-----------------------------------------

    			 OPTKING 3.0: for geometry optimizations 

    			     By R.A. King, Bethel University     

    			        with contributions from          

    			    A.V. Copan, J. Cayton, A. Heide      

    			-----------------------------------------

    
	                            ===> Fragment 1 <== 

	 Z (Atomic Numbers)          Masses                          Geom                  
	       7.000000            14.003074          0.00000000  0.00000000  2.15506565   
	      17.000000            34.968853          0.00000000  0.00000000 -0.86298353   

	 - Coordinate -           - BOHR/RAD -       - ANG/DEG -
	 R(1,2)           =         3.018049           1.597083


	        --- Internal Coordinate Step in ANG or DEG, aJ/ANG or AJ/DEG ---
	-------------------------------------------------------------------------------
	           Coordinate      Previous         Force          Change          New 
	           ----------      --------        ------          ------        ------
	               R(1,2)       1.59708        2.23308        0.27124       1.86832
	-------------------------------------------------------------------------------

	                                 ==> Convergence Check <==                                  
    
	Measures of convergence in internal coordinates in au.
    
	Criteria marked as inactive (o), active & met (*), and active & unmet ( ).

	----------------------------------------------------------------------------------------------
	   Step    Total Energy     Delta E     Max Force     RMS Force      Max Disp      RMS Disp   
	----------------------------------------------------------------------------------------------
	  Convergence Criteria     1.00e-06 *    3.00e-04 *             o    1.20e-03 *             o
	----------------------------------------------------------------------------------------------
	     4    -514.54424868   -8.10e-02      2.71e-01      2.71e-01 o    5.13e-01      5.13e-01 o  ~
	----------------------------------------------------------------------------------------------

Next Geometry in Ang 
	Fragment 1 (Ang)

	    N   0.0000000000   0.0000000000   1.2760302809
	   Cl   0.0000000000   0.0000000000  -0.5922898654


    Structure for next step:
    Molecular point group: c2v
    Full point group: C_inf_v

    Geometry (in Angstrom), charge = 0, multiplicity = 5:

    N            0.000000000000     0.000000000000     1.334091108501
    CL           0.000000000000     0.000000000000    -0.534229037792


Scratch directory: /tmp/
gradient() will perform analytic gradient computation.
   => Libint2 <=

    Primary   basis highest AM E, G, H:  6, 6, 3
    Auxiliary basis highest AM E, G, H:  7, 7, 4
    Onebody   basis highest AM E, G, H:  -, -, -
    Solid Harmonics ordering:            Gaussian

*** tstart() called on Joses-MacBook-Pro-2.local
*** at Wed Jul 16 19:15:22 2025

   => Loading Basis Set <=

    Name: CC-PVDZ
    Role: ORBITAL
    Keyword: BASIS
    atoms 1 entry N          line   168 file /Users/joseantoniorodriguesromero/anaconda3/share/psi4/basis/cc-pvdz.gbs 
    atoms 2 entry CL         line   658 file /Users/joseantoniorodriguesromero/anaconda3/share/psi4/basis/cc-pvdz.gbs 


         ---------------------------------------------------------
                                   SCF
               by Justin Turney, Rob Parrish, Andy Simmonett
                          and Daniel G. A. Smith
                              UKS Reference
                        1 Threads,    500 MiB Core
         ---------------------------------------------------------

  ==> Geometry <==

    Molecular point group: c2v
    Full point group: C_inf_v

    Geometry (in Angstrom), charge = 0, multiplicity = 5:

       Center              X                  Y                   Z               Mass       
    ------------   -----------------  -----------------  -----------------  -----------------
         N            0.000000000000     0.000000000000     1.334091108501    14.003074004430
         CL           0.000000000000     0.000000000000    -0.534229037792    34.968852682000

  Running in c2v symmetry.

  Rotational constants: A = ************  B =      0.48299  C =      0.48299 [cm^-1]
  Rotational constants: A = ************  B =  14479.61548  C =  14479.61548 [MHz]
  Nuclear repulsion =   33.705191369190203

  Charge       = 0
  Multiplicity = 5
  Electrons    = 24
  Nalpha       = 14
  Nbeta        = 10

  ==> Algorithm <==

  SCF Algorithm Type is DF.
  DIIS enabled.
  MOM disabled.
  Fractional occupation disabled.
  Guess Type is READ.
  Energy threshold   = 1.00e-08
  Density threshold  = 1.00e-08
  Integral threshold = 1.00e-12

  ==> Primary Basis <==

  Basis Set: CC-PVDZ
    Blend: CC-PVDZ
    Number of shells: 14
    Number of basis functions: 32
    Number of Cartesian functions: 34
[...]

	                                 ==> Convergence Check <==                                  
    
	Measures of convergence in internal coordinates in au.
    
	Criteria marked as inactive (o), active & met (*), and active & unmet ( ).

	----------------------------------------------------------------------------------------------
	   Step    Total Energy     Delta E     Max Force     RMS Force      Max Disp      RMS Disp   
	----------------------------------------------------------------------------------------------
	  Convergence Criteria     1.00e-06 *    3.00e-04 *             o    1.20e-03 *             o
	----------------------------------------------------------------------------------------------
	    19    -514.74757472   -2.20e-05      3.82e-05 *    3.82e-05 o    6.05e-01      6.05e-01 o  ~
	----------------------------------------------------------------------------------------------

Next Geometry in Ang 
	Fragment 1 (Ang)

	    N   0.0000000000   0.0000000000   3.3575907262
	   Cl   0.0000000000   0.0000000000  -1.4404720970


    Structure for next step:
    Molecular point group: c2v
    Full point group: C_inf_v

    Geometry (in Angstrom), charge = 0, multiplicity = 5:

    N            0.000000000000     0.000000000000     3.426100694356
    CL           0.000000000000     0.000000000000    -1.371962128869


Scratch directory: /tmp/
gradient() will perform analytic gradient computation.
   => Libint2 <=

    Primary   basis highest AM E, G, H:  6, 6, 3
    Auxiliary basis highest AM E, G, H:  7, 7, 4
    Onebody   basis highest AM E, G, H:  -, -, -
    Solid Harmonics ordering:            Gaussian

*** tstart() called on Joses-MacBook-Pro-2.local
*** at Wed Jul 16 19:15:40 2025

   => Loading Basis Set <=

    Name: CC-PVDZ
    Role: ORBITAL
    Keyword: BASIS
    atoms 1 entry N          line   168 file /Users/joseantoniorodriguesromero/anaconda3/share/psi4/basis/cc-pvdz.gbs 
    atoms 2 entry CL         line   658 file /Users/joseantoniorodriguesromero/anaconda3/share/psi4/basis/cc-pvdz.gbs 


         ---------------------------------------------------------
                                   SCF
               by Justin Turney, Rob Parrish, Andy Simmonett
                          and Daniel G. A. Smith
                              UKS Reference
                        1 Threads,    500 MiB Core
         ---------------------------------------------------------

  ==> Geometry <==

    Molecular point group: c2v
    Full point group: C_inf_v

    Geometry (in Angstrom), charge = 0, multiplicity = 5:

       Center              X                  Y                   Z               Mass       
    ------------   -----------------  -----------------  -----------------  -----------------
         N            0.000000000000     0.000000000000     3.426100694356    14.003074004430
         CL           0.000000000000     0.000000000000    -1.371962128869    34.968852682000

  Running in c2v symmetry.

  Rotational constants: A = ************  B =      0.07323  C =      0.07323 [cm^-1]
  Rotational constants: A = ************  B =   2195.47129  C =   2195.47129 [MHz]
  Nuclear repulsion =   13.124481773126842

  Charge       = 0
  Multiplicity = 5
  Electrons    = 24
  Nalpha       = 14
  Nbeta        = 10

  ==> Algorithm <==

  SCF Algorithm Type is DF.
  DIIS enabled.
  MOM disabled.
  Fractional occupation disabled.
  Guess Type is READ.
  Energy threshold   = 1.00e-08
  Density threshold  = 1.00e-08
  Integral threshold = 1.00e-12

  ==> Primary Basis <==

  Basis Set: CC-PVDZ
    Blend: CC-PVDZ
    Number of shells: 14
    Number of basis functions: 32
    Number of Cartesian functions: 34
    Spherical Harmonics?: true
    Max angular momentum: 2

  ==> DFT Potential <==

   => LibXC <=

    Version 6.2.2
    S. Lehtola, C. Steigemann, M. J.T. Oliveira, and M. A.L. Marques.,  SoftwareX 7, 1–5 (2018) (10.1016/j.softx.2017.11.002)

   => Composite Functional: B3LYP <= 

    B3LYP Hyb-GGA Exchange-Correlation Functional

    P. J. Stephens, F. J. Devlin, C. F. Chabalowski, and M. J. Frisch.,  J. Phys. Chem. 98, 11623 (1994) (10.1021/j100096a001)

    Deriv               =              1
    GGA                 =           TRUE
    Meta                =          FALSE

    Exchange Hybrid     =           TRUE
    MP2 Hybrid          =          FALSE

   => Exchange Functionals <=

    0.0800   Slater exchange
    0.7200         Becke 88

   => Exact (HF) Exchange <=

    0.2000               HF 

   => Correlation Functionals <=

    0.1900   Vosko, Wilk & Nusair (VWN5_RPA)
    0.8100   Lee, Yang & Parr

   => LibXC Density Thresholds  <==

    XC_HYB_GGA_XC_B3LYP:  1.00E-15 

   => Molecular Quadrature <=

    Radial Scheme          =       TREUTLER
    Pruning Scheme         =           NONE
    Nuclear Scheme         =       TREUTLER

    Blocking Scheme        =         OCTREE
    BS radius alpha        =              1
    Pruning alpha          =              1
    Radial Points          =             75
    Spherical Points       =            302
    Total Points           =          41337
    Total Blocks           =            428
    Max Points             =            251
    Max Functions          =             32
    Weights Tolerance      =       1.00E-15

   => Loading Basis Set <=

    Name: (CC-PVDZ AUX)
    Role: JKFIT
    Keyword: DF_BASIS_SCF
    atoms 1 entry N          line   171 file /Users/joseantoniorodriguesromero/anaconda3/share/psi4/basis/cc-pvdz-jkfit.gbs 
    atoms 2 entry CL         line   667 file /Users/joseantoniorodriguesromero/anaconda3/share/psi4/basis/cc-pvdz-jkfit.gbs 

   => Loading Basis Set <=

    Name: CC-PVDZ
    Role: ORBITAL
    Keyword: BASIS
    atoms 1 entry N          line   168 file /Users/joseantoniorodriguesromero/anaconda3/share/psi4/basis/cc-pvdz.gbs 
    atoms 2 entry CL         line   658 file /Users/joseantoniorodriguesromero/anaconda3/share/psi4/basis/cc-pvdz.gbs 

  Reading orbitals from file /tmp/quintet_NCl.default.68970.180.npy, no projection.

  ==> Integral Setup <==

  DFHelper Memory: AOs need 0.002 GiB; user supplied 0.340 GiB. 
  Using in-core AOs.

  ==> MemDFJK: Density-Fitted J/K Matrices <==

    J tasked:                   Yes
    K tasked:                   Yes
    wK tasked:                   No
    OpenMP threads:               1
    Memory [MiB]:               347
    Algorithm:                 Core
    Schwarz Cutoff:           1E-12
    Mask sparsity (%):      12.1094
    Fitting Condition:        1E-10

   => Auxiliary Basis Set <=

  Basis Set: (CC-PVDZ AUX)
    Blend: CC-PVDZ-JKFIT
    Number of shells: 60
    Number of basis functions: 182
    Number of Cartesian functions: 211
    Spherical Harmonics?: true
    Max angular momentum: 3

  Cached 100.0% of DFT collocation blocks in 0.026 [GiB].

  Minimum eigenvalue in the overlap matrix is 1.1173340498E-01.
  Reciprocal condition number of the overlap matrix is 6.5258198058E-02.
    Using symmetric orthogonalization.

  ==> Pre-Iterations <==

  SCF Guess: Orbitals guess was supplied from a previous computation.

   -------------------------------------------------------
    Irrep   Nso     Nmo     Nalpha   Nbeta   Ndocc  Nsocc
   -------------------------------------------------------
     A1        16      16       8       6       6       2
     A2         2       2       0       0       0       0
     B1         7       7       3       2       2       1
     B2         7       7       3       2       2       1
   -------------------------------------------------------
    Total      32      32      14      10      10       4
   -------------------------------------------------------

  ==> Iterations <==

                           Total Energy        Delta E     RMS |[F,P]|

   @DF-UKS iter   0:  -514.74754800580172   -5.14748e+02   1.47661e-04 
   @DF-UKS iter   1:  -514.74759531543464   -4.73096e-05   8.76727e-06 DIIS
   @DF-UKS iter   2:  -514.74759533224710   -1.68125e-08   2.37848e-06 DIIS/DAMP=1%
   @DF-UKS iter   3:  -514.74759553060267   -1.98356e-07   6.07287e-07 DIIS/DAMP=1%
   @DF-UKS iter   4:  -514.74759527685637    2.53746e-07   1.43645e-07 DIIS/DAMP=1%
   @DF-UKS iter   5:  -514.74759536859756   -9.17412e-08   4.95131e-08 DIIS/DAMP=1%
   @DF-UKS iter   6:  -514.74759531783184    5.07657e-08   3.91668e-09 DIIS/DAMP=1%
   @DF-UKS iter   7:  -514.74759533626150   -1.84297e-08   1.25400e-09 DIIS/DAMP=1%
   @DF-UKS iter   8:  -514.74759533295082    3.31067e-09   1.53722e-10 DIIS/DAMP=1%
  Energy and wave function converged.


  ==> Post-Iterations <==

   Electrons on quadrature grid:
      Nalpha   =   13.9999971368 ; deviation = -2.863e-06
      Nbeta    =   10.0000006419 ; deviation = 6.419e-07
      Ntotal   =   23.9999977787 ; deviation = -2.221e-06 

   @Spin Contamination Metric:   3.771585440E-03
   @S^2 Expected:                6.000000000E+00
   @S^2 Observed:                6.003771585E+00
   @S   Expected:                2.000000000E+00
   @S   Observed:                2.000000000E+00

    Orbital Energies [Eh]
    ---------------------

    Alpha Occupied:                                                       

       1A1  -101.590993     2A1   -14.436728     3A1    -9.505073  
       4A1    -7.278894     1B2    -7.255265     1B1    -7.255265  
       5A1    -0.842433     6A1    -0.803846     7A1    -0.404544  
       2B2    -0.349084     2B1    -0.349084     8A1    -0.346522  
       3B1    -0.346335     3B2    -0.346335  

    Alpha Virtual:                                                        

       9A1     0.496075     4B1     0.530252     4B2     0.530252  
      10A1     0.576947    11A1     0.654585     5B2     0.655950  
       5B1     0.655950    12A1     0.656764     6B2     0.667751  
       6B1     0.667751     1A2     0.711880    13A1     0.711881  
      14A1     0.770798    15A1     1.676987     7B2     1.676998  
       7B1     1.676998     2A2     1.677125    16A1     1.677188  

    Beta Occupied:                                                        

       1A1  -101.584278     2A1   -14.380484     3A1    -9.498440  
       4A1    -7.256981     1B2    -7.251288     1B1    -7.251288  
       5A1    -0.789079     6A1    -0.606814     2B2    -0.333157  
       2B1    -0.333157  

    Beta Virtual:                                                         

       7A1    -0.242650     8A1    -0.092439     3B2    -0.092153  
       3B1    -0.092153     4B1     0.537577     4B2     0.537577  
       9A1     0.542380    10A1     0.597790     1A2     0.720178  
      11A1     0.720178     5B2     0.725426     5B1     0.725426  
      12A1     0.734509     6B2     0.763874     6B1     0.763874  
      13A1     0.764238    14A1     0.870418    15A1     1.824591  
       7B2     1.824611     7B1     1.824611     2A2     1.824751  
      16A1     1.824805  

    Final Occupation by Irrep:
             A1    A2    B1    B2 
    DOCC [     6,    0,    2,    2 ]
    SOCC [     2,    0,    1,    1 ]
    NA   [     8,    0,    3,    3 ]
    NB   [     6,    0,    2,    2 ]

  @DF-UKS Final Energy:  -514.74759533295082

   => Energetics <=

    Nuclear Repulsion Energy =             13.1244817731268419
    One-Electron Energy =                -735.2590298014283690
    Two-Electron Energy =                 235.5888839960141468
    DFT Exchange-Correlation Energy =     -28.2019313006634675
    Empirical Dispersion Energy =           0.0000000000000000
    VV10 Nonlocal Energy =                  0.0000000000000000
    Total Energy =                       -514.7475953329508229

  UHF NO Occupations:
  HONO-2 :    3 B1 1.0000000
  HONO-1 :    7 A1 1.0000000
  HONO-0 :    8 A1 1.0000000
  LUNO+0 :    9 A1 0.0009740
  LUNO+1 :   10 A1 0.0008608
  LUNO+2 :    4 B1 0.0000259
  LUNO+3 :    4 B2 0.0000259


Computation Completed


Properties will be evaluated at   0.000000,   0.000000,   0.000000 [a0]

Properties computed using the SCF density matrix


 Multipole Moments:

 ------------------------------------------------------------------------------------
     Multipole            Electronic (a.u.)      Nuclear  (a.u.)        Total (a.u.)
 ------------------------------------------------------------------------------------

 L = 1.  Multiply by 2.5417464519 to convert [e a0] to [Debye]
 Dipole X            :          0.0000000            0.0000000            0.0000000
 Dipole Y            :          0.0000000            0.0000000            0.0000000
 Dipole Z            :         -1.2431918            1.2459884            0.0027966
 Magnitude           :                                                    0.0027966

 ------------------------------------------------------------------------------------

*** tstop() called on Joses-MacBook-Pro-2.local at Wed Jul 16 19:15:41 2025
Module time:
	user time   =       4.72 seconds =       0.08 minutes
	system time =       2.59 seconds =       0.04 minutes
	total time  =          1 seconds =       0.02 minutes
Total time:
	user time   =     129.22 seconds =       2.15 minutes
	system time =     110.54 seconds =       1.84 minutes
	total time  =         24 seconds =       0.40 minutes

*** tstart() called on Joses-MacBook-Pro-2.local
*** at Wed Jul 16 19:15:41 2025


         ------------------------------------------------------------
                                   SCF GRAD                          
                          Rob Parrish, Justin Turney,                
                       Andy Simmonett, and Alex Sokolov              
         ------------------------------------------------------------

  ==> Geometry <==

    Molecular point group: c2v
    Full point group: C_inf_v

    Geometry (in Angstrom), charge = 0, multiplicity = 5:

       Center              X                  Y                   Z               Mass       
    ------------   -----------------  -----------------  -----------------  -----------------
         N            0.000000000000     0.000000000000     3.426100694356    14.003074004430
         CL           0.000000000000     0.000000000000    -1.371962128869    34.968852682000

  Nuclear repulsion =   13.124481773126842

  ==> Basis Set <==

  Basis Set: CC-PVDZ
    Blend: CC-PVDZ
    Number of shells: 14
    Number of basis functions: 32
    Number of Cartesian functions: 34
    Spherical Harmonics?: true
    Max angular momentum: 2

  ==> DFJKGrad: Density-Fitted SCF Gradients <==

    Gradient:                    1
    J tasked:                  Yes
    K tasked:                  Yes
    wK tasked:                  No
    OpenMP threads:              1
    Integrals threads:           1
    Memory [MiB]:              375
    Schwarz Cutoff:          1E-12
    Fitting Condition:       1E-10

   => Auxiliary Basis Set <=

  Basis Set: (CC-PVDZ AUX)
    Blend: CC-PVDZ-JKFIT
    Number of shells: 60
    Number of basis functions: 182
    Number of Cartesian functions: 211
    Spherical Harmonics?: true
    Max angular momentum: 3

  ==> DFT Potential <==

   => LibXC <=

    Version 6.2.2
    S. Lehtola, C. Steigemann, M. J.T. Oliveira, and M. A.L. Marques.,  SoftwareX 7, 1–5 (2018) (10.1016/j.softx.2017.11.002)

   => Composite Functional: B3LYP <= 

    B3LYP Hyb-GGA Exchange-Correlation Functional

    P. J. Stephens, F. J. Devlin, C. F. Chabalowski, and M. J. Frisch.,  J. Phys. Chem. 98, 11623 (1994) (10.1021/j100096a001)

    Deriv               =              1
    GGA                 =           TRUE
    Meta                =          FALSE

    Exchange Hybrid     =           TRUE
    MP2 Hybrid          =          FALSE

   => Exchange Functionals <=

    0.0800   Slater exchange
    0.7200         Becke 88

   => Exact (HF) Exchange <=

    0.2000               HF 

   => Correlation Functionals <=

    0.1900   Vosko, Wilk & Nusair (VWN5_RPA)
    0.8100   Lee, Yang & Parr

   => LibXC Density Thresholds  <==

    XC_HYB_GGA_XC_B3LYP:  1.00E-15 

   => Molecular Quadrature <=

    Radial Scheme          =       TREUTLER
    Pruning Scheme         =           NONE
    Nuclear Scheme         =       TREUTLER

    Blocking Scheme        =         OCTREE
    BS radius alpha        =              1
    Pruning alpha          =              1
    Radial Points          =             75
    Spherical Points       =            302
    Total Points           =          41337
    Total Blocks           =            428
    Max Points             =            251
    Max Functions          =             32
    Weights Tolerance      =       1.00E-15


  -Total Gradient:
     Atom            X                  Y                   Z
    ------   -----------------  -----------------  -----------------
       1        0.000000000000     0.000000000000    -0.000020841938
       2        0.000000000000     0.000000000000     0.000025588170


*** tstop() called on Joses-MacBook-Pro-2.local at Wed Jul 16 19:15:41 2025
Module time:
	user time   =       1.46 seconds =       0.02 minutes
	system time =       1.26 seconds =       0.02 minutes
	total time  =          0 seconds =       0.00 minutes
Total time:
	user time   =     130.68 seconds =       2.18 minutes
	system time =     111.80 seconds =       1.86 minutes
	total time  =         24 seconds =       0.40 minutes

    			-----------------------------------------

    			 OPTKING 3.0: for geometry optimizations 

    			     By R.A. King, Bethel University     

    			        with contributions from          

    			    A.V. Copan, J. Cayton, A. Heide      

    			-----------------------------------------

    
	                            ===> Fragment 1 <== 

	 Z (Atomic Numbers)          Masses                          Geom                  
	       7.000000            14.003074          0.00000000  0.00000000  6.47439199   
	      17.000000            34.968853          0.00000000  0.00000000 -2.59263268   

	 - Coordinate -           - BOHR/RAD -       - ANG/DEG -
	 R(1,2)           =         9.067025           4.798063


	        --- Internal Coordinate Step in ANG or DEG, aJ/ANG or AJ/DEG ---
	-------------------------------------------------------------------------------
	           Coordinate      Previous         Force          Change          New 
	           ----------      --------        ------          ------        ------
	               R(1,2)       4.79806        0.00019        0.00008       4.79814
	-------------------------------------------------------------------------------

	                                 ==> Convergence Check <==                                  
    
	Measures of convergence in internal coordinates in au.
    
	Criteria marked as inactive (o), active & met (*), and active & unmet ( ).

	----------------------------------------------------------------------------------------------
	   Step    Total Energy     Delta E     Max Force     RMS Force      Max Disp      RMS Disp   
	----------------------------------------------------------------------------------------------
	  Convergence Criteria     1.00e-06 *    3.00e-04 *             o    1.20e-03 *             o
	----------------------------------------------------------------------------------------------
	    20    -514.74759533   -2.06e-05      2.32e-05 *    2.32e-05 o    1.52e-04 *    1.52e-04 o  ~
	----------------------------------------------------------------------------------------------

Next Geometry in Ang 
	Fragment 1 (Ang)

	    N   0.0000000000   0.0000000000   3.4261407964
	   Cl   0.0000000000   0.0000000000  -1.3720022310


    Final optimized geometry and variables:
    Molecular point group: c2v
    Full point group: C_inf_v

    Geometry (in Angstrom), charge = 0, multiplicity = 5:

    N            0.000000000000     0.000000000000     3.426100694356
    CL           0.000000000000     0.000000000000    -1.371962128869


    Psi4 stopped on: Wednesday, 16 July 2025 07:15PM
    Psi4 wall time for execution: 0:00:25.31

*** Psi4 exiting successfully. Buy a developer a beer!
