
    -----------------------------------------------------------------------
          Psi4: An Open-Source Ab Initio Electronic Structure Package
                               Psi4 1.9.1 release

                         Git: Rev {} zzzzzzz 


    D. G. A. Smith, L. A. Burns, A. C. Simmonett, R. M. Parrish,
    M. C. Schieber, R. Galvelis, P. Kraus, H. Kruse, R. Di Remigio,
    A. Alenaizan, A. M. James, S. Lehtola, J. P. Misiewicz, M. Scheurer,
    R. A. Shaw, J. B. Schriber, Y. Xie, Z. L. Glick, D. A. Sirianni,
    J. S. O'Brien, J. M. Waldrop, A. Kumar, E. G. Hohenstein,
    B. P. Pritchard, B. R. Brooks, H. F. Schaefer III, A. Yu. Sokolov,
    K. Patkowski, A. E. DePrince III, U. Bozkaya, R. A. King,
    F. A. Evangelista, J. M. Turney, T. D. Crawford, C. D. Sherrill,
    J. Chem. Phys. 152(18) 184108 (2020). https://doi.org/10.1063/5.0006002

                            Additional Code Authors
    E. T. Seidl, C. L. Janssen, E. F. Valeev, M. L. Leininger,
    J. F. Gonthier, R. M. Richard, H. R. McAlexander, M. Saitow, X. Wang,
    P. Verma, M. H. Lechner, A. Jiang, S. Behnle, A. G. Heide,
    M. F. Herbst, and D. L. Poole

             Previous Authors, Complete List of Code Contributors,
                       and Citations for Specific Modules
    https://github.com/psi4/psi4/blob/master/codemeta.json
    https://github.com/psi4/psi4/graphs/contributors
    http://psicode.org/psi4manual/master/introduction.html#citing-psifour

    -----------------------------------------------------------------------


    Psi4 started on: Wednesday, 16 July 2025 08:08PM

    Process ID: 69478
    Host:       Joses-MacBook-Pro-2.local
    PSIDATADIR: /Users/joseantoniorodriguesromero/anaconda3/share/psi4
    Memory:     500.0 MiB
    Threads:    1
    
  ==> Input File <==

--------------------------------------------------------------------------
molecule { 
0 6
Al   0.00000        0.60000        0.00000
S   0.00000       -0.60000        0.00000
}

set { 
basis              cc-pvdz
reference          uks
maxiter            500
geom_maxiter       500
DAMPING_PERCENTAGE 1
guess              SAP
}

optimize('b3lyp')
--------------------------------------------------------------------------

Scratch directory: /tmp/
gradient() will perform analytic gradient computation.
   => Libint2 <=

    Primary   basis highest AM E, G, H:  6, 6, 3
    Auxiliary basis highest AM E, G, H:  7, 7, 4
    Onebody   basis highest AM E, G, H:  -, -, -
    Solid Harmonics ordering:            Gaussian

*** tstart() called on Joses-MacBook-Pro-2.local
*** at Wed Jul 16 20:08:54 2025

   => Loading Basis Set <=

    Name: CC-PVDZ
    Role: ORBITAL
    Keyword: BASIS
    atoms 1 entry AL         line   418 file /Users/joseantoniorodriguesromero/anaconda3/share/psi4/basis/cc-pvdz.gbs 
    atoms 2 entry S          line   598 file /Users/joseantoniorodriguesromero/anaconda3/share/psi4/basis/cc-pvdz.gbs 


         ---------------------------------------------------------
                                   SCF
               by Justin Turney, Rob Parrish, Andy Simmonett
                          and Daniel G. A. Smith
                              UKS Reference
                        1 Threads,    500 MiB Core
         ---------------------------------------------------------

  ==> Geometry <==

    Molecular point group: c2v
    Full point group: C_inf_v

    Geometry (in Angstrom), charge = 0, multiplicity = 6:

       Center              X                  Y                   Z               Mass       
    ------------   -----------------  -----------------  -----------------  -----------------
         AL           0.000000000000     0.000000000000     0.650791115280    26.981538530000
         S            0.000000000000     0.000000000000    -0.549208884720    31.972071174400

  Running in c2v symmetry.

  Rotational constants: A = ************  B =      0.80003  C =      0.80003 [cm^-1]
  Rotational constants: A = ************  B =  23984.33204  C =  23984.33204 [MHz]
  Nuclear repulsion =   91.724049849466681

  Charge       = 0
  Multiplicity = 6
  Electrons    = 29
  Nalpha       = 17
  Nbeta        = 12

  ==> Algorithm <==

  SCF Algorithm Type is DF.
  DIIS enabled.
  MOM disabled.
  Fractional occupation disabled.
  Guess Type is SAP.
  Energy threshold   = 1.00e-08
  Density threshold  = 1.00e-08
  Integral threshold = 1.00e-12

  ==> Primary Basis <==

  Basis Set: CC-PVDZ
    Blend: CC-PVDZ
    Number of shells: 16
    Number of basis functions: 36
    Number of Cartesian functions: 38
    Spherical Harmonics?: true
    Max angular momentum: 2

  ==> DFT Potential <==

   => LibXC <=

    Version 6.2.2
    S. Lehtola, C. Steigemann, M. J.T. Oliveira, and M. A.L. Marques.,  SoftwareX 7, 1–5 (2018) (10.1016/j.softx.2017.11.002)

   => Composite Functional: B3LYP <= 

    B3LYP Hyb-GGA Exchange-Correlation Functional

    P. J. Stephens, F. J. Devlin, C. F. Chabalowski, and M. J. Frisch.,  J. Phys. Chem. 98, 11623 (1994) (10.1021/j100096a001)

    Deriv               =              1
    GGA                 =           TRUE
    Meta                =          FALSE

    Exchange Hybrid     =           TRUE
    MP2 Hybrid          =          FALSE

   => Exchange Functionals <=

    0.0800   Slater exchange
    0.7200         Becke 88

   => Exact (HF) Exchange <=

    0.2000               HF 

   => Correlation Functionals <=

    0.1900   Vosko, Wilk & Nusair (VWN5_RPA)
    0.8100   Lee, Yang & Parr

   => LibXC Density Thresholds  <==

    XC_HYB_GGA_XC_B3LYP:  1.00E-15 

   => Molecular Quadrature <=

    Radial Scheme          =       TREUTLER
    Pruning Scheme         =           NONE
    Nuclear Scheme         =       TREUTLER

    Blocking Scheme        =         OCTREE
    BS radius alpha        =              1
    Pruning alpha          =              1
    Radial Points          =             75
    Spherical Points       =            302
    Total Points           =          42559
    Total Blocks           =            402
    Max Points             =            253
    Max Functions          =             36
    Weights Tolerance      =       1.00E-15

   => Loading Basis Set <=

    Name: (CC-PVDZ AUX)
    Role: JKFIT
    Keyword: DF_BASIS_SCF
    atoms 1 entry AL         line   371 file /Users/joseantoniorodriguesromero/anaconda3/share/psi4/basis/cc-pvdz-jkfit.gbs 
    atoms 2 entry S          line   593 file /Users/joseantoniorodriguesromero/anaconda3/share/psi4/basis/cc-pvdz-jkfit.gbs 

  ==> Integral Setup <==

  DFHelper Memory: AOs need 0.003 GiB; user supplied 0.323 GiB. 
  Using in-core AOs.

  ==> MemDFJK: Density-Fitted J/K Matrices <==

    J tasked:                   Yes
    K tasked:                   Yes
    wK tasked:                   No
    OpenMP threads:               1
    Memory [MiB]:               330
    Algorithm:                 Core
    Schwarz Cutoff:           1E-12
    Mask sparsity (%):       0.0000
    Fitting Condition:        1E-10

   => Auxiliary Basis Set <=

  Basis Set: (CC-PVDZ AUX)
    Blend: CC-PVDZ-JKFIT
    Number of shells: 72
    Number of basis functions: 224
    Number of Cartesian functions: 260
    Spherical Harmonics?: true
    Max angular momentum: 3

  Cached 100.0% of DFT collocation blocks in 0.043 [GiB].

  Minimum eigenvalue in the overlap matrix is 3.9512212618E-03.
  Reciprocal condition number of the overlap matrix is 1.2526511433E-03.
    Using symmetric orthogonalization.

  ==> Pre-Iterations <==

  SCF Guess: Superposition of Atomic Potentials (doi:10.1021/acs.jctc.8b01089).

  ==> SAP guess <==

   => Molecular Quadrature <=

    Radial Scheme          =       TREUTLER
    Pruning Scheme         =           NONE
    Nuclear Scheme         =       TREUTLER

    Blocking Scheme        =         OCTREE
    BS radius alpha        =              1
    Pruning alpha          =              1
    Radial Points          =             75
    Spherical Points       =            302
    Total Points           =          42559
    Total Blocks           =            402
    Max Points             =            253
    Max Functions          =             36
    Weights Tolerance      =       1.00E-15

   -------------------------------------------------------
    Irrep   Nso     Nmo     Nalpha   Nbeta   Ndocc  Nsocc
   -------------------------------------------------------
     A1        18      18       9       7       7       2
     A2         2       2       0       0       0       0
     B1         8       8       4       3       3       1
     B2         8       8       4       2       2       2
   -------------------------------------------------------
    Total      36      36      17      12      12       5
   -------------------------------------------------------

  ==> Iterations <==

                           Total Energy        Delta E     RMS |[F,P]|

   @DF-UKS iter   1:  -638.81050251846148   -6.38811e+02   1.97438e-02 DIIS/ADIIS
   @DF-UKS iter   2:  -638.85789410870075   -4.73916e-02   1.67941e-02 DIIS/ADIIS/DAMP=1%
   @DF-UKS iter   3:  -638.92304211085616   -6.51480e-02   8.56305e-04 DIIS/ADIIS/DAMP=1%
   @DF-UKS iter   4:  -638.95117403438826   -2.81319e-02   4.07506e-04 DIIS/ADIIS/DAMP=1%
   @DF-UKS iter   5:  -638.95126290663416   -8.88722e-05   6.31133e-05 DIIS/DAMP=1%
   @DF-UKS iter   6:  -638.95089349447699    3.69412e-04   6.91315e-06 DIIS/DAMP=1%
   @DF-UKS iter   7:  -638.95101984799965   -1.26354e-04   1.33229e-06 DIIS/DAMP=1%
   @DF-UKS iter   8:  -638.95101028671684    9.56128e-06   2.58651e-07 DIIS/DAMP=1%
   @DF-UKS iter   9:  -638.95101056836165   -2.81645e-07   2.44733e-08 DIIS/DAMP=1%
   @DF-UKS iter  10:  -638.95101050879248    5.95692e-08   3.33806e-09 DIIS/DAMP=1%
   @DF-UKS iter  11:  -638.95101053885526   -3.00628e-08   4.66043e-10 DIIS/DAMP=1%
   @DF-UKS iter  12:  -638.95101053461246    4.24279e-09   6.19333e-11 DIIS/DAMP=1%
  Energy and wave function converged.


  ==> Post-Iterations <==

   Electrons on quadrature grid:
      Nalpha   =   16.9999982263 ; deviation = -1.774e-06
      Nbeta    =   11.9999981582 ; deviation = -1.842e-06
      Ntotal   =   28.9999963845 ; deviation = -3.616e-06 

   @Spin Contamination Metric:   3.180656220E-03
   @S^2 Expected:                8.750000000E+00
   @S^2 Observed:                8.753180656E+00
   @S   Expected:                2.500000000E+00
   @S   Observed:                2.500000000E+00

    Orbital Energies [Eh]
    ---------------------

    Alpha Occupied:                                                       

       1A1   -89.105554     2A1   -56.200431     3A1    -8.226189  
       4A1    -6.213610     1B2    -6.176415     1B1    -6.154472  
       5A1    -4.390228     6A1    -2.970180     2B2    -2.898113  
       2B1    -2.890653     7A1    -0.931735     3B2    -0.572567  
       3B1    -0.519193     8A1    -0.498158     9A1    -0.230551  
       4B2    -0.108953     4B1    -0.092175  

    Alpha Virtual:                                                        

      10A1     0.016019     5B2     0.075732     5B1     0.095948  
       1A2     0.118352    11A1     0.118449    12A1     0.167964  
      13A1     0.255471     6B2     0.259625     6B1     0.271344  
      14A1     0.314120     7B2     0.442943     7B1     0.469992  
      15A1     0.525056     2A2     0.525755    16A1     0.566541  
       8B2     0.773583     8B1     0.797642    17A1     0.958786  
      18A1     1.462928  

    Beta Occupied:                                                        

       1A1   -89.090312     2A1   -56.187174     3A1    -8.210443  
       4A1    -6.185952     1B2    -6.147869     1B1    -6.142864  
       5A1    -4.372114     6A1    -2.947622     2B2    -2.876498  
       2B1    -2.875000     7A1    -0.822440     3B1    -0.473797  

    Beta Virtual:                                                         

       3B2    -0.386396     8A1    -0.307215     9A1    -0.070203  
       4B1     0.029398     4B2     0.031760    10A1     0.042313  
       5B1     0.138166     5B2     0.139862     1A2     0.193190  
      11A1     0.197049    12A1     0.223597    13A1     0.313611  
       6B1     0.351660     6B2     0.352406    14A1     0.386506  
       7B1     0.512818     7B2     0.513263     2A2     0.609074  
      15A1     0.613598    16A1     0.626554     8B1     0.863211  
       8B2     0.864037    17A1     1.028449    18A1     1.503702  

    Final Occupation by Irrep:
             A1    A2    B1    B2 
    DOCC [     7,    0,    3,    2 ]
    SOCC [     2,    0,    1,    2 ]
    NA   [     9,    0,    4,    4 ]
    NB   [     7,    0,    3,    2 ]

  @DF-UKS Final Energy:  -638.95101053461246

   => Energetics <=

    Nuclear Repulsion Energy =             91.7240498494666809
    One-Electron Energy =               -1061.1774582580906099
    Two-Electron Energy =                 366.5664203677201272
    DFT Exchange-Correlation Energy =     -36.0640224937086060
    Empirical Dispersion Energy =           0.0000000000000000
    VV10 Nonlocal Energy =                  0.0000000000000000
    Total Energy =                       -638.9510105346124647

  UHF NO Occupations:
  HONO-2 :    3 B2 1.0000000
  HONO-1 :    9 A1 1.0000000
  HONO-0 :    4 B2 1.0000000
  LUNO+0 :   10 A1 0.0011115
  LUNO+1 :    5 B1 0.0004779
  LUNO+2 :   11 A1 0.0000005
  LUNO+3 :    5 B2 0.0000005


Computation Completed


Properties will be evaluated at   0.000000,   0.000000,   0.000000 [a0]

Properties computed using the SCF density matrix


 Multipole Moments:

 ------------------------------------------------------------------------------------
     Multipole            Electronic (a.u.)      Nuclear  (a.u.)        Total (a.u.)
 ------------------------------------------------------------------------------------

 L = 1.  Multiply by 2.5417464519 to convert [e a0] to [Debye]
 Dipole X            :          0.0000000            0.0000000            0.0000000
 Dipole Y            :          0.0000000            0.0000000            0.0000000
 Dipole Z            :         -1.5618901           -0.6180494           -2.1799395
 Magnitude           :                                                    2.1799395

 ------------------------------------------------------------------------------------

*** tstop() called on Joses-MacBook-Pro-2.local at Wed Jul 16 20:08:56 2025
Module time:
	user time   =      17.06 seconds =       0.28 minutes
	system time =       1.47 seconds =       0.02 minutes
	total time  =          2 seconds =       0.03 minutes
Total time:
	user time   =      17.06 seconds =       0.28 minutes
	system time =       1.47 seconds =       0.02 minutes
	total time  =          2 seconds =       0.03 minutes

*** tstart() called on Joses-MacBook-Pro-2.local
*** at Wed Jul 16 20:08:56 2025


         ------------------------------------------------------------
                                   SCF GRAD                          
                          Rob Parrish, Justin Turney,                
                       Andy Simmonett, and Alex Sokolov              
         ------------------------------------------------------------

  ==> Geometry <==

    Molecular point group: c2v
    Full point group: C_inf_v

    Geometry (in Angstrom), charge = 0, multiplicity = 6:

       Center              X                  Y                   Z               Mass       
    ------------   -----------------  -----------------  -----------------  -----------------
         AL           0.000000000000     0.000000000000     0.650791115280    26.981538530000
         S            0.000000000000     0.000000000000    -0.549208884720    31.972071174400

  Nuclear repulsion =   91.724049849466681

  ==> Basis Set <==

  Basis Set: CC-PVDZ
    Blend: CC-PVDZ
    Number of shells: 16
    Number of basis functions: 36
    Number of Cartesian functions: 38
    Spherical Harmonics?: true
    Max angular momentum: 2

  ==> DFJKGrad: Density-Fitted SCF Gradients <==

    Gradient:                    1
    J tasked:                  Yes
    K tasked:                  Yes
    wK tasked:                  No
    OpenMP threads:              1
    Integrals threads:           1
    Memory [MiB]:              375
    Schwarz Cutoff:          1E-12
    Fitting Condition:       1E-10

   => Auxiliary Basis Set <=

  Basis Set: (CC-PVDZ AUX)
    Blend: CC-PVDZ-JKFIT
    Number of shells: 72
    Number of basis functions: 224
    Number of Cartesian functions: 260
    Spherical Harmonics?: true
    Max angular momentum: 3

  ==> DFT Potential <==

   => LibXC <=

    Version 6.2.2
    S. Lehtola, C. Steigemann, M. J.T. Oliveira, and M. A.L. Marques.,  SoftwareX 7, 1–5 (2018) (10.1016/j.softx.2017.11.002)

   => Composite Functional: B3LYP <= 

    B3LYP Hyb-GGA Exchange-Correlation Functional

    P. J. Stephens, F. J. Devlin, C. F. Chabalowski, and M. J. Frisch.,  J. Phys. Chem. 98, 11623 (1994) (10.1021/j100096a001)

    Deriv               =              1
    GGA                 =           TRUE
    Meta                =          FALSE

    Exchange Hybrid     =           TRUE
    MP2 Hybrid          =          FALSE

   => Exchange Functionals <=

    0.0800   Slater exchange
    0.7200         Becke 88

   => Exact (HF) Exchange <=

    0.2000               HF 

   => Correlation Functionals <=

    0.1900   Vosko, Wilk & Nusair (VWN5_RPA)
    0.8100   Lee, Yang & Parr

   => LibXC Density Thresholds  <==

    XC_HYB_GGA_XC_B3LYP:  1.00E-15 

   => Molecular Quadrature <=

    Radial Scheme          =       TREUTLER
    Pruning Scheme         =           NONE
    Nuclear Scheme         =       TREUTLER

    Blocking Scheme        =         OCTREE
    BS radius alpha        =              1
    Pruning alpha          =              1
    Radial Points          =             75
    Spherical Points       =            302
    Total Points           =          42559
    Total Blocks           =            402
    Max Points             =            253
    Max Functions          =             36
    Weights Tolerance      =       1.00E-15


  -Total Gradient:
     Atom            X                  Y                   Z
    ------   -----------------  -----------------  -----------------
       1       -0.000000000000    -0.000000000000    -2.496348661596
       2        0.000000000000    -0.000000000000     2.496429891280


*** tstop() called on Joses-MacBook-Pro-2.local at Wed Jul 16 20:08:56 2025
Module time:
	user time   =       2.68 seconds =       0.04 minutes
	system time =       0.81 seconds =       0.01 minutes
	total time  =          0 seconds =       0.00 minutes
Total time:
	user time   =      19.74 seconds =       0.33 minutes
	system time =       2.28 seconds =       0.04 minutes
	total time  =          2 seconds =       0.03 minutes

    			-----------------------------------------

    			 OPTKING 3.0: for geometry optimizations 

    			     By R.A. King, Bethel University     

    			        with contributions from          

    			    A.V. Copan, J. Cayton, A. Heide      

    			-----------------------------------------

    
	                            ===> Fragment 1 <== 

	 Z (Atomic Numbers)          Masses                          Geom                  
	      13.000000            26.981539          0.00000000  0.00000000  1.22981697   
	      16.000000            31.972071          0.00000000  0.00000000 -1.03785438   

	 - Coordinate -           - BOHR/RAD -       - ANG/DEG -
	 R(1,2)           =         2.267671           1.200000


	        --- Internal Coordinate Step in ANG or DEG, aJ/ANG or AJ/DEG ---
	-------------------------------------------------------------------------------
	           Coordinate      Previous         Force          Change          New 
	           ----------      --------        ------          ------        ------
	               R(1,2)       1.20000       20.56706        0.00606       1.20606
	-------------------------------------------------------------------------------

	                                 ==> Convergence Check <==                                  
    
	Measures of convergence in internal coordinates in au.
    
	Criteria marked as inactive (o), active & met (*), and active & unmet ( ).

	----------------------------------------------------------------------------------------------
	   Step    Total Energy     Delta E     Max Force     RMS Force      Max Disp      RMS Disp   
	----------------------------------------------------------------------------------------------
	  Convergence Criteria     1.00e-06 *    3.00e-04 *             o    1.20e-03 *             o
	----------------------------------------------------------------------------------------------
	     1    -638.95101053   -6.39e+02      2.50e+00      2.50e+00 o    1.15e-02      1.15e-02 o  ~
	----------------------------------------------------------------------------------------------

Next Geometry in Ang 
	Fragment 1 (Ang)

	   Al   0.0000000000   0.0000000000   0.6538230831
	    S   0.0000000000   0.0000000000  -0.5522408525


    Structure for next step:
    Molecular point group: c2v
    Full point group: C_inf_v

    Geometry (in Angstrom), charge = 0, multiplicity = 6:

    AL           0.000000000000     0.000000000000     0.654079744803
    S            0.000000000000     0.000000000000    -0.551984190822


Scratch directory: /tmp/
gradient() will perform analytic gradient computation.
   => Libint2 <=

    Primary   basis highest AM E, G, H:  6, 6, 3
    Auxiliary basis highest AM E, G, H:  7, 7, 4
    Onebody   basis highest AM E, G, H:  -, -, -
    Solid Harmonics ordering:            Gaussian

*** tstart() called on Joses-MacBook-Pro-2.local
*** at Wed Jul 16 20:08:56 2025

   => Loading Basis Set <=

    Name: CC-PVDZ
    Role: ORBITAL
    Keyword: BASIS
    atoms 1 entry AL         line   418 file /Users/joseantoniorodriguesromero/anaconda3/share/psi4/basis/cc-pvdz.gbs 
    atoms 2 entry S          line   598 file /Users/joseantoniorodriguesromero/anaconda3/share/psi4/basis/cc-pvdz.gbs 


         ---------------------------------------------------------
                                   SCF
               by Justin Turney, Rob Parrish, Andy Simmonett
                          and Daniel G. A. Smith
                              UKS Reference
                        1 Threads,    500 MiB Core
         ---------------------------------------------------------

  ==> Geometry <==

    Molecular point group: c2v
    Full point group: C_inf_v

    Geometry (in Angstrom), charge = 0, multiplicity = 6:

       Center              X                  Y                   Z               Mass       
    ------------   -----------------  -----------------  -----------------  -----------------
         AL           0.000000000000     0.000000000000     0.654079744803    26.981538530000
         S            0.000000000000     0.000000000000    -0.551984190822    31.972071174400

  Running in c2v symmetry.

  Rotational constants: A = ************  B =      0.79201  C =      0.79201 [cm^-1]
  Rotational constants: A = ************  B =  23743.75802  C =  23743.75802 [MHz]
  Nuclear repulsion =   91.262873026952434

  Charge       = 0
  Multiplicity = 6
  Electrons    = 29
  Nalpha       = 17
  Nbeta        = 12

  ==> Algorithm <==

  SCF Algorithm Type is DF.
  DIIS enabled.
  MOM disabled.
  Fractional occupation disabled.
  Guess Type is READ.
  Energy threshold   = 1.00e-08
  Density threshold  = 1.00e-08
  Integral threshold = 1.00e-12

  ==> Primary Basis <==

  Basis Set: CC-PVDZ
    Blend: CC-PVDZ
    Number of shells: 16
    Number of basis functions: 36
    Number of Cartesian functions: 38
    Spherical Harmonics?: true
    Max angular momentum: 2

  ==> DFT Potential <==

   => LibXC <=

    Version 6.2.2
    S. Lehtola, C. Steigemann, M. J.T. Oliveira, and M. A.L. Marques.,  SoftwareX 7, 1–5 (2018) (10.1016/j.softx.2017.11.002)

   => Composite Functional: B3LYP <= 

    B3LYP Hyb-GGA Exchange-Correlation Functional

    P. J. Stephens, F. J. Devlin, C. F. Chabalowski, and M. J. Frisch.,  J. Phys. Chem. 98, 11623 (1994) (10.1021/j100096a001)

    Deriv               =              1
    GGA                 =           TRUE
    Meta                =          FALSE

    Exchange Hybrid     =           TRUE
    MP2 Hybrid          =          FALSE

   => Exchange Functionals <=

    0.0800   Slater exchange
    0.7200         Becke 88

   => Exact (HF) Exchange <=

    0.2000               HF 

   => Correlation Functionals <=

    0.1900   Vosko, Wilk & Nusair (VWN5_RPA)
    0.8100   Lee, Yang & Parr

   => LibXC Density Thresholds  <==

    XC_HYB_GGA_XC_B3LYP:  1.00E-15 

   => Molecular Quadrature <=

    Radial Scheme          =       TREUTLER
    Pruning Scheme         =           NONE
    Nuclear Scheme         =       TREUTLER

    Blocking Scheme        =         OCTREE
    BS radius alpha        =              1
    Pruning alpha          =              1
    Radial Points          =             75
    Spherical Points       =            302
    Total Points           =          42559
    Total Blocks           =            402
    Max Points             =            254
    Max Functions          =             36
    Weights Tolerance      =       1.00E-15

   => Loading Basis Set <=

    Name: (CC-PVDZ AUX)
    Role: JKFIT
    Keyword: DF_BASIS_SCF
    atoms 1 entry AL         line   371 file /Users/joseantoniorodriguesromero/anaconda3/share/psi4/basis/cc-pvdz-jkfit.gbs 
    atoms 2 entry S          line   593 file /Users/joseantoniorodriguesromero/anaconda3/share/psi4/basis/cc-pvdz-jkfit.gbs 

   => Loading Basis Set <=

    Name: CC-PVDZ
    Role: ORBITAL
    Keyword: BASIS
    atoms 1 entry AL         line   418 file /Users/joseantoniorodriguesromero/anaconda3/share/psi4/basis/cc-pvdz.gbs 
    atoms 2 entry S          line   598 file /Users/joseantoniorodriguesromero/anaconda3/share/psi4/basis/cc-pvdz.gbs 

  Reading orbitals from file /tmp/sextet_AlS.default.69478.180.npy, no projection.

  ==> Integral Setup <==

  DFHelper Memory: AOs need 0.003 GiB; user supplied 0.323 GiB. 
  Using in-core AOs.

  ==> MemDFJK: Density-Fitted J/K Matrices <==

    J tasked:                   Yes
    K tasked:                   Yes
    wK tasked:                   No
    OpenMP threads:               1
    Memory [MiB]:               330
    Algorithm:                 Core
    Schwarz Cutoff:           1E-12
    Mask sparsity (%):       0.0000
    Fitting Condition:        1E-10

   => Auxiliary Basis Set <=

  Basis Set: (CC-PVDZ AUX)
    Blend: CC-PVDZ-JKFIT
    Number of shells: 72
    Number of basis functions: 224
    Number of Cartesian functions: 260
    Spherical Harmonics?: true
    Max angular momentum: 3

  Cached 100.0% of DFT collocation blocks in 0.043 [GiB].

  Minimum eigenvalue in the overlap matrix is 4.0105826489E-03.
  Reciprocal condition number of the overlap matrix is 1.2715702364E-03.
    Using symmetric orthogonalization.

  ==> Pre-Iterations <==

  SCF Guess: Orbitals guess was supplied from a previous computation.

   -------------------------------------------------------
    Irrep   Nso     Nmo     Nalpha   Nbeta   Ndocc  Nsocc
   -------------------------------------------------------
     A1        18      18       9       7       7       2
     A2         2       2       0       0       0       0
     B1         8       8       4       3       3       1
     B2         8       8       4       2       2       2
   -------------------------------------------------------
    Total      36      36      17      12      12       5
   -------------------------------------------------------

  ==> Iterations <==

                           Total Energy        Delta E     RMS |[F,P]|

   @DF-UKS iter   0:  -638.97772791249292   -6.38978e+02   2.24882e-03 
   @DF-UKS iter   1:  -638.97932315983667   -1.59525e-03   2.41684e-04 DIIS/ADIIS
   @DF-UKS iter   2:  -638.97933678806032   -1.36282e-05   1.88517e-04 DIIS/ADIIS/DAMP=1%
   @DF-UKS iter   3:  -638.97970678378488   -3.69996e-04   9.02028e-06 DIIS/DAMP=1%
   @DF-UKS iter   4:  -638.97935987687288    3.46907e-04   3.06246e-06 DIIS/DAMP=1%
   @DF-UKS iter   5:  -638.97935190668773    7.97019e-06   1.14113e-06 DIIS/DAMP=1%
   @DF-UKS iter   6:  -638.97934854871642    3.35797e-06   1.34500e-07 DIIS/DAMP=1%
   @DF-UKS iter   7:  -638.97934847681609    7.19003e-08   2.13384e-08 DIIS/DAMP=1%
   @DF-UKS iter   8:  -638.97934857402231   -9.72062e-08   2.68587e-09 DIIS/DAMP=1%
   @DF-UKS iter   9:  -638.97934858463680   -1.06145e-08   2.93584e-10 DIIS/DAMP=1%
   @DF-UKS iter  10:  -638.97934858027827    4.35853e-09   3.34206e-11 DIIS/DAMP=1%
  Energy and wave function converged.


  ==> Post-Iterations <==

   Electrons on quadrature grid:
      Nalpha   =   16.9999983328 ; deviation = -1.667e-06
      Nbeta    =   11.9999982332 ; deviation = -1.767e-06
      Ntotal   =   28.9999965660 ; deviation = -3.434e-06 

   @Spin Contamination Metric:   3.183919310E-03
   @S^2 Expected:                8.750000000E+00
   @S^2 Observed:                8.753183919E+00
   @S   Expected:                2.500000000E+00
   @S   Observed:                2.500000000E+00

    Orbital Energies [Eh]
    ---------------------

    Alpha Occupied:                                                       

       1A1   -89.102223     2A1   -56.194924     3A1    -8.222122  
       4A1    -6.209217     1B2    -6.172829     1B1    -6.150941  
       5A1    -4.383437     6A1    -2.963761     2B2    -2.892511  
       2B1    -2.885163     7A1    -0.931616     3B2    -0.570622  
       3B1    -0.517386     8A1    -0.499276     9A1    -0.231096  
       4B2    -0.109068     4B1    -0.092302  

    Alpha Virtual:                                                        

      10A1     0.015966     5B2     0.076192     5B1     0.096403  
       1A2     0.119739    11A1     0.119806    12A1     0.168091  
      13A1     0.253943     6B2     0.259741     6B1     0.271425  
      14A1     0.312876     7B2     0.442648     7B1     0.469697  
      15A1     0.524704     2A2     0.525447    16A1     0.565497  
       8B2     0.773629     8B1     0.797718    17A1     0.956211  
      18A1     1.447458  

    Beta Occupied:                                                        

       1A1   -89.086983     2A1   -56.181718     3A1    -8.206378  
       4A1    -6.181493     1B2    -6.144339     1B1    -6.139338  
       5A1    -4.365396     6A1    -2.941249     2B2    -2.871007  
       2B1    -2.869515     7A1    -0.822397     3B1    -0.472018  

    Beta Virtual:                                                         

       3B2    -0.384729     8A1    -0.308289     9A1    -0.070846  
       4B1     0.029299     4B2     0.031712    10A1     0.042356  
       5B1     0.138667     5B2     0.140412     1A2     0.194674  
      11A1     0.198537    12A1     0.223683    13A1     0.311755  
       6B1     0.351808     6B2     0.352552    14A1     0.385476  
       7B1     0.512280     7B2     0.512783     2A2     0.608769  
      15A1     0.613307    16A1     0.625538     8B1     0.863477  
       8B2     0.864351    17A1     1.025638    18A1     1.488474  

    Final Occupation by Irrep:
             A1    A2    B1    B2 
    DOCC [     7,    0,    3,    2 ]
    SOCC [     2,    0,    1,    2 ]
    NA   [     9,    0,    4,    4 ]
    NB   [     7,    0,    3,    2 ]

  @DF-UKS Final Energy:  -638.97934858027827

   => Energetics <=

    Nuclear Repulsion Energy =             91.2628730269524340
    One-Electron Energy =               -1060.4149396585298746
    Two-Electron Energy =                 366.2334579732094539
    DFT Exchange-Correlation Energy =     -36.0607399219103826
    Empirical Dispersion Energy =           0.0000000000000000
    VV10 Nonlocal Energy =                  0.0000000000000000
    Total Energy =                       -638.9793485802782698

  UHF NO Occupations:
  HONO-2 :    4 B1 1.0000000
  HONO-1 :    4 B2 1.0000000
  HONO-0 :    9 A1 1.0000000
  LUNO+0 :   10 A1 0.0011054
  LUNO+1 :    5 B1 0.0004856
  LUNO+2 :   11 A1 0.0000005
  LUNO+3 :    5 B2 0.0000005


Computation Completed


Properties will be evaluated at   0.000000,   0.000000,   0.000000 [a0]

Properties computed using the SCF density matrix


 Multipole Moments:

 ------------------------------------------------------------------------------------
     Multipole            Electronic (a.u.)      Nuclear  (a.u.)        Total (a.u.)
 ------------------------------------------------------------------------------------

 L = 1.  Multiply by 2.5417464519 to convert [e a0] to [Debye]
 Dipole X            :          0.0000000            0.0000000            0.0000000
 Dipole Y            :          0.0000000            0.0000000            0.0000000
 Dipole Z            :         -1.5561094           -0.6211726           -2.1772819
 Magnitude           :                                                    2.1772819

 ------------------------------------------------------------------------------------

*** tstop() called on Joses-MacBook-Pro-2.local at Wed Jul 16 20:08:57 2025
Module time:
	user time   =       8.08 seconds =       0.13 minutes
	system time =       1.97 seconds =       0.03 minutes
	total time  =          1 seconds =       0.02 minutes
Total time:
	user time   =      28.00 seconds =       0.47 minutes
	system time =       4.33 seconds =       0.07 minutes
	total time  =          3 seconds =       0.05 minutes

*** tstart() called on Joses-MacBook-Pro-2.local
*** at Wed Jul 16 20:08:57 2025


         ------------------------------------------------------------
                                   SCF GRAD                          
                          Rob Parrish, Justin Turney,                
                       Andy Simmonett, and Alex Sokolov              
         ------------------------------------------------------------

  ==> Geometry <==

    Molecular point group: c2v
    Full point group: C_inf_v

    Geometry (in Angstrom), charge = 0, multiplicity = 6:

       Center              X                  Y                   Z               Mass       
    ------------   -----------------  -----------------  -----------------  -----------------
         AL           0.000000000000     0.000000000000     0.654079744803    26.981538530000
         S            0.000000000000     0.000000000000    -0.551984190822    31.972071174400

  Nuclear repulsion =   91.262873026952434

  ==> Basis Set <==

  Basis Set: CC-PVDZ
    Blend: CC-PVDZ
    Number of shells: 16
    Number of basis functions: 36
    Number of Cartesian functions: 38
    Spherical Harmonics?: true
    Max angular momentum: 2

  ==> DFJKGrad: Density-Fitted SCF Gradients <==

    Gradient:                    1
    J tasked:                  Yes
    K tasked:                  Yes
    wK tasked:                  No
    OpenMP threads:              1
    Integrals threads:           1
    Memory [MiB]:              375
    Schwarz Cutoff:          1E-12
    Fitting Condition:       1E-10

   => Auxiliary Basis Set <=

  Basis Set: (CC-PVDZ AUX)
    Blend: CC-PVDZ-JKFIT
    Number of shells: 72
    Number of basis functions: 224
    Number of Cartesian functions: 260
    Spherical Harmonics?: true
    Max angular momentum: 3

  ==> DFT Potential <==

   => LibXC <=

    Version 6.2.2
    S. Lehtola, C. Steigemann, M. J.T. Oliveira, and M. A.L. Marques.,  SoftwareX 7, 1–5 (2018) (10.1016/j.softx.2017.11.002)

   => Composite Functional: B3LYP <= 

    B3LYP Hyb-GGA Exchange-Correlation Functional

    P. J. Stephens, F. J. Devlin, C. F. Chabalowski, and M. J. Frisch.,  J. Phys. Chem. 98, 11623 (1994) (10.1021/j100096a001)

    Deriv               =              1
    GGA                 =           TRUE
    Meta                =          FALSE

    Exchange Hybrid     =           TRUE
    MP2 Hybrid          =          FALSE

   => Exchange Functionals <=

    0.0800   Slater exchange
    0.7200         Becke 88

   => Exact (HF) Exchange <=

    0.2000               HF 

   => Correlation Functionals <=

    0.1900   Vosko, Wilk & Nusair (VWN5_RPA)
    0.8100   Lee, Yang & Parr

   => LibXC Density Thresholds  <==

    XC_HYB_GGA_XC_B3LYP:  1.00E-15 

   => Molecular Quadrature <=

    Radial Scheme          =       TREUTLER
    Pruning Scheme         =           NONE
    Nuclear Scheme         =       TREUTLER

    Blocking Scheme        =         OCTREE
    BS radius alpha        =              1
    Pruning alpha          =              1
    Radial Points          =             75
    Spherical Points       =            302
    Total Points           =          42559
    Total Blocks           =            402
    Max Points             =            254
    Max Functions          =             36
    Weights Tolerance      =       1.00E-15


  -Total Gradient:
     Atom            X                  Y                   Z
    ------   -----------------  -----------------  -----------------
       1       -0.000000000000     0.000000000000    -2.449548922948
       2       -0.000000000000     0.000000000000     2.449623328170


*** tstop() called on Joses-MacBook-Pro-2.local at Wed Jul 16 20:08:57 2025
Module time:
	user time   =       2.70 seconds =       0.04 minutes
	system time =       1.04 seconds =       0.02 minutes
	total time  =          0 seconds =       0.00 minutes
Total time:
	user time   =      30.71 seconds =       0.51 minutes
	system time =       5.37 seconds =       0.09 minutes
	total time  =          3 seconds =       0.05 minutes

    			-----------------------------------------

    			 OPTKING 3.0: for geometry optimizations 

    			     By R.A. King, Bethel University     

    			        with contributions from          

    			    A.V. Copan, J. Cayton, A. Heide      

    			-----------------------------------------

    
	                            ===> Fragment 1 <== 

	 Z (Atomic Numbers)          Masses                          Geom                  
	      13.000000            26.981539          0.00000000  0.00000000  1.23603158   
	      16.000000            31.972071          0.00000000  0.00000000 -1.04309895   

	 - Coordinate -           - BOHR/RAD -       - ANG/DEG -
	 R(1,2)           =         2.279131           1.206064


	        --- Internal Coordinate Step in ANG or DEG, aJ/ANG or AJ/DEG ---
	-------------------------------------------------------------------------------
	           Coordinate      Previous         Force          Change          New 
	           ----------      --------        ------          ------        ------
	               R(1,2)       1.20606       20.18146        0.01190       1.21796
	-------------------------------------------------------------------------------

	                                 ==> Convergence Check <==                                  
    
	Measures of convergence in internal coordinates in au.
    
	Criteria marked as inactive (o), active & met (*), and active & unmet ( ).

	----------------------------------------------------------------------------------------------
	   Step    Total Energy     Delta E     Max Force     RMS Force      Max Disp      RMS Disp   
	----------------------------------------------------------------------------------------------
	  Convergence Criteria     1.00e-06 *    3.00e-04 *             o    1.20e-03 *             o
	----------------------------------------------------------------------------------------------
	     2    -638.97934858   -2.83e-02      2.45e+00      2.45e+00 o    2.25e-02      2.25e-02 o  ~
	----------------------------------------------------------------------------------------------

Next Geometry in Ang 
	Fragment 1 (Ang)

	   Al   0.0000000000   0.0000000000   0.6600277657
	    S   0.0000000000   0.0000000000  -0.5579322118


    Structure for next step:
    Molecular point group: c2v
    Full point group: C_inf_v

    Geometry (in Angstrom), charge = 0, multiplicity = 6:

    AL           0.000000000000     0.000000000000     0.660531276761
    S            0.000000000000     0.000000000000    -0.557428700724


Scratch directory: /tmp/
gradient() will perform analytic gradient computation.
   => Libint2 <=

    Primary   basis highest AM E, G, H:  6, 6, 3
    Auxiliary basis highest AM E, G, H:  7, 7, 4
    Onebody   basis highest AM E, G, H:  -, -, -
    Solid Harmonics ordering:            Gaussian

*** tstart() called on Joses-MacBook-Pro-2.local
*** at Wed Jul 16 20:08:57 2025

   => Loading Basis Set <=

    Name: CC-PVDZ
    Role: ORBITAL
    Keyword: BASIS
    atoms 1 entry AL         line   418 file /Users/joseantoniorodriguesromero/anaconda3/share/psi4/basis/cc-pvdz.gbs 
    atoms 2 entry S          line   598 file /Users/joseantoniorodriguesromero/anaconda3/share/psi4/basis/cc-pvdz.gbs 


         ---------------------------------------------------------
                                   SCF
               by Justin Turney, Rob Parrish, Andy Simmonett
                          and Daniel G. A. Smith
                              UKS Reference
                        1 Threads,    500 MiB Core
         ---------------------------------------------------------

  ==> Geometry <==

    Molecular point group: c2v
    Full point group: C_inf_v

    Geometry (in Angstrom), charge = 0, multiplicity = 6:

       Center              X                  Y                   Z               Mass       
    ------------   -----------------  -----------------  -----------------  -----------------
         AL           0.000000000000     0.000000000000     0.660531276761    26.981538530000
         S            0.000000000000     0.000000000000    -0.557428700724    31.972071174400

  Running in c2v symmetry.

  Rotational constants: A = ************  B =      0.77661  C =      0.77661 [cm^-1]
  Rotational constants: A = ************  B =  23282.20372  C =  23282.20372 [MHz]
  Nuclear repulsion =   90.371491554798254

  Charge       = 0
  Multiplicity = 6
  Electrons    = 29
  Nalpha       = 17
  Nbeta        = 12

  ==> Algorithm <==

  SCF Algorithm Type is DF.
  DIIS enabled.
  MOM disabled.
  Fractional occupation disabled.
  Guess Type is READ.
  Energy threshold   = 1.00e-08
  Density threshold  = 1.00e-08
  Integral threshold = 1.00e-12

  ==> Primary Basis <==

  Basis Set: CC-PVDZ
    Blend: CC-PVDZ
    Number of shells: 16
    Number of basis functions: 36
    Number of Cartesian functions: 38
    Spherical Harmonics?: true
    Max angular momentum: 2

  ==> DFT Potential <==

   => LibXC <=

    Version 6.2.2
    S. Lehtola, C. Steigemann, M. J.T. Oliveira, and M. A.L. Marques.,  SoftwareX 7, 1–5 (2018) (10.1016/j.softx.2017.11.002)

   => Composite Functional: B3LYP <= 

    B3LYP Hyb-GGA Exchange-Correlation Functional

    P. J. Stephens, F. J. Devlin, C. F. Chabalowski, and M. J. Frisch.,  J. Phys. Chem. 98, 11623 (1994) (10.1021/j100096a001)

    Deriv               =              1
    GGA                 =           TRUE
    Meta                =          FALSE

    Exchange Hybrid     =           TRUE
    MP2 Hybrid          =          FALSE

   => Exchange Functionals <=

    0.0800   Slater exchange
    0.7200         Becke 88

   => Exact (HF) Exchange <=

    0.2000               HF 

   => Correlation Functionals <=

    0.1900   Vosko, Wilk & Nusair (VWN5_RPA)
    0.8100   Lee, Yang & Parr

   => LibXC Density Thresholds  <==

    XC_HYB_GGA_XC_B3LYP:  1.00E-15 

   => Molecular Quadrature <=

    Radial Scheme          =       TREUTLER
    Pruning Scheme         =           NONE
    Nuclear Scheme         =       TREUTLER

    Blocking Scheme        =         OCTREE
    BS radius alpha        =              1
    Pruning alpha          =              1
    Radial Points          =             75
    Spherical Points       =            302
    Total Points           =          42559
    Total Blocks           =            401
    Max Points             =            253
    Max Functions          =             36
    Weights Tolerance      =       1.00E-15

   => Loading Basis Set <=

    Name: (CC-PVDZ AUX)
    Role: JKFIT
    Keyword: DF_BASIS_SCF
    atoms 1 entry AL         line   371 file /Users/joseantoniorodriguesromero/anaconda3/share/psi4/basis/cc-pvdz-jkfit.gbs 
    atoms 2 entry S          line   593 file /Users/joseantoniorodriguesromero/anaconda3/share/psi4/basis/cc-pvdz-jkfit.gbs 

   => Loading Basis Set <=

    Name: CC-PVDZ
    Role: ORBITAL
    Keyword: BASIS
    atoms 1 entry AL         line   418 file /Users/joseantoniorodriguesromero/anaconda3/share/psi4/basis/cc-pvdz.gbs 
    atoms 2 entry S          line   598 file /Users/joseantoniorodriguesromero/anaconda3/share/psi4/basis/cc-pvdz.gbs 

  Reading orbitals from file /tmp/sextet_AlS.default.69478.180.npy, no projection.

  ==> Integral Setup <==

  DFHelper Memory: AOs need 0.003 GiB; user supplied 0.323 GiB. 
  Using in-core AOs.

  ==> MemDFJK: Density-Fitted J/K Matrices <==

    J tasked:                   Yes
    K tasked:                   Yes
    wK tasked:                   No
    OpenMP threads:               1
    Memory [MiB]:               330
    Algorithm:                 Core
    Schwarz Cutoff:           1E-12
    Mask sparsity (%):       0.0000
    Fitting Condition:        1E-10

   => Auxiliary Basis Set <=

  Basis Set: (CC-PVDZ AUX)
    Blend: CC-PVDZ-JKFIT
    Number of shells: 72
    Number of basis functions: 224
    Number of Cartesian functions: 260
    Spherical Harmonics?: true
    Max angular momentum: 3

  Cached 100.0% of DFT collocation blocks in 0.043 [GiB].

  Minimum eigenvalue in the overlap matrix is 4.1295069650E-03.
  Reciprocal condition number of the overlap matrix is 1.3094863160E-03.
    Using symmetric orthogonalization.

  ==> Pre-Iterations <==

  SCF Guess: Orbitals guess was supplied from a previous computation.

   -------------------------------------------------------
    Irrep   Nso     Nmo     Nalpha   Nbeta   Ndocc  Nsocc
   -------------------------------------------------------
     A1        18      18       9       7       7       2
     A2         2       2       0       0       0       0
     B1         8       8       4       3       3       1
     B2         8       8       4       2       2       2
   -------------------------------------------------------
    Total      36      36      17      12      12       5
   -------------------------------------------------------

  ==> Iterations <==

                           Total Energy        Delta E     RMS |[F,P]|

   @DF-UKS iter   0:  -639.03049282620714   -6.39030e+02   4.37792e-03 
   @DF-UKS iter   1:  -639.03330837878855   -2.81555e-03   4.72371e-04 DIIS/ADIIS
   @DF-UKS iter   2:  -639.03335990701339   -5.15282e-05   3.68459e-04 DIIS/ADIIS/DAMP=1%
   @DF-UKS iter   3:  -639.03410278148988   -7.42874e-04   1.75871e-05 DIIS/DAMP=1%
   @DF-UKS iter   4:  -639.03342685726022    6.75924e-04   6.09684e-06 DIIS/DAMP=1%
   @DF-UKS iter   5:  -639.03341143084594    1.54264e-05   2.21232e-06 DIIS/DAMP=1%
   @DF-UKS iter   6:  -639.03340502328615    6.40756e-06   2.62440e-07 DIIS/DAMP=1%
   @DF-UKS iter   7:  -639.03340479874760    2.24539e-07   4.17700e-08 DIIS/DAMP=1%
   @DF-UKS iter   8:  -639.03340499628450   -1.97537e-07   5.21195e-09 DIIS/DAMP=1%
   @DF-UKS iter   9:  -639.03340501523871   -1.89542e-08   5.46086e-10 DIIS/DAMP=1%
   @DF-UKS iter  10:  -639.03340500700438    8.23434e-09   6.03548e-11 DIIS/DAMP=1%
  Energy and wave function converged.


  ==> Post-Iterations <==

   Electrons on quadrature grid:
      Nalpha   =   16.9999985647 ; deviation = -1.435e-06
      Nbeta    =   11.9999984053 ; deviation = -1.595e-06
      Ntotal   =   28.9999969700 ; deviation = -3.030e-06 

   @Spin Contamination Metric:   3.191358268E-03
   @S^2 Expected:                8.750000000E+00
   @S^2 Observed:                8.753191358E+00
   @S   Expected:                2.500000000E+00
   @S   Observed:                2.500000000E+00

    Orbital Energies [Eh]
    ---------------------

    Alpha Occupied:                                                       

       1A1   -89.095978     2A1   -56.184554     3A1    -8.214462  
       4A1    -6.200916     1B2    -6.166071     1B1    -6.144288  
       5A1    -4.370570     6A1    -2.951481     2B2    -2.881899  
       2B1    -2.874765     7A1    -0.931386     3B2    -0.566858  
       3B1    -0.513893     8A1    -0.501460     9A1    -0.232129  
       4B2    -0.109308     4B1    -0.092569  

    Alpha Virtual:                                                        

      10A1     0.015861     5B2     0.077118     5B1     0.097314  
       1A2     0.122426    11A1     0.122433    12A1     0.168322  
      13A1     0.251026     6B2     0.259964     6B1     0.271579  
      14A1     0.310504     7B2     0.442070     7B1     0.469120  
      15A1     0.523993     2A2     0.524822    16A1     0.563510  
       8B2     0.773678     8B1     0.797826    17A1     0.951137  
      18A1     1.418518  

    Beta Occupied:                                                        

       1A1   -89.080745     2A1   -56.171450     3A1    -8.198727  
       4A1    -6.173080     1B2    -6.137688     1B1    -6.132697  
       5A1    -4.352678     6A1    -2.929077     2B2    -2.860612  
       2B1    -2.859133     7A1    -0.822325     3B1    -0.468576  

    Beta Virtual:                                                         

       3B2    -0.381504     8A1    -0.310389     9A1    -0.072066  
       4B1     0.029093     4B2     0.031606    10A1     0.042441  
       5B1     0.139666     5B2     0.141505     1A2     0.197555  
      11A1     0.201424    12A1     0.223838    13A1     0.308243  
       6B1     0.352084     6B2     0.352826    14A1     0.383480  
       7B1     0.511230     7B2     0.511848     2A2     0.608150  
      15A1     0.612713    16A1     0.623594     8B1     0.863946  
       8B2     0.864916    17A1     1.020091    18A1     1.460019  

    Final Occupation by Irrep:
             A1    A2    B1    B2 
    DOCC [     7,    0,    3,    2 ]
    SOCC [     2,    0,    1,    2 ]
    NA   [     9,    0,    4,    4 ]
    NB   [     7,    0,    3,    2 ]

  @DF-UKS Final Energy:  -639.03340500700438

   => Energetics <=

    Nuclear Repulsion Energy =             90.3714915547982542
    One-Electron Energy =               -1058.9356033602473417
    Two-Electron Energy =                 365.5850002026214156
    DFT Exchange-Correlation Energy =     -36.0542934041767964
    Empirical Dispersion Energy =           0.0000000000000000
    VV10 Nonlocal Energy =                  0.0000000000000000
    Total Energy =                       -639.0334050070044896

  UHF NO Occupations:
  HONO-2 :    9 A1 1.0000000
  HONO-1 :    3 B2 1.0000000
  HONO-0 :    4 B2 1.0000000
  LUNO+0 :   10 A1 0.0010938
  LUNO+1 :    5 B1 0.0005010
  LUNO+2 :   11 A1 0.0000005
  LUNO+3 :    5 B2 0.0000005


Computation Completed


Properties will be evaluated at   0.000000,   0.000000,   0.000000 [a0]

Properties computed using the SCF density matrix


 Multipole Moments:

 ------------------------------------------------------------------------------------
     Multipole            Electronic (a.u.)      Nuclear  (a.u.)        Total (a.u.)
 ------------------------------------------------------------------------------------

 L = 1.  Multiply by 2.5417464519 to convert [e a0] to [Debye]
 Dipole X            :          0.0000000            0.0000000            0.0000000
 Dipole Y            :          0.0000000            0.0000000            0.0000000
 Dipole Z            :         -1.5446599           -0.6272995           -2.1719594
 Magnitude           :                                                    2.1719594

 ------------------------------------------------------------------------------------

*** tstop() called on Joses-MacBook-Pro-2.local at Wed Jul 16 20:08:58 2025
Module time:
	user time   =       8.73 seconds =       0.15 minutes
	system time =       2.08 seconds =       0.03 minutes
	total time  =          1 seconds =       0.02 minutes
Total time:
	user time   =      39.63 seconds =       0.66 minutes
	system time =       7.56 seconds =       0.13 minutes
	total time  =          4 seconds =       0.07 minutes

*** tstart() called on Joses-MacBook-Pro-2.local
*** at Wed Jul 16 20:08:58 2025


         ------------------------------------------------------------
                                   SCF GRAD                          
                          Rob Parrish, Justin Turney,                
                       Andy Simmonett, and Alex Sokolov              
         ------------------------------------------------------------

  ==> Geometry <==

    Molecular point group: c2v
    Full point group: C_inf_v

    Geometry (in Angstrom), charge = 0, multiplicity = 6:

       Center              X                  Y                   Z               Mass       
    ------------   -----------------  -----------------  -----------------  -----------------
         AL           0.000000000000     0.000000000000     0.660531276761    26.981538530000
         S            0.000000000000     0.000000000000    -0.557428700724    31.972071174400

  Nuclear repulsion =   90.371491554798254

  ==> Basis Set <==

  Basis Set: CC-PVDZ
    Blend: CC-PVDZ
    Number of shells: 16
    Number of basis functions: 36
    Number of Cartesian functions: 38
    Spherical Harmonics?: true
    Max angular momentum: 2

  ==> DFJKGrad: Density-Fitted SCF Gradients <==

    Gradient:                    1
    J tasked:                  Yes
    K tasked:                  Yes
    wK tasked:                  No
    OpenMP threads:              1
    Integrals threads:           1
    Memory [MiB]:              375
    Schwarz Cutoff:          1E-12
    Fitting Condition:       1E-10

   => Auxiliary Basis Set <=

  Basis Set: (CC-PVDZ AUX)
    Blend: CC-PVDZ-JKFIT
    Number of shells: 72
    Number of basis functions: 224
    Number of Cartesian functions: 260
    Spherical Harmonics?: true
    Max angular momentum: 3

  ==> DFT Potential <==

   => LibXC <=

    Version 6.2.2
    S. Lehtola, C. Steigemann, M. J.T. Oliveira, and M. A.L. Marques.,  SoftwareX 7, 1–5 (2018) (10.1016/j.softx.2017.11.002)

   => Composite Functional: B3LYP <= 

    B3LYP Hyb-GGA Exchange-Correlation Functional

    P. J. Stephens, F. J. Devlin, C. F. Chabalowski, and M. J. Frisch.,  J. Phys. Chem. 98, 11623 (1994) (10.1021/j100096a001)

    Deriv               =              1
    GGA                 =           TRUE
    Meta                =          FALSE

    Exchange Hybrid     =           TRUE
    MP2 Hybrid          =          FALSE

   => Exchange Functionals <=

    0.0800   Slater exchange
    0.7200         Becke 88

   => Exact (HF) Exchange <=

    0.2000               HF 

   => Correlation Functionals <=

    0.1900   Vosko, Wilk & Nusair (VWN5_RPA)
    0.8100   Lee, Yang & Parr

   => LibXC Density Thresholds  <==

    XC_HYB_GGA_XC_B3LYP:  1.00E-15 

   => Molecular Quadrature <=

    Radial Scheme          =       TREUTLER
    Pruning Scheme         =           NONE
    Nuclear Scheme         =       TREUTLER

    Blocking Scheme        =         OCTREE
    BS radius alpha        =              1
    Pruning alpha          =              1
    Radial Points          =             75
    Spherical Points       =            302
    Total Points           =          42559
    Total Blocks           =            401
    Max Points             =            253
    Max Functions          =             36
    Weights Tolerance      =       1.00E-15


  -Total Gradient:
     Atom            X                  Y                   Z
    ------   -----------------  -----------------  -----------------
       1        0.000000000000    -0.000000000000    -2.360031482708
       2        0.000000000000    -0.000000000000     2.360087648664


*** tstop() called on Joses-MacBook-Pro-2.local at Wed Jul 16 20:08:59 2025
Module time:
	user time   =       2.24 seconds =       0.04 minutes
	system time =       1.42 seconds =       0.02 minutes
	total time  =          1 seconds =       0.02 minutes
Total time:
	user time   =      41.87 seconds =       0.70 minutes
	system time =       8.98 seconds =       0.15 minutes
	total time  =          5 seconds =       0.08 minutes

    			-----------------------------------------

    			 OPTKING 3.0: for geometry optimizations 

    			     By R.A. King, Bethel University     

    			        with contributions from          

    			    A.V. Copan, J. Cayton, A. Heide      

    			-----------------------------------------

    
	                            ===> Fragment 1 <== 

	 Z (Atomic Numbers)          Masses                          Geom                  
	      13.000000            26.981539          0.00000000  0.00000000  1.24822321   
	      16.000000            31.972071          0.00000000  0.00000000 -1.05338758   

	 - Coordinate -           - BOHR/RAD -       - ANG/DEG -
	 R(1,2)           =         2.301611           1.217960


	        --- Internal Coordinate Step in ANG or DEG, aJ/ANG or AJ/DEG ---
	-------------------------------------------------------------------------------
	           Coordinate      Previous         Force          Change          New 
	           ----------      --------        ------          ------        ------
	               R(1,2)       1.21796       19.44388        0.04553       1.26349
	-------------------------------------------------------------------------------

	                                 ==> Convergence Check <==                                  
    
	Measures of convergence in internal coordinates in au.
    
	Criteria marked as inactive (o), active & met (*), and active & unmet ( ).

	----------------------------------------------------------------------------------------------
	   Step    Total Energy     Delta E     Max Force     RMS Force      Max Disp      RMS Disp   
	----------------------------------------------------------------------------------------------
	  Convergence Criteria     1.00e-06 *    3.00e-04 *             o    1.20e-03 *             o
	----------------------------------------------------------------------------------------------
	     3    -639.03340501   -5.41e-02      2.36e+00      2.36e+00 o    8.60e-02      8.60e-02 o  ~
	----------------------------------------------------------------------------------------------

Next Geometry in Ang 
	Fragment 1 (Ang)

	   Al   0.0000000000   0.0000000000   0.6832956402
	    S   0.0000000000   0.0000000000  -0.5801930642


    Structure for next step:
    Molecular point group: c2v
    Full point group: C_inf_v

    Geometry (in Angstrom), charge = 0, multiplicity = 6:

    AL           0.000000000000     0.000000000000     0.685222685887
    S            0.000000000000     0.000000000000    -0.578266018489


Scratch directory: /tmp/
gradient() will perform analytic gradient computation.
   => Libint2 <=

    Primary   basis highest AM E, G, H:  6, 6, 3
    Auxiliary basis highest AM E, G, H:  7, 7, 4
    Onebody   basis highest AM E, G, H:  -, -, -
    Solid Harmonics ordering:            Gaussian

*** tstart() called on Joses-MacBook-Pro-2.local
*** at Wed Jul 16 20:08:59 2025

   => Loading Basis Set <=

    Name: CC-PVDZ
    Role: ORBITAL
    Keyword: BASIS
    atoms 1 entry AL         line   418 file /Users/joseantoniorodriguesromero/anaconda3/share/psi4/basis/cc-pvdz.gbs 
    atoms 2 entry S          line   598 file /Users/joseantoniorodriguesromero/anaconda3/share/psi4/basis/cc-pvdz.gbs 


         ---------------------------------------------------------
                                   SCF
               by Justin Turney, Rob Parrish, Andy Simmonett
                          and Daniel G. A. Smith
                              UKS Reference
                        1 Threads,    500 MiB Core
         ---------------------------------------------------------

  ==> Geometry <==

    Molecular point group: c2v
    Full point group: C_inf_v

    Geometry (in Angstrom), charge = 0, multiplicity = 6:

       Center              X                  Y                   Z               Mass       
    ------------   -----------------  -----------------  -----------------  -----------------
         AL           0.000000000000     0.000000000000     0.685222685887    26.981538530000
         S            0.000000000000     0.000000000000    -0.578266018489    31.972071174400

  Running in c2v symmetry.

  Rotational constants: A = ************  B =      0.72165  C =      0.72165 [cm^-1]
  Rotational constants: A = ************  B =  21634.52640  C =  21634.52640 [MHz]
  Nuclear repulsion =   87.115032717062832

  Charge       = 0
  Multiplicity = 6
  Electrons    = 29
  Nalpha       = 17
  Nbeta        = 12

  ==> Algorithm <==

  SCF Algorithm Type is DF.
  DIIS enabled.
  MOM disabled.
  Fractional occupation disabled.
  Guess Type is READ.
  Energy threshold   = 1.00e-08
  Density threshold  = 1.00e-08
  Integral threshold = 1.00e-12

  ==> Primary Basis <==

  Basis Set: CC-PVDZ
    Blend: CC-PVDZ
    Number of shells: 16
    Number of basis functions: 36
    Number of Cartesian functions: 38
    Spherical Harmonics?: true
    Max angular momentum: 2

  ==> DFT Potential <==

   => LibXC <=

    Version 6.2.2
    S. Lehtola, C. Steigemann, M. J.T. Oliveira, and M. A.L. Marques.,  SoftwareX 7, 1–5 (2018) (10.1016/j.softx.2017.11.002)

   => Composite Functional: B3LYP <= 

    B3LYP Hyb-GGA Exchange-Correlation Functional

    P. J. Stephens, F. J. Devlin, C. F. Chabalowski, and M. J. Frisch.,  J. Phys. Chem. 98, 11623 (1994) (10.1021/j100096a001)

    Deriv               =              1
    GGA                 =           TRUE
    Meta                =          FALSE

    Exchange Hybrid     =           TRUE
    MP2 Hybrid          =          FALSE

   => Exchange Functionals <=

    0.0800   Slater exchange
    0.7200         Becke 88

   => Exact (HF) Exchange <=

    0.2000               HF 

   => Correlation Functionals <=

    0.1900   Vosko, Wilk & Nusair (VWN5_RPA)
    0.8100   Lee, Yang & Parr

   => LibXC Density Thresholds  <==

    XC_HYB_GGA_XC_B3LYP:  1.00E-15 

   => Molecular Quadrature <=

    Radial Scheme          =       TREUTLER
    Pruning Scheme         =           NONE
    Nuclear Scheme         =       TREUTLER

    Blocking Scheme        =         OCTREE
    BS radius alpha        =              1
    Pruning alpha          =              1
    Radial Points          =             75
    Spherical Points       =            302
    Total Points           =          42572
    Total Blocks           =            400
    Max Points             =            256
    Max Functions          =             36
    Weights Tolerance      =       1.00E-15

   => Loading Basis Set <=

    Name: (CC-PVDZ AUX)
    Role: JKFIT
    Keyword: DF_BASIS_SCF
    atoms 1 entry AL         line   371 file /Users/joseantoniorodriguesromero/anaconda3/share/psi4/basis/cc-pvdz-jkfit.gbs 
    atoms 2 entry S          line   593 file /Users/joseantoniorodriguesromero/anaconda3/share/psi4/basis/cc-pvdz-jkfit.gbs 

   => Loading Basis Set <=

    Name: CC-PVDZ
    Role: ORBITAL
    Keyword: BASIS
    atoms 1 entry AL         line   418 file /Users/joseantoniorodriguesromero/anaconda3/share/psi4/basis/cc-pvdz.gbs 
    atoms 2 entry S          line   598 file /Users/joseantoniorodriguesromero/anaconda3/share/psi4/basis/cc-pvdz.gbs 

  Reading orbitals from file /tmp/sextet_AlS.default.69478.180.npy, no projection.

  ==> Integral Setup <==

  DFHelper Memory: AOs need 0.003 GiB; user supplied 0.323 GiB. 
  Using in-core AOs.

  ==> MemDFJK: Density-Fitted J/K Matrices <==

    J tasked:                   Yes
    K tasked:                   Yes
    wK tasked:                   No
    OpenMP threads:               1
    Memory [MiB]:               330
    Algorithm:                 Core
    Schwarz Cutoff:           1E-12
    Mask sparsity (%):       0.0000
    Fitting Condition:        1E-10

   => Auxiliary Basis Set <=

  Basis Set: (CC-PVDZ AUX)
    Blend: CC-PVDZ-JKFIT
    Number of shells: 72
    Number of basis functions: 224
    Number of Cartesian functions: 260
    Spherical Harmonics?: true
    Max angular momentum: 3

  Cached 100.0% of DFT collocation blocks in 0.043 [GiB].

  Minimum eigenvalue in the overlap matrix is 4.6162166547E-03.
  Reciprocal condition number of the overlap matrix is 1.4648607701E-03.
    Using symmetric orthogonalization.

  ==> Pre-Iterations <==

  SCF Guess: Orbitals guess was supplied from a previous computation.

   -------------------------------------------------------
    Irrep   Nso     Nmo     Nalpha   Nbeta   Ndocc  Nsocc
   -------------------------------------------------------
     A1        18      18       9       7       7       2
     A2         2       2       0       0       0       0
     B1         8       8       4       3       3       1
     B2         8       8       4       2       2       2
   -------------------------------------------------------
    Total      36      36      17      12      12       5
   -------------------------------------------------------

  ==> Iterations <==

                           Total Energy        Delta E     RMS |[F,P]|

   @DF-UKS iter   0:  -639.21563486213574   -6.39216e+02   1.62578e-02 
   @DF-UKS iter   1:  -639.22117790904088   -5.54305e-03   1.79579e-03 DIIS/ADIIS
   @DF-UKS iter   2:  -639.22189946566914   -7.21557e-04   1.39457e-03 DIIS/ADIIS/DAMP=1%
   @DF-UKS iter   3:  -639.22515247358569   -3.25301e-03   6.60641e-05 DIIS/DAMP=1%
   @DF-UKS iter   4:  -639.22262975280728    2.52272e-03   2.38548e-05 DIIS/DAMP=1%
   @DF-UKS iter   5:  -639.22257258334116    5.71695e-05   8.04411e-06 DIIS/DAMP=1%
   @DF-UKS iter   6:  -639.22255065360457    2.19297e-05   9.73540e-07 DIIS/DAMP=1%
   @DF-UKS iter   7:  -639.22254874907162    1.90453e-06   1.57678e-07 DIIS/DAMP=1%
   @DF-UKS iter   8:  -639.22254956895563   -8.19884e-07   1.94165e-08 DIIS/DAMP=1%
   @DF-UKS iter   9:  -639.22254961850479   -4.95492e-08   1.73568e-09 DIIS/DAMP=1%
   @DF-UKS iter  10:  -639.22254959133556    2.71692e-08   1.76393e-10 DIIS/DAMP=1%
   @DF-UKS iter  11:  -639.22254959444717   -3.11161e-09   2.85096e-11 DIIS/DAMP=1%
  Energy and wave function converged.


  ==> Post-Iterations <==

   Electrons on quadrature grid:
      Nalpha   =   16.9999993623 ; deviation = -6.377e-07
      Nbeta    =   11.9999990176 ; deviation = -9.824e-07
      Ntotal   =   28.9999983799 ; deviation = -1.620e-06 

   @Spin Contamination Metric:   3.230593624E-03
   @S^2 Expected:                8.750000000E+00
   @S^2 Observed:                8.753230594E+00
   @S   Expected:                2.500000000E+00
   @S   Observed:                2.500000000E+00

    Orbital Energies [Eh]
    ---------------------

    Alpha Occupied:                                                       

       1A1   -89.075496     2A1   -56.150079     3A1    -8.188823  
       4A1    -6.172853     1B2    -6.143433     1B1    -6.122027  
       5A1    -4.326756     6A1    -2.908426     2B2    -2.845791  
       2B1    -2.839429     7A1    -0.930456     3B2    -0.553149  
       8A1    -0.509557     3B1    -0.501187     9A1    -0.235664  
       4B2    -0.110405     4B1    -0.093789  

    Alpha Virtual:                                                        

      10A1     0.015509     5B2     0.080916     5B1     0.101000  
      11A1     0.132050     1A2     0.132286    12A1     0.168970  
      13A1     0.240917     6B2     0.260709     6B1     0.272073  
      14A1     0.302122     7B2     0.439864     7B1     0.466911  
      15A1     0.521035     2A2     0.522207    16A1     0.556585  
       8B2     0.773253     8B1     0.797632    17A1     0.931151  
      18A1     1.324061  

    Beta Occupied:                                                        

       1A1   -89.060335     2A1   -56.137404     3A1    -8.173159  
       4A1    -6.144787     1B2    -6.115453     1B1    -6.110504  
       5A1    -4.309481     6A1    -2.886642     2B2    -2.825322  
       2B1    -2.823895     7A1    -0.822078     3B1    -0.456031  

    Beta Virtual:                                                         

       3B2    -0.369722     8A1    -0.318238     9A1    -0.076209  
       4B1     0.028143     4B2     0.031043    10A1     0.042769  
       5B1     0.143655     5B2     0.145838     1A2     0.208215  
      11A1     0.212074    12A1     0.224255    13A1     0.296285  
       6B1     0.352948     6B2     0.353677    14A1     0.376120  
       7B1     0.507260     7B2     0.508335     2A2     0.605525  
      15A1     0.610164    16A1     0.616738     8B1     0.864976  
       8B2     0.866336    17A1     0.998197    18A1     1.367518  

    Final Occupation by Irrep:
             A1    A2    B1    B2 
    DOCC [     7,    0,    3,    2 ]
    SOCC [     2,    0,    1,    2 ]
    NA   [     9,    0,    4,    4 ]
    NB   [     7,    0,    3,    2 ]

  @DF-UKS Final Energy:  -639.22254959444717

   => Energetics <=

    Nuclear Repulsion Energy =             87.1150327170628316
    One-Electron Energy =               -1053.4648124526838728
    Two-Electron Energy =                 363.1566181140523213
    DFT Exchange-Correlation Energy =     -36.0293879728784958
    Empirical Dispersion Energy =           0.0000000000000000
    VV10 Nonlocal Energy =                  0.0000000000000000
    Total Energy =                       -639.2225495944471731

  UHF NO Occupations:
  HONO-2 :    4 B2 1.0000000
  HONO-1 :    4 B1 1.0000000
  HONO-0 :    9 A1 1.0000000
  LUNO+0 :   10 A1 0.0010520
  LUNO+1 :    5 B1 0.0005625
  LUNO+2 :   11 A1 0.0000005
  LUNO+3 :    5 B2 0.0000004


Computation Completed


Properties will be evaluated at   0.000000,   0.000000,   0.000000 [a0]

Properties computed using the SCF density matrix


 Multipole Moments:

 ------------------------------------------------------------------------------------
     Multipole            Electronic (a.u.)      Nuclear  (a.u.)        Total (a.u.)
 ------------------------------------------------------------------------------------

 L = 1.  Multiply by 2.5417464519 to convert [e a0] to [Debye]
 Dipole X            :          0.0000000            0.0000000            0.0000000
 Dipole Y            :          0.0000000            0.0000000            0.0000000
 Dipole Z            :         -1.4998340           -0.6507487           -2.1505827
 Magnitude           :                                                    2.1505827

 ------------------------------------------------------------------------------------

*** tstop() called on Joses-MacBook-Pro-2.local at Wed Jul 16 20:09:00 2025
Module time:
	user time   =      10.19 seconds =       0.17 minutes
	system time =       1.89 seconds =       0.03 minutes
	total time  =          1 seconds =       0.02 minutes
Total time:
	user time   =      52.37 seconds =       0.87 minutes
	system time =      10.87 seconds =       0.18 minutes
	total time  =          6 seconds =       0.10 minutes

*** tstart() called on Joses-MacBook-Pro-2.local
*** at Wed Jul 16 20:09:00 2025


         ------------------------------------------------------------
                                   SCF GRAD                          
                          Rob Parrish, Justin Turney,                
                       Andy Simmonett, and Alex Sokolov              
         ------------------------------------------------------------

  ==> Geometry <==

    Molecular point group: c2v
    Full point group: C_inf_v

    Geometry (in Angstrom), charge = 0, multiplicity = 6:

       Center              X                  Y                   Z               Mass       
    ------------   -----------------  -----------------  -----------------  -----------------
         AL           0.000000000000     0.000000000000     0.685222685887    26.981538530000
         S            0.000000000000     0.000000000000    -0.578266018489    31.972071174400

  Nuclear repulsion =   87.115032717062832

  ==> Basis Set <==

  Basis Set: CC-PVDZ
    Blend: CC-PVDZ
    Number of shells: 16
    Number of basis functions: 36
    Number of Cartesian functions: 38
    Spherical Harmonics?: true
    Max angular momentum: 2

  ==> DFJKGrad: Density-Fitted SCF Gradients <==

    Gradient:                    1
    J tasked:                  Yes
    K tasked:                  Yes
    wK tasked:                  No
    OpenMP threads:              1
    Integrals threads:           1
    Memory [MiB]:              375
    Schwarz Cutoff:          1E-12
    Fitting Condition:       1E-10

   => Auxiliary Basis Set <=

  Basis Set: (CC-PVDZ AUX)
    Blend: CC-PVDZ-JKFIT
    Number of shells: 72
    Number of basis functions: 224
    Number of Cartesian functions: 260
    Spherical Harmonics?: true
    Max angular momentum: 3

  ==> DFT Potential <==

   => LibXC <=

    Version 6.2.2
    S. Lehtola, C. Steigemann, M. J.T. Oliveira, and M. A.L. Marques.,  SoftwareX 7, 1–5 (2018) (10.1016/j.softx.2017.11.002)

   => Composite Functional: B3LYP <= 

    B3LYP Hyb-GGA Exchange-Correlation Functional

    P. J. Stephens, F. J. Devlin, C. F. Chabalowski, and M. J. Frisch.,  J. Phys. Chem. 98, 11623 (1994) (10.1021/j100096a001)

    Deriv               =              1
    GGA                 =           TRUE
    Meta                =          FALSE

    Exchange Hybrid     =           TRUE
    MP2 Hybrid          =          FALSE

   => Exchange Functionals <=

    0.0800   Slater exchange
    0.7200         Becke 88

   => Exact (HF) Exchange <=

    0.2000               HF 

   => Correlation Functionals <=

    0.1900   Vosko, Wilk & Nusair (VWN5_RPA)
    0.8100   Lee, Yang & Parr

   => LibXC Density Thresholds  <==

    XC_HYB_GGA_XC_B3LYP:  1.00E-15 

   => Molecular Quadrature <=

    Radial Scheme          =       TREUTLER
    Pruning Scheme         =           NONE
    Nuclear Scheme         =       TREUTLER

    Blocking Scheme        =         OCTREE
    BS radius alpha        =              1
    Pruning alpha          =              1
    Radial Points          =             75
    Spherical Points       =            302
    Total Points           =          42572
    Total Blocks           =            400
    Max Points             =            256
    Max Functions          =             36
    Weights Tolerance      =       1.00E-15


  -Total Gradient:
     Atom            X                  Y                   Z
    ------   -----------------  -----------------  -----------------
       1        0.000000000000    -0.000000000000    -2.043226864939
       2        0.000000000000    -0.000000000000     2.043238669797


*** tstop() called on Joses-MacBook-Pro-2.local at Wed Jul 16 20:09:00 2025
Module time:
	user time   =       2.66 seconds =       0.04 minutes
	system time =       0.88 seconds =       0.01 minutes
	total time  =          0 seconds =       0.00 minutes
Total time:
	user time   =      55.04 seconds =       0.92 minutes
	system time =      11.76 seconds =       0.20 minutes
	total time  =          6 seconds =       0.10 minutes

    			-----------------------------------------

    			 OPTKING 3.0: for geometry optimizations 

    			     By R.A. King, Bethel University     

    			        with contributions from          

    			    A.V. Copan, J. Cayton, A. Heide      

    			-----------------------------------------

    
	                            ===> Fragment 1 <== 

	 Z (Atomic Numbers)          Masses                          Geom                  
	      13.000000            26.981539          0.00000000  0.00000000  1.29488321   
	      16.000000            31.972071          0.00000000  0.00000000 -1.09276440   

	 - Coordinate -           - BOHR/RAD -       - ANG/DEG -
	 R(1,2)           =         2.387648           1.263489


	        --- Internal Coordinate Step in ANG or DEG, aJ/ANG or AJ/DEG ---
	-------------------------------------------------------------------------------
	           Coordinate      Previous         Force          Change          New 
	           ----------      --------        ------          ------        ------
	               R(1,2)       1.26349       16.83363        0.23149       1.49497
	-------------------------------------------------------------------------------

	                                 ==> Convergence Check <==                                  
    
	Measures of convergence in internal coordinates in au.
    
	Criteria marked as inactive (o), active & met (*), and active & unmet ( ).

	----------------------------------------------------------------------------------------------
	   Step    Total Energy     Delta E     Max Force     RMS Force      Max Disp      RMS Disp   
	----------------------------------------------------------------------------------------------
	  Convergence Criteria     1.00e-06 *    3.00e-04 *             o    1.20e-03 *             o
	----------------------------------------------------------------------------------------------
	     4    -639.22254959   -1.89e-01      2.04e+00      2.04e+00 o    4.37e-01      4.37e-01 o  ~
	----------------------------------------------------------------------------------------------

Next Geometry in Ang 
	Fragment 1 (Ang)

	   Al   0.0000000000   0.0000000000   0.8009652364
	    S   0.0000000000   0.0000000000  -0.6940085690


    Structure for next step:
    Molecular point group: c2v
    Full point group: C_inf_v

    Geometry (in Angstrom), charge = 0, multiplicity = 6:

    AL           0.000000000000     0.000000000000     0.810763058429
    S            0.000000000000     0.000000000000    -0.684210746948


Scratch directory: /tmp/
gradient() will perform analytic gradient computation.
   => Libint2 <=

    Primary   basis highest AM E, G, H:  6, 6, 3
    Auxiliary basis highest AM E, G, H:  7, 7, 4
    Onebody   basis highest AM E, G, H:  -, -, -
    Solid Harmonics ordering:            Gaussian

*** tstart() called on Joses-MacBook-Pro-2.local
*** at Wed Jul 16 20:09:00 2025

   => Loading Basis Set <=

    Name: CC-PVDZ
    Role: ORBITAL
    Keyword: BASIS
    atoms 1 entry AL         line   418 file /Users/joseantoniorodriguesromero/anaconda3/share/psi4/basis/cc-pvdz.gbs 
    atoms 2 entry S          line   598 file /Users/joseantoniorodriguesromero/anaconda3/share/psi4/basis/cc-pvdz.gbs 


         ---------------------------------------------------------
                                   SCF
               by Justin Turney, Rob Parrish, Andy Simmonett
                          and Daniel G. A. Smith
                              UKS Reference
                        1 Threads,    500 MiB Core
         ---------------------------------------------------------

  ==> Geometry <==

    Molecular point group: c2v
    Full point group: C_inf_v

    Geometry (in Angstrom), charge = 0, multiplicity = 6:

       Center              X                  Y                   Z               Mass       
    ------------   -----------------  -----------------  -----------------  -----------------
         AL           0.000000000000     0.000000000000     0.810763058429    26.981538530000
         S            0.000000000000     0.000000000000    -0.684210746948    31.972071174400

  Running in c2v symmetry.

  Rotational constants: A = ************  B =      0.51547  C =      0.51547 [cm^-1]
  Rotational constants: A = ************  B =  15453.36113  C =  15453.36113 [MHz]
  Nuclear repulsion =   73.625945433587191

  Charge       = 0
  Multiplicity = 6
  Electrons    = 29
  Nalpha       = 17
  Nbeta        = 12

  ==> Algorithm <==

  SCF Algorithm Type is DF.
  DIIS enabled.
  MOM disabled.
  Fractional occupation disabled.
  Guess Type is READ.
[...]
	-------------------------------------------------------------------------------

	                                 ==> Convergence Check <==                                  
    
	Measures of convergence in internal coordinates in au.
    
	Criteria marked as inactive (o), active & met (*), and active & unmet ( ).

	----------------------------------------------------------------------------------------------
	   Step    Total Energy     Delta E     Max Force     RMS Force      Max Disp      RMS Disp   
	----------------------------------------------------------------------------------------------
	  Convergence Criteria     1.00e-06 *    3.00e-04 *             o    1.20e-03 *             o
	----------------------------------------------------------------------------------------------
	    21    -640.36765142   -2.22e-07 *    3.00e-04      3.00e-04 o    7.52e-04 *    7.52e-04 o  ~
	----------------------------------------------------------------------------------------------

Next Geometry in Ang 
	Fragment 1 (Ang)

	   Al   0.0000000000   0.0000000000   2.4458530246
	    S   0.0000000000   0.0000000000  -2.0641099599


    Structure for next step:
    Molecular point group: c2v
    Full point group: C_inf_v

    Geometry (in Angstrom), charge = 0, multiplicity = 6:

    AL           0.000000000000     0.000000000000     2.445869867122
    S            0.000000000000     0.000000000000    -2.064093117369


Scratch directory: /tmp/
gradient() will perform analytic gradient computation.
   => Libint2 <=

    Primary   basis highest AM E, G, H:  6, 6, 3
    Auxiliary basis highest AM E, G, H:  7, 7, 4
    Onebody   basis highest AM E, G, H:  -, -, -
    Solid Harmonics ordering:            Gaussian

*** tstart() called on Joses-MacBook-Pro-2.local
*** at Wed Jul 16 20:09:22 2025

   => Loading Basis Set <=

    Name: CC-PVDZ
    Role: ORBITAL
    Keyword: BASIS
    atoms 1 entry AL         line   418 file /Users/joseantoniorodriguesromero/anaconda3/share/psi4/basis/cc-pvdz.gbs 
    atoms 2 entry S          line   598 file /Users/joseantoniorodriguesromero/anaconda3/share/psi4/basis/cc-pvdz.gbs 


         ---------------------------------------------------------
                                   SCF
               by Justin Turney, Rob Parrish, Andy Simmonett
                          and Daniel G. A. Smith
                              UKS Reference
                        1 Threads,    500 MiB Core
         ---------------------------------------------------------

  ==> Geometry <==

    Molecular point group: c2v
    Full point group: C_inf_v

    Geometry (in Angstrom), charge = 0, multiplicity = 6:

       Center              X                  Y                   Z               Mass       
    ------------   -----------------  -----------------  -----------------  -----------------
         AL           0.000000000000     0.000000000000     2.445869867122    26.981538530000
         S            0.000000000000     0.000000000000    -2.064093117369    31.972071174400

  Running in c2v symmetry.

  Rotational constants: A = ************  B =      0.05664  C =      0.05664 [cm^-1]
  Rotational constants: A = ************  B =   1698.02533  C =   1698.02533 [MHz]
  Nuclear repulsion =   24.405712463241830

  Charge       = 0
  Multiplicity = 6
  Electrons    = 29
  Nalpha       = 17
  Nbeta        = 12

  ==> Algorithm <==

  SCF Algorithm Type is DF.
  DIIS enabled.
  MOM disabled.
  Fractional occupation disabled.
  Guess Type is READ.
  Energy threshold   = 1.00e-08
  Density threshold  = 1.00e-08
  Integral threshold = 1.00e-12

  ==> Primary Basis <==

  Basis Set: CC-PVDZ
    Blend: CC-PVDZ
    Number of shells: 16
    Number of basis functions: 36
    Number of Cartesian functions: 38
    Spherical Harmonics?: true
    Max angular momentum: 2

  ==> DFT Potential <==

   => LibXC <=

    Version 6.2.2
    S. Lehtola, C. Steigemann, M. J.T. Oliveira, and M. A.L. Marques.,  SoftwareX 7, 1–5 (2018) (10.1016/j.softx.2017.11.002)

   => Composite Functional: B3LYP <= 

    B3LYP Hyb-GGA Exchange-Correlation Functional

    P. J. Stephens, F. J. Devlin, C. F. Chabalowski, and M. J. Frisch.,  J. Phys. Chem. 98, 11623 (1994) (10.1021/j100096a001)

    Deriv               =              1
    GGA                 =           TRUE
    Meta                =          FALSE

    Exchange Hybrid     =           TRUE
    MP2 Hybrid          =          FALSE

   => Exchange Functionals <=

    0.0800   Slater exchange
    0.7200         Becke 88

   => Exact (HF) Exchange <=

    0.2000               HF 

   => Correlation Functionals <=

    0.1900   Vosko, Wilk & Nusair (VWN5_RPA)
    0.8100   Lee, Yang & Parr

   => LibXC Density Thresholds  <==

    XC_HYB_GGA_XC_B3LYP:  1.00E-15 

   => Molecular Quadrature <=

    Radial Scheme          =       TREUTLER
    Pruning Scheme         =           NONE
    Nuclear Scheme         =       TREUTLER

    Blocking Scheme        =         OCTREE
    BS radius alpha        =              1
    Pruning alpha          =              1
    Radial Points          =             75
    Spherical Points       =            302
    Total Points           =          42829
    Total Blocks           =            448
    Max Points             =            256
    Max Functions          =             36
    Weights Tolerance      =       1.00E-15

   => Loading Basis Set <=

    Name: (CC-PVDZ AUX)
    Role: JKFIT
    Keyword: DF_BASIS_SCF
    atoms 1 entry AL         line   371 file /Users/joseantoniorodriguesromero/anaconda3/share/psi4/basis/cc-pvdz-jkfit.gbs 
    atoms 2 entry S          line   593 file /Users/joseantoniorodriguesromero/anaconda3/share/psi4/basis/cc-pvdz-jkfit.gbs 

   => Loading Basis Set <=

    Name: CC-PVDZ
    Role: ORBITAL
    Keyword: BASIS
    atoms 1 entry AL         line   418 file /Users/joseantoniorodriguesromero/anaconda3/share/psi4/basis/cc-pvdz.gbs 
    atoms 2 entry S          line   598 file /Users/joseantoniorodriguesromero/anaconda3/share/psi4/basis/cc-pvdz.gbs 

  Reading orbitals from file /tmp/sextet_AlS.default.69478.180.npy, no projection.

  ==> Integral Setup <==

  DFHelper Memory: AOs need 0.003 GiB; user supplied 0.329 GiB. 
  Using in-core AOs.

  ==> MemDFJK: Density-Fitted J/K Matrices <==

    J tasked:                   Yes
    K tasked:                   Yes
    wK tasked:                   No
    OpenMP threads:               1
    Memory [MiB]:               336
    Algorithm:                 Core
    Schwarz Cutoff:           1E-12
    Mask sparsity (%):       0.0000
    Fitting Condition:        1E-10

   => Auxiliary Basis Set <=

  Basis Set: (CC-PVDZ AUX)
    Blend: CC-PVDZ-JKFIT
    Number of shells: 72
    Number of basis functions: 224
    Number of Cartesian functions: 260
    Spherical Harmonics?: true
    Max angular momentum: 3

  Cached 100.0% of DFT collocation blocks in 0.037 [GiB].

  Minimum eigenvalue in the overlap matrix is 1.0506895837E-01.
  Reciprocal condition number of the overlap matrix is 5.8074374921E-02.
    Using symmetric orthogonalization.

  ==> Pre-Iterations <==

  SCF Guess: Orbitals guess was supplied from a previous computation.

   -------------------------------------------------------
    Irrep   Nso     Nmo     Nalpha   Nbeta   Ndocc  Nsocc
   -------------------------------------------------------
     A1        18      18       9       7       7       2
     A2         2       2       0       0       0       0
     B1         8       8       4       3       3       1
     B2         8       8       4       2       2       2
   -------------------------------------------------------
    Total      36      36      17      12      12       5
   -------------------------------------------------------

  ==> Iterations <==

                           Total Energy        Delta E     RMS |[F,P]|

   @DF-UKS iter   0:  -640.36764938569945   -6.40368e+02   5.50120e-07 
   @DF-UKS iter   1:  -640.36765163696430   -2.25126e-06   6.91333e-08 DIIS
   @DF-UKS iter   2:  -640.36765163696543   -1.13687e-12   3.77244e-08 DIIS/DAMP=1%
   @DF-UKS iter   3:  -640.36765159791344    3.90520e-08   3.12373e-09 DIIS/DAMP=1%
   @DF-UKS iter   4:  -640.36765163687869   -3.89653e-08   1.26080e-09 DIIS/DAMP=1%
   @DF-UKS iter   5:  -640.36765163748782   -6.09134e-10   4.37396e-10 DIIS/DAMP=1%
  Energy and wave function converged.


  ==> Post-Iterations <==

   Electrons on quadrature grid:
      Nalpha   =   17.0000005933 ; deviation = 5.933e-07
      Nbeta    =   12.0000003954 ; deviation = 3.954e-07
      Ntotal   =   29.0000009887 ; deviation = 9.887e-07 

   @Spin Contamination Metric:   2.238801475E-03
   @S^2 Expected:                8.750000000E+00
   @S^2 Observed:                8.752238801E+00
   @S   Expected:                2.500000000E+00
   @S   Observed:                2.500000000E+00

    Orbital Energies [Eh]
    ---------------------

    Alpha Occupied:                                                       

       1A1   -88.939524     2A1   -56.123247     3A1    -7.997794  
       4A1    -5.967085     1B2    -5.967004     1B1    -5.947201  
       5A1    -4.203316     6A1    -2.758862     2B2    -2.754850  
       2B1    -2.754839     7A1    -0.728946     8A1    -0.373471  
       9A1    -0.338274     3B2    -0.337178     3B1    -0.288622  
       4B2    -0.163379     4B1    -0.163067  

    Alpha Virtual:                                                        

      10A1    -0.105467    11A1     0.139377     5B2     0.187892  
       5B1     0.188498    12A1     0.194972    13A1     0.219555  
       1A2     0.219555     6B2     0.223437     6B1     0.223746  
      14A1     0.228766    15A1     0.442499     7B2     0.449505  
       7B1     0.480298    16A1     0.499198     8B2     0.513561  
      17A1     0.529590     8B1     0.552169     2A2     0.552522  
      18A1     0.569450  

    Beta Occupied:                                                        

       1A1   -88.928745     2A1   -56.114125     3A1    -7.986792  
       4A1    -5.945819     1B2    -5.945601     1B1    -5.940679  
       5A1    -4.190050     6A1    -2.751111     2B2    -2.739665  
       2B1    -2.739640     7A1    -0.636208     3B1    -0.261838  

    Beta Virtual:                                                         

       8A1    -0.213170     9A1    -0.182027     3B2    -0.179688  
      10A1    -0.043450     4B1    -0.019656     4B2    -0.016784  
      11A1     0.187761    12A1     0.225628     5B1     0.248617  
       5B2     0.250708    13A1     0.297924     6B1     0.311621  
       6B2     0.312560     1A2     0.334338    14A1     0.334944  
      15A1     0.482301     7B1     0.493323     7B2     0.499338  
      16A1     0.555692     8B1     0.609131     2A2     0.609801  
      17A1     0.613986     8B2     0.621273    18A1     0.627686  

    Final Occupation by Irrep:
             A1    A2    B1    B2 
    DOCC [     7,    0,    3,    2 ]
    SOCC [     2,    0,    1,    2 ]
    NA   [     9,    0,    4,    4 ]
    NB   [     7,    0,    3,    2 ]

  @DF-UKS Final Energy:  -640.36765163748782

   => Energetics <=

    Nuclear Repulsion Energy =             24.4057124632418301
    One-Electron Energy =                -934.1960374515595049
    Two-Electron Energy =                 305.0430122639411366
    DFT Exchange-Correlation Energy =     -35.6203389131112402
    Empirical Dispersion Energy =           0.0000000000000000
    VV10 Nonlocal Energy =                  0.0000000000000000
    Total Energy =                       -640.3676516374878247

  UHF NO Occupations:
  HONO-2 :    4 B1 1.0000000
  HONO-1 :    9 A1 1.0000000
  HONO-0 :    4 B2 1.0000000
  LUNO+0 :   10 A1 0.0010144
  LUNO+1 :    5 B1 0.0001041
  LUNO+2 :   11 A1 0.0000009
  LUNO+3 :    5 B2 0.0000002


Computation Completed


Properties will be evaluated at   0.000000,   0.000000,   0.000000 [a0]

Properties computed using the SCF density matrix


 Multipole Moments:

 ------------------------------------------------------------------------------------
     Multipole            Electronic (a.u.)      Nuclear  (a.u.)        Total (a.u.)
 ------------------------------------------------------------------------------------

 L = 1.  Multiply by 2.5417464519 to convert [e a0] to [Debye]
 Dipole X            :          0.0000000            0.0000000            0.0000000
 Dipole Y            :          0.0000000            0.0000000            0.0000000
 Dipole Z            :          2.2712832           -2.3228166           -0.0515334
 Magnitude           :                                                    0.0515334

 ------------------------------------------------------------------------------------

*** tstop() called on Joses-MacBook-Pro-2.local at Wed Jul 16 20:09:22 2025
Module time:
	user time   =       3.66 seconds =       0.06 minutes
	system time =       2.38 seconds =       0.04 minutes
	total time  =          0 seconds =       0.00 minutes
Total time:
	user time   =     231.66 seconds =       3.86 minutes
	system time =      71.40 seconds =       1.19 minutes
	total time  =         28 seconds =       0.47 minutes

*** tstart() called on Joses-MacBook-Pro-2.local
*** at Wed Jul 16 20:09:22 2025


         ------------------------------------------------------------
                                   SCF GRAD                          
                          Rob Parrish, Justin Turney,                
                       Andy Simmonett, and Alex Sokolov              
         ------------------------------------------------------------

  ==> Geometry <==

    Molecular point group: c2v
    Full point group: C_inf_v

    Geometry (in Angstrom), charge = 0, multiplicity = 6:

       Center              X                  Y                   Z               Mass       
    ------------   -----------------  -----------------  -----------------  -----------------
         AL           0.000000000000     0.000000000000     2.445869867122    26.981538530000
         S            0.000000000000     0.000000000000    -2.064093117369    31.972071174400

  Nuclear repulsion =   24.405712463241830

  ==> Basis Set <==

  Basis Set: CC-PVDZ
    Blend: CC-PVDZ
    Number of shells: 16
    Number of basis functions: 36
    Number of Cartesian functions: 38
    Spherical Harmonics?: true
    Max angular momentum: 2

  ==> DFJKGrad: Density-Fitted SCF Gradients <==

    Gradient:                    1
    J tasked:                  Yes
    K tasked:                  Yes
    wK tasked:                  No
    OpenMP threads:              1
    Integrals threads:           1
    Memory [MiB]:              375
    Schwarz Cutoff:          1E-12
    Fitting Condition:       1E-10

   => Auxiliary Basis Set <=

  Basis Set: (CC-PVDZ AUX)
    Blend: CC-PVDZ-JKFIT
    Number of shells: 72
    Number of basis functions: 224
    Number of Cartesian functions: 260
    Spherical Harmonics?: true
    Max angular momentum: 3

  ==> DFT Potential <==

   => LibXC <=

    Version 6.2.2
    S. Lehtola, C. Steigemann, M. J.T. Oliveira, and M. A.L. Marques.,  SoftwareX 7, 1–5 (2018) (10.1016/j.softx.2017.11.002)

   => Composite Functional: B3LYP <= 

    B3LYP Hyb-GGA Exchange-Correlation Functional

    P. J. Stephens, F. J. Devlin, C. F. Chabalowski, and M. J. Frisch.,  J. Phys. Chem. 98, 11623 (1994) (10.1021/j100096a001)

    Deriv               =              1
    GGA                 =           TRUE
    Meta                =          FALSE

    Exchange Hybrid     =           TRUE
    MP2 Hybrid          =          FALSE

   => Exchange Functionals <=

    0.0800   Slater exchange
    0.7200         Becke 88

   => Exact (HF) Exchange <=

    0.2000               HF 

   => Correlation Functionals <=

    0.1900   Vosko, Wilk & Nusair (VWN5_RPA)
    0.8100   Lee, Yang & Parr

   => LibXC Density Thresholds  <==

    XC_HYB_GGA_XC_B3LYP:  1.00E-15 

   => Molecular Quadrature <=

    Radial Scheme          =       TREUTLER
    Pruning Scheme         =           NONE
    Nuclear Scheme         =       TREUTLER

    Blocking Scheme        =         OCTREE
    BS radius alpha        =              1
    Pruning alpha          =              1
    Radial Points          =             75
    Spherical Points       =            302
    Total Points           =          42829
    Total Blocks           =            448
    Max Points             =            256
    Max Functions          =             36
    Weights Tolerance      =       1.00E-15


  -Total Gradient:
     Atom            X                  Y                   Z
    ------   -----------------  -----------------  -----------------
       1        0.000000000000     0.000000000000    -0.000297675952
       2        0.000000000000     0.000000000000     0.000302230517


*** tstop() called on Joses-MacBook-Pro-2.local at Wed Jul 16 20:09:23 2025
Module time:
	user time   =       1.61 seconds =       0.03 minutes
	system time =       1.59 seconds =       0.03 minutes
	total time  =          1 seconds =       0.02 minutes
Total time:
	user time   =     233.28 seconds =       3.89 minutes
	system time =      72.99 seconds =       1.22 minutes
	total time  =         29 seconds =       0.48 minutes

    			-----------------------------------------

    			 OPTKING 3.0: for geometry optimizations 

    			     By R.A. King, Bethel University     

    			        with contributions from          

    			    A.V. Copan, J. Cayton, A. Heide      

    			-----------------------------------------

    
	                            ===> Fragment 1 <== 

	 Z (Atomic Numbers)          Masses                          Geom                  
	      13.000000            26.981539          0.00000000  0.00000000  4.62202419   
	      16.000000            31.972071          0.00000000  0.00000000 -3.90057069   

	 - Coordinate -           - BOHR/RAD -       - ANG/DEG -
	 R(1,2)           =         8.522595           4.509963


	        --- Internal Coordinate Step in ANG or DEG, aJ/ANG or AJ/DEG ---
	-------------------------------------------------------------------------------
	           Coordinate      Previous         Force          Change          New 
	           ----------      --------        ------          ------        ------
	               R(1,2)       4.50996        0.00247        0.00040       4.51036
	-------------------------------------------------------------------------------

	                                 ==> Convergence Check <==                                  
    
	Measures of convergence in internal coordinates in au.
    
	Criteria marked as inactive (o), active & met (*), and active & unmet ( ).

	----------------------------------------------------------------------------------------------
	   Step    Total Energy     Delta E     Max Force     RMS Force      Max Disp      RMS Disp   
	----------------------------------------------------------------------------------------------
	  Convergence Criteria     1.00e-06 *    3.00e-04 *             o    1.20e-03 *             o
	----------------------------------------------------------------------------------------------
	    22    -640.36765164   -2.22e-07 *    3.00e-04 *    3.00e-04 o    7.52e-04 *    7.52e-04 o  ~
	----------------------------------------------------------------------------------------------

Next Geometry in Ang 
	Fragment 1 (Ang)

	   Al   0.0000000000   0.0000000000   2.4460687449
	    S   0.0000000000   0.0000000000  -2.0642919952


    Final optimized geometry and variables:
    Molecular point group: c2v
    Full point group: C_inf_v

    Geometry (in Angstrom), charge = 0, multiplicity = 6:

    AL           0.000000000000     0.000000000000     2.445869867122
    S            0.000000000000     0.000000000000    -2.064093117369


    Psi4 stopped on: Wednesday, 16 July 2025 08:09PM
    Psi4 wall time for execution: 0:00:29.64

*** Psi4 exiting successfully. Buy a developer a beer!
