
    -----------------------------------------------------------------------
          Psi4: An Open-Source Ab Initio Electronic Structure Package
                               Psi4 1.9.1 release

                         Git: Rev {} zzzzzzz 


    D. G. A. Smith, L. A. Burns, A. C. Simmonett, R. M. Parrish,
    M. C. Schieber, R. Galvelis, P. Kraus, H. Kruse, R. Di Remigio,
    A. Alenaizan, A. M. James, S. Lehtola, J. P. Misiewicz, M. Scheurer,
    R. A. Shaw, J. B. Schriber, Y. Xie, Z. L. Glick, D. A. Sirianni,
    J. S. O'Brien, J. M. Waldrop, A. Kumar, E. G. Hohenstein,
    B. P. Pritchard, B. R. Brooks, H. F. Schaefer III, A. Yu. Sokolov,
    K. Patkowski, A. E. DePrince III, U. Bozkaya, R. A. King,
    F. A. Evangelista, J. M. Turney, T. D. Crawford, C. D. Sherrill,
    J. Chem. Phys. 152(18) 184108 (2020). https://doi.org/10.1063/5.0006002

                            Additional Code Authors
    E. T. Seidl, C. L. Janssen, E. F. Valeev, M. L. Leininger,
    J. F. Gonthier, R. M. Richard, H. R. McAlexander, M. Saitow, X. Wang,
    P. Verma, M. H. Lechner, A. Jiang, S. Behnle, A. G. Heide,
    M. F. Herbst, and D. L. Poole

             Previous Authors, Complete List of Code Contributors,
                       and Citations for Specific Modules
    https://github.com/psi4/psi4/blob/master/codemeta.json
    https://github.com/psi4/psi4/graphs/contributors
    http://psicode.org/psi4manual/master/introduction.html#citing-psifour

    -----------------------------------------------------------------------


    Psi4 started on: Wednesday, 16 July 2025 06:57PM

    Process ID: 68733
    Host:       Joses-MacBook-Pro-2.local
    PSIDATADIR: /Users/joseantoniorodriguesromero/anaconda3/share/psi4
    Memory:     500.0 MiB
    Threads:    1
    
  ==> Input File <==

--------------------------------------------------------------------------
molecule { 
0 6
B   0.00000        0.60000        0.00000
S   0.00000       -0.60000        0.00000
}

set { 
basis              cc-pvdz
reference          uks
maxiter            500
geom_maxiter       500
DAMPING_PERCENTAGE 1
guess              SAP
}

optimize('b3lyp')
--------------------------------------------------------------------------

Scratch directory: /tmp/
gradient() will perform analytic gradient computation.
   => Libint2 <=

    Primary   basis highest AM E, G, H:  6, 6, 3
    Auxiliary basis highest AM E, G, H:  7, 7, 4
    Onebody   basis highest AM E, G, H:  -, -, -
    Solid Harmonics ordering:            Gaussian

*** tstart() called on Joses-MacBook-Pro-2.local
*** at Wed Jul 16 18:57:02 2025

   => Loading Basis Set <=

    Name: CC-PVDZ
    Role: ORBITAL
    Keyword: BASIS
    atoms 1 entry B          line   108 file /Users/joseantoniorodriguesromero/anaconda3/share/psi4/basis/cc-pvdz.gbs 
    atoms 2 entry S          line   598 file /Users/joseantoniorodriguesromero/anaconda3/share/psi4/basis/cc-pvdz.gbs 


         ---------------------------------------------------------
                                   SCF
               by Justin Turney, Rob Parrish, Andy Simmonett
                          and Daniel G. A. Smith
                              UKS Reference
                        1 Threads,    500 MiB Core
         ---------------------------------------------------------

  ==> Geometry <==

    Molecular point group: c2v
    Full point group: C_inf_v

    Geometry (in Angstrom), charge = 0, multiplicity = 6:

       Center              X                  Y                   Z               Mass       
    ------------   -----------------  -----------------  -----------------  -----------------
         B            0.000000000000     0.000000000000     0.892630448412    11.009305360000
         S            0.000000000000     0.000000000000    -0.307369551588    31.972071174400

  Running in c2v symmetry.

  Rotational constants: A = ************  B =      1.42950  C =      1.42950 [cm^-1]
  Rotational constants: A = ************  B =  42855.28017  C =  42855.28017 [MHz]
  Nuclear repulsion =   35.278480711333337

  Charge       = 0
  Multiplicity = 6
  Electrons    = 21
  Nalpha       = 13
  Nbeta        = 8

  ==> Algorithm <==

  SCF Algorithm Type is DF.
  DIIS enabled.
  MOM disabled.
  Fractional occupation disabled.
  Guess Type is SAP.
  Energy threshold   = 1.00e-08
  Density threshold  = 1.00e-08
  Integral threshold = 1.00e-12

  ==> Primary Basis <==

  Basis Set: CC-PVDZ
    Blend: CC-PVDZ
    Number of shells: 14
    Number of basis functions: 32
    Number of Cartesian functions: 34
    Spherical Harmonics?: true
    Max angular momentum: 2

  ==> DFT Potential <==

   => LibXC <=

    Version 6.2.2
    S. Lehtola, C. Steigemann, M. J.T. Oliveira, and M. A.L. Marques.,  SoftwareX 7, 1–5 (2018) (10.1016/j.softx.2017.11.002)

   => Composite Functional: B3LYP <= 

    B3LYP Hyb-GGA Exchange-Correlation Functional

    P. J. Stephens, F. J. Devlin, C. F. Chabalowski, and M. J. Frisch.,  J. Phys. Chem. 98, 11623 (1994) (10.1021/j100096a001)

    Deriv               =              1
    GGA                 =           TRUE
    Meta                =          FALSE

    Exchange Hybrid     =           TRUE
    MP2 Hybrid          =          FALSE

   => Exchange Functionals <=

    0.0800   Slater exchange
    0.7200         Becke 88

   => Exact (HF) Exchange <=

    0.2000               HF 

   => Correlation Functionals <=

    0.1900   Vosko, Wilk & Nusair (VWN5_RPA)
    0.8100   Lee, Yang & Parr

   => LibXC Density Thresholds  <==

    XC_HYB_GGA_XC_B3LYP:  1.00E-15 

   => Molecular Quadrature <=

    Radial Scheme          =       TREUTLER
    Pruning Scheme         =           NONE
    Nuclear Scheme         =       TREUTLER

    Blocking Scheme        =         OCTREE
    BS radius alpha        =              1
    Pruning alpha          =              1
    Radial Points          =             75
    Spherical Points       =            302
    Total Points           =          41918
    Total Blocks           =            383
    Max Points             =            252
    Max Functions          =             32
    Weights Tolerance      =       1.00E-15

   => Loading Basis Set <=

    Name: (CC-PVDZ AUX)
    Role: JKFIT
    Keyword: DF_BASIS_SCF
    atoms 1 entry B          line    71 file /Users/joseantoniorodriguesromero/anaconda3/share/psi4/basis/cc-pvdz-jkfit.gbs 
    atoms 2 entry S          line   593 file /Users/joseantoniorodriguesromero/anaconda3/share/psi4/basis/cc-pvdz-jkfit.gbs 

  ==> Integral Setup <==

  DFHelper Memory: AOs need 0.002 GiB; user supplied 0.328 GiB. 
  Using in-core AOs.

  ==> MemDFJK: Density-Fitted J/K Matrices <==

    J tasked:                   Yes
    K tasked:                   Yes
    wK tasked:                   No
    OpenMP threads:               1
    Memory [MiB]:               335
    Algorithm:                 Core
    Schwarz Cutoff:           1E-12
    Mask sparsity (%):       0.0000
    Fitting Condition:        1E-10

   => Auxiliary Basis Set <=

  Basis Set: (CC-PVDZ AUX)
    Blend: CC-PVDZ-JKFIT
    Number of shells: 60
    Number of basis functions: 182
    Number of Cartesian functions: 211
    Spherical Harmonics?: true
    Max angular momentum: 3

  Cached 100.0% of DFT collocation blocks in 0.039 [GiB].

  Minimum eigenvalue in the overlap matrix is 7.3653458956E-03.
  Reciprocal condition number of the overlap matrix is 2.2997397409E-03.
    Using symmetric orthogonalization.

  ==> Pre-Iterations <==

  SCF Guess: Superposition of Atomic Potentials (doi:10.1021/acs.jctc.8b01089).

  ==> SAP guess <==

   => Molecular Quadrature <=

    Radial Scheme          =       TREUTLER
    Pruning Scheme         =           NONE
    Nuclear Scheme         =       TREUTLER

    Blocking Scheme        =         OCTREE
    BS radius alpha        =              1
    Pruning alpha          =              1
    Radial Points          =             75
    Spherical Points       =            302
    Total Points           =          41918
    Total Blocks           =            383
    Max Points             =            252
    Max Functions          =             32
    Weights Tolerance      =       1.00E-15

   -------------------------------------------------------
    Irrep   Nso     Nmo     Nalpha   Nbeta   Ndocc  Nsocc
   -------------------------------------------------------
     A1        16      16       7       5       5       2
     A2         2       2       0       0       0       0
     B1         7       7       3       2       2       1
     B2         7       7       3       1       1       2
   -------------------------------------------------------
    Total      32      32      13       8       8       5
   -------------------------------------------------------

  ==> Iterations <==

                           Total Energy        Delta E     RMS |[F,P]|

    Occupation by irrep:
             A1    A2    B1    B2 
    DOCC [     6,    0,    1,    1 ]
    SOCC [     1,    0,    2,    2 ]
    NA   [     7,    0,    3,    3 ]
    NB   [     6,    0,    1,    1 ]

   @DF-UKS iter   1:  -421.74571795986861   -4.21746e+02   3.51347e-02 DIIS/ADIIS
   @DF-UKS iter   2:  -421.80133651488342   -5.56186e-02   3.44485e-02 DIIS/ADIIS/DAMP=1%
   @DF-UKS iter   3:  -422.08735607612527   -2.86020e-01   4.86771e-03 DIIS/ADIIS/DAMP=1%
   @DF-UKS iter   4:  -422.11199670175370   -2.46406e-02   1.10724e-03 DIIS/ADIIS/DAMP=1%
   @DF-UKS iter   5:  -422.11006846417217    1.92824e-03   4.00209e-04 DIIS/ADIIS/DAMP=1%
   @DF-UKS iter   6:  -422.11174655603054   -1.67809e-03   4.66780e-05 DIIS/DAMP=1%
   @DF-UKS iter   7:  -422.11151579166921    2.30764e-04   4.09431e-06 DIIS/DAMP=1%
   @DF-UKS iter   8:  -422.11152032667002   -4.53500e-06   4.58629e-07 DIIS/DAMP=1%
   @DF-UKS iter   9:  -422.11151965599896    6.70671e-07   9.99973e-08 DIIS/DAMP=1%
   @DF-UKS iter  10:  -422.11151983244878   -1.76450e-07   5.98675e-09 DIIS/DAMP=1%
   @DF-UKS iter  11:  -422.11151982031606    1.21327e-08   1.01319e-09 DIIS/DAMP=1%
   @DF-UKS iter  12:  -422.11151982024245    7.36122e-11   6.89412e-11 DIIS/DAMP=1%
  Energy and wave function converged.


  ==> Post-Iterations <==

   Electrons on quadrature grid:
      Nalpha   =   12.9999993394 ; deviation = -6.606e-07
      Nbeta    =    7.9999994380 ; deviation = -5.620e-07
      Ntotal   =   20.9999987774 ; deviation = -1.223e-06 

   @Spin Contamination Metric:   4.154746966E-03
   @S^2 Expected:                8.750000000E+00
   @S^2 Observed:                8.754154747E+00
   @S   Expected:                2.500000000E+00
   @S   Observed:                2.500000000E+00

    Orbital Energies [Eh]
    ---------------------

    Alpha Occupied:                                                       

       1A1   -89.003797     2A1    -8.088896     3A1    -6.766946  
       1B2    -6.049799     1B1    -6.049799     4A1    -6.045022  
       5A1    -0.947539     2B1    -0.499309     2B2    -0.499309  
       6A1    -0.490320     7A1    -0.269572     3B2    -0.111577  
       3B1    -0.111577  

    Alpha Virtual:                                                        

       8A1     0.128549     4B1     0.188094     4B2     0.188094  
       9A1     0.234139    10A1     0.327871     1A2     0.366099  
      11A1     0.366100     5B1     0.473128     5B2     0.473128  
      12A1     0.567170     6B2     0.631125     6B1     0.631125  
       2A2     0.786575    13A1     0.786575    14A1     0.790382  
      15A1     1.191373     7B1     1.253510     7B2     1.253510  
      16A1     2.386787  

    Beta Occupied:                                                        

       1A1   -88.991427     2A1    -8.075994     3A1    -6.734302  
       4A1    -6.036616     1B2    -6.025705     1B1    -6.025705  
       5A1    -0.833131     6A1    -0.409585  

    Beta Virtual:                                                         

       2B2    -0.306371     2B1    -0.306371     7A1    -0.054983  
       3B2     0.058979     3B1     0.058979     8A1     0.150311  
       4B2     0.242941     4B1     0.242941     9A1     0.279365  
      10A1     0.427524    11A1     0.480560     1A2     0.480561  
       5B2     0.545675     5B1     0.545675    12A1     0.626085  
       6B2     0.741986     6B1     0.741986    13A1     0.866775  
       2A2     0.900687    14A1     0.900687    15A1     1.263108  
       7B2     1.349268     7B1     1.349268    16A1     2.446245  

    Final Occupation by Irrep:
             A1    A2    B1    B2 
    DOCC [     6,    0,    1,    1 ]
    SOCC [     1,    0,    2,    2 ]
    NA   [     7,    0,    3,    3 ]
    NB   [     6,    0,    1,    1 ]

  @DF-UKS Final Energy:  -422.11151982024245

   => Energetics <=

    Nuclear Repulsion Energy =             35.2784807113333372
    One-Electron Energy =                -649.4800219545306845
    Two-Electron Energy =                 216.2943333619442967
    DFT Exchange-Correlation Energy =     -24.2043119389894237
    Empirical Dispersion Energy =           0.0000000000000000
    VV10 Nonlocal Energy =                  0.0000000000000000
    Total Energy =                       -422.1115198202424494

  UHF NO Occupations:
  HONO-2 :    7 A1 1.0000000
  HONO-1 :    3 B2 1.0000000
  HONO-0 :    3 B1 1.0000000
  LUNO+0 :    8 A1 0.0019155
  LUNO+1 :    9 A1 0.0001633
  LUNO+2 :   10 A1 0.0000004
  LUNO+3 :   11 A1 0.0000001


Computation Completed


Properties will be evaluated at   0.000000,   0.000000,   0.000000 [a0]

Properties computed using the SCF density matrix


 Multipole Moments:

 ------------------------------------------------------------------------------------
     Multipole            Electronic (a.u.)      Nuclear  (a.u.)        Total (a.u.)
 ------------------------------------------------------------------------------------

 L = 1.  Multiply by 2.5417464519 to convert [e a0] to [Debye]
 Dipole X            :          0.0000000            0.0000000            0.0000000
 Dipole Y            :          0.0000000            0.0000000            0.0000000
 Dipole Z            :          0.0478928           -0.8593730           -0.8114801
 Magnitude           :                                                    0.8114801

 ------------------------------------------------------------------------------------

*** tstop() called on Joses-MacBook-Pro-2.local at Wed Jul 16 18:57:03 2025
Module time:
	user time   =       4.86 seconds =       0.08 minutes
	system time =       5.25 seconds =       0.09 minutes
	total time  =          1 seconds =       0.02 minutes
Total time:
	user time   =       4.86 seconds =       0.08 minutes
	system time =       5.25 seconds =       0.09 minutes
	total time  =          1 seconds =       0.02 minutes

*** tstart() called on Joses-MacBook-Pro-2.local
*** at Wed Jul 16 18:57:03 2025


         ------------------------------------------------------------
                                   SCF GRAD                          
                          Rob Parrish, Justin Turney,                
                       Andy Simmonett, and Alex Sokolov              
         ------------------------------------------------------------

  ==> Geometry <==

    Molecular point group: c2v
    Full point group: C_inf_v

    Geometry (in Angstrom), charge = 0, multiplicity = 6:

       Center              X                  Y                   Z               Mass       
    ------------   -----------------  -----------------  -----------------  -----------------
         B            0.000000000000     0.000000000000     0.892630448412    11.009305360000
         S            0.000000000000     0.000000000000    -0.307369551588    31.972071174400

  Nuclear repulsion =   35.278480711333337

  ==> Basis Set <==

  Basis Set: CC-PVDZ
    Blend: CC-PVDZ
    Number of shells: 14
    Number of basis functions: 32
    Number of Cartesian functions: 34
    Spherical Harmonics?: true
    Max angular momentum: 2

  ==> DFJKGrad: Density-Fitted SCF Gradients <==

    Gradient:                    1
    J tasked:                  Yes
    K tasked:                  Yes
    wK tasked:                  No
    OpenMP threads:              1
    Integrals threads:           1
    Memory [MiB]:              375
    Schwarz Cutoff:          1E-12
    Fitting Condition:       1E-10

   => Auxiliary Basis Set <=

  Basis Set: (CC-PVDZ AUX)
    Blend: CC-PVDZ-JKFIT
    Number of shells: 60
    Number of basis functions: 182
    Number of Cartesian functions: 211
    Spherical Harmonics?: true
    Max angular momentum: 3

  ==> DFT Potential <==

   => LibXC <=

    Version 6.2.2
    S. Lehtola, C. Steigemann, M. J.T. Oliveira, and M. A.L. Marques.,  SoftwareX 7, 1–5 (2018) (10.1016/j.softx.2017.11.002)

   => Composite Functional: B3LYP <= 

    B3LYP Hyb-GGA Exchange-Correlation Functional

    P. J. Stephens, F. J. Devlin, C. F. Chabalowski, and M. J. Frisch.,  J. Phys. Chem. 98, 11623 (1994) (10.1021/j100096a001)

    Deriv               =              1
    GGA                 =           TRUE
    Meta                =          FALSE

    Exchange Hybrid     =           TRUE
    MP2 Hybrid          =          FALSE

   => Exchange Functionals <=

    0.0800   Slater exchange
    0.7200         Becke 88

   => Exact (HF) Exchange <=

    0.2000               HF 

   => Correlation Functionals <=

    0.1900   Vosko, Wilk & Nusair (VWN5_RPA)
    0.8100   Lee, Yang & Parr

   => LibXC Density Thresholds  <==

    XC_HYB_GGA_XC_B3LYP:  1.00E-15 

   => Molecular Quadrature <=

    Radial Scheme          =       TREUTLER
    Pruning Scheme         =           NONE
    Nuclear Scheme         =       TREUTLER

    Blocking Scheme        =         OCTREE
    BS radius alpha        =              1
    Pruning alpha          =              1
    Radial Points          =             75
    Spherical Points       =            302
    Total Points           =          41918
    Total Blocks           =            383
    Max Points             =            252
    Max Functions          =             32
    Weights Tolerance      =       1.00E-15


  -Total Gradient:
     Atom            X                  Y                   Z
    ------   -----------------  -----------------  -----------------
       1        0.000000000000     0.000000000000    -1.462817387108
       2        0.000000000000    -0.000000000000     1.462840052390


*** tstop() called on Joses-MacBook-Pro-2.local at Wed Jul 16 18:57:03 2025
Module time:
	user time   =       1.00 seconds =       0.02 minutes
	system time =       1.44 seconds =       0.02 minutes
	total time  =          0 seconds =       0.00 minutes
Total time:
	user time   =       5.87 seconds =       0.10 minutes
	system time =       6.69 seconds =       0.11 minutes
	total time  =          1 seconds =       0.02 minutes

    			-----------------------------------------

    			 OPTKING 3.0: for geometry optimizations 

    			     By R.A. King, Bethel University     

    			        with contributions from          

    			    A.V. Copan, J. Cayton, A. Heide      

    			-----------------------------------------

    
	                            ===> Fragment 1 <== 

	 Z (Atomic Numbers)          Masses                          Geom                  
	       5.000000            11.009305          0.00000000  0.00000000  1.68682708   
	      16.000000            31.972071          0.00000000  0.00000000 -0.58084427   

	 - Coordinate -           - BOHR/RAD -       - ANG/DEG -
	 R(1,2)           =         2.267671           1.200000


	        --- Internal Coordinate Step in ANG or DEG, aJ/ANG or AJ/DEG ---
	-------------------------------------------------------------------------------
	           Coordinate      Previous         Force          Change          New 
	           ----------      --------        ------          ------        ------
	               R(1,2)       1.20000       12.05184        0.16672       1.36672
	-------------------------------------------------------------------------------

	                                 ==> Convergence Check <==                                  
    
	Measures of convergence in internal coordinates in au.
    
	Criteria marked as inactive (o), active & met (*), and active & unmet ( ).

	----------------------------------------------------------------------------------------------
	   Step    Total Energy     Delta E     Max Force     RMS Force      Max Disp      RMS Disp   
	----------------------------------------------------------------------------------------------
	  Convergence Criteria     1.00e-06 *    3.00e-04 *             o    1.20e-03 *             o
	----------------------------------------------------------------------------------------------
	     1    -422.11151982   -4.22e+02      1.46e+00      1.46e+00 o    3.15e-01      3.15e-01 o  ~
	----------------------------------------------------------------------------------------------

Next Geometry in Ang 
	Fragment 1 (Ang)

	    B   0.0000000000   0.0000000000   0.9759904111
	    S   0.0000000000   0.0000000000  -0.3907295142


    Structure for next step:
    Molecular point group: c2v
    Full point group: C_inf_v

    Geometry (in Angstrom), charge = 0, multiplicity = 6:

    B            0.000000000000     0.000000000000     1.016646516488
    S            0.000000000000     0.000000000000    -0.350073408824


Scratch directory: /tmp/
gradient() will perform analytic gradient computation.
   => Libint2 <=

    Primary   basis highest AM E, G, H:  6, 6, 3
    Auxiliary basis highest AM E, G, H:  7, 7, 4
    Onebody   basis highest AM E, G, H:  -, -, -
    Solid Harmonics ordering:            Gaussian

*** tstart() called on Joses-MacBook-Pro-2.local
*** at Wed Jul 16 18:57:03 2025

   => Loading Basis Set <=

    Name: CC-PVDZ
    Role: ORBITAL
    Keyword: BASIS
    atoms 1 entry B          line   108 file /Users/joseantoniorodriguesromero/anaconda3/share/psi4/basis/cc-pvdz.gbs 
    atoms 2 entry S          line   598 file /Users/joseantoniorodriguesromero/anaconda3/share/psi4/basis/cc-pvdz.gbs 


         ---------------------------------------------------------
                                   SCF
               by Justin Turney, Rob Parrish, Andy Simmonett
                          and Daniel G. A. Smith
                              UKS Reference
                        1 Threads,    500 MiB Core
         ---------------------------------------------------------

  ==> Geometry <==

    Molecular point group: c2v
    Full point group: C_inf_v

    Geometry (in Angstrom), charge = 0, multiplicity = 6:

       Center              X                  Y                   Z               Mass       
    ------------   -----------------  -----------------  -----------------  -----------------
         B            0.000000000000     0.000000000000     1.016646516488    11.009305360000
         S            0.000000000000     0.000000000000    -0.350073408824    31.972071174400

  Running in c2v symmetry.

  Rotational constants: A = ************  B =      1.10201  C =      1.10201 [cm^-1]
  Rotational constants: A = ************  B =  33037.54584  C =  33037.54584 [MHz]
  Nuclear repulsion =   30.975019877553333

  Charge       = 0
  Multiplicity = 6
  Electrons    = 21
  Nalpha       = 13
  Nbeta        = 8

  ==> Algorithm <==

  SCF Algorithm Type is DF.
  DIIS enabled.
  MOM disabled.
  Fractional occupation disabled.
  Guess Type is READ.
  Energy threshold   = 1.00e-08
  Density threshold  = 1.00e-08
  Integral threshold = 1.00e-12

  ==> Primary Basis <==

  Basis Set: CC-PVDZ
    Blend: CC-PVDZ
    Number of shells: 14
    Number of basis functions: 32
    Number of Cartesian functions: 34
    Spherical Harmonics?: true
    Max angular momentum: 2

  ==> DFT Potential <==

   => LibXC <=

    Version 6.2.2
    S. Lehtola, C. Steigemann, M. J.T. Oliveira, and M. A.L. Marques.,  SoftwareX 7, 1–5 (2018) (10.1016/j.softx.2017.11.002)

   => Composite Functional: B3LYP <= 

    B3LYP Hyb-GGA Exchange-Correlation Functional

    P. J. Stephens, F. J. Devlin, C. F. Chabalowski, and M. J. Frisch.,  J. Phys. Chem. 98, 11623 (1994) (10.1021/j100096a001)

    Deriv               =              1
    GGA                 =           TRUE
    Meta                =          FALSE

    Exchange Hybrid     =           TRUE
    MP2 Hybrid          =          FALSE

   => Exchange Functionals <=

    0.0800   Slater exchange
    0.7200         Becke 88

   => Exact (HF) Exchange <=

    0.2000               HF 

   => Correlation Functionals <=

    0.1900   Vosko, Wilk & Nusair (VWN5_RPA)
    0.8100   Lee, Yang & Parr

   => LibXC Density Thresholds  <==

    XC_HYB_GGA_XC_B3LYP:  1.00E-15 

   => Molecular Quadrature <=

    Radial Scheme          =       TREUTLER
    Pruning Scheme         =           NONE
    Nuclear Scheme         =       TREUTLER

    Blocking Scheme        =         OCTREE
    BS radius alpha        =              1
    Pruning alpha          =              1
    Radial Points          =             75
    Spherical Points       =            302
    Total Points           =          41948
    Total Blocks           =            385
    Max Points             =            254
    Max Functions          =             32
    Weights Tolerance      =       1.00E-15

   => Loading Basis Set <=

    Name: (CC-PVDZ AUX)
    Role: JKFIT
    Keyword: DF_BASIS_SCF
    atoms 1 entry B          line    71 file /Users/joseantoniorodriguesromero/anaconda3/share/psi4/basis/cc-pvdz-jkfit.gbs 
    atoms 2 entry S          line   593 file /Users/joseantoniorodriguesromero/anaconda3/share/psi4/basis/cc-pvdz-jkfit.gbs 

   => Loading Basis Set <=

    Name: CC-PVDZ
    Role: ORBITAL
    Keyword: BASIS
    atoms 1 entry B          line   108 file /Users/joseantoniorodriguesromero/anaconda3/share/psi4/basis/cc-pvdz.gbs 
    atoms 2 entry S          line   598 file /Users/joseantoniorodriguesromero/anaconda3/share/psi4/basis/cc-pvdz.gbs 

  Reading orbitals from file /tmp/sextet_BS.default.68733.180.npy, no projection.

  ==> Integral Setup <==

  DFHelper Memory: AOs need 0.002 GiB; user supplied 0.328 GiB. 
  Using in-core AOs.

  ==> MemDFJK: Density-Fitted J/K Matrices <==

    J tasked:                   Yes
    K tasked:                   Yes
    wK tasked:                   No
    OpenMP threads:               1
    Memory [MiB]:               335
    Algorithm:                 Core
    Schwarz Cutoff:           1E-12
    Mask sparsity (%):       0.0000
    Fitting Condition:        1E-10

   => Auxiliary Basis Set <=

  Basis Set: (CC-PVDZ AUX)
    Blend: CC-PVDZ-JKFIT
    Number of shells: 60
    Number of basis functions: 182
    Number of Cartesian functions: 211
    Spherical Harmonics?: true
    Max angular momentum: 3

  Cached 100.0% of DFT collocation blocks in 0.039 [GiB].

  Minimum eigenvalue in the overlap matrix is 9.2909438599E-03.
  Reciprocal condition number of the overlap matrix is 2.9360082529E-03.
    Using symmetric orthogonalization.

  ==> Pre-Iterations <==

  SCF Guess: Orbitals guess was supplied from a previous computation.

   -------------------------------------------------------
    Irrep   Nso     Nmo     Nalpha   Nbeta   Ndocc  Nsocc
   -------------------------------------------------------
     A1        16      16       7       6       6       1
     A2         2       2       0       0       0       0
     B1         7       7       3       1       1       2
     B2         7       7       3       1       1       2
   -------------------------------------------------------
    Total      32      32      13       8       8       5
   -------------------------------------------------------

  ==> Iterations <==

                           Total Energy        Delta E     RMS |[F,P]|

   @DF-UKS iter   0:  -422.54345361609012   -4.22543e+02   5.04006e-02 
   @DF-UKS iter   1:  -422.43052527372475    1.12928e-01   5.87891e-03 DIIS/ADIIS
   @DF-UKS iter   2:  -422.43754780883756   -7.02254e-03   3.68989e-03 DIIS/ADIIS/DAMP=1%
   @DF-UKS iter   3:  -422.44531864654112   -7.77084e-03   2.46204e-04 DIIS/ADIIS/DAMP=1%
   @DF-UKS iter   4:  -422.44165358164236    3.66506e-03   5.58326e-05 DIIS/DAMP=1%
   @DF-UKS iter   5:  -422.44157033552671    8.32461e-05   9.78541e-06 DIIS/DAMP=1%
   @DF-UKS iter   6:  -422.44158685673835   -1.65212e-05   8.25132e-07 DIIS/DAMP=1%
   @DF-UKS iter   7:  -422.44157746768241    9.38906e-06   1.57396e-07 DIIS/DAMP=1%
   @DF-UKS iter   8:  -422.44157843529001   -9.67608e-07   1.04972e-08 DIIS/DAMP=1%
   @DF-UKS iter   9:  -422.44157833361959    1.01670e-07   1.39512e-09 DIIS/DAMP=1%
   @DF-UKS iter  10:  -422.44157833117146    2.44813e-09   1.48306e-10 DIIS/DAMP=1%
  Energy and wave function converged.


  ==> Post-Iterations <==

   Electrons on quadrature grid:
      Nalpha   =   13.0000004287 ; deviation = 4.287e-07
      Nbeta    =    8.0000000525 ; deviation = 5.248e-08
      Ntotal   =   21.0000004812 ; deviation = 4.812e-07 

   @Spin Contamination Metric:   4.077014285E-03
   @S^2 Expected:                8.750000000E+00
   @S^2 Observed:                8.754077014E+00
   @S   Expected:                2.500000000E+00
   @S   Observed:                2.500000000E+00

    Orbital Energies [Eh]
    ---------------------

    Alpha Occupied:                                                       

       1A1   -89.011737     2A1    -8.082448     3A1    -6.738972  
       1B2    -6.047535     1B1    -6.047535     4A1    -6.036467  
       5A1    -0.916609     6A1    -0.507809     2B1    -0.464566  
       2B2    -0.464566     7A1    -0.262862     3B2    -0.125182  
       3B1    -0.125182  

    Alpha Virtual:                                                        

       8A1     0.131006     9A1     0.206123     4B2     0.222181  
       4B1     0.222181    10A1     0.341943    11A1     0.386568  
       1A2     0.386569     5B1     0.447745     5B2     0.447745  
      12A1     0.502390     6B1     0.572289     6B2     0.572289  
      13A1     0.758013     2A2     0.758013    14A1     0.767689  
      15A1     1.097881     7B2     1.150677     7B1     1.150677  
      16A1     1.729288  

    Beta Occupied:                                                        

       1A1   -88.999388     2A1    -8.069636     3A1    -6.707701  
       4A1    -6.028286     1B2    -6.023476     1B1    -6.023476  
       5A1    -0.810508     6A1    -0.431691  

    Beta Virtual:                                                         

       2B2    -0.281839     2B1    -0.281839     7A1    -0.049393  
       3B2     0.046412     3B1     0.046412     8A1     0.155670  
       9A1     0.255610     4B2     0.280481     4B1     0.280481  
      10A1     0.434058     1A2     0.500654    11A1     0.500655  
       5B1     0.520746     5B2     0.520746    12A1     0.565750  
       6B2     0.674776     6B1     0.674776    13A1     0.834450  
       2A2     0.874749    14A1     0.874749    15A1     1.177343  
       7B2     1.248874     7B1     1.248874    16A1     1.785998  

    Final Occupation by Irrep:
             A1    A2    B1    B2 
    DOCC [     6,    0,    1,    1 ]
    SOCC [     1,    0,    2,    2 ]
    NA   [     7,    0,    3,    3 ]
    NB   [     6,    0,    1,    1 ]

  @DF-UKS Final Energy:  -422.44157833117146

   => Energetics <=

    Nuclear Repulsion Energy =             30.9750198775533327
    One-Electron Energy =                -641.7520500205896496
    Two-Electron Energy =                 212.4255746415259694
    DFT Exchange-Correlation Energy =     -24.0901228296611301
    Empirical Dispersion Energy =           0.0000000000000000
    VV10 Nonlocal Energy =                  0.0000000000000000
    Total Energy =                       -422.4415783311715131

  UHF NO Occupations:
  HONO-2 :    2 B1 1.0000000
  HONO-1 :    3 B1 1.0000000
  HONO-0 :    7 A1 1.0000000
  LUNO+0 :    8 A1 0.0018642
  LUNO+1 :    9 A1 0.0001757
  LUNO+2 :   10 A1 0.0000004
  LUNO+3 :   11 A1 0.0000001


Computation Completed


Properties will be evaluated at   0.000000,   0.000000,   0.000000 [a0]

Properties computed using the SCF density matrix


 Multipole Moments:

 ------------------------------------------------------------------------------------
     Multipole            Electronic (a.u.)      Nuclear  (a.u.)        Total (a.u.)
 ------------------------------------------------------------------------------------

 L = 1.  Multiply by 2.5417464519 to convert [e a0] to [Debye]
 Dipole X            :          0.0000000            0.0000000            0.0000000
 Dipole Y            :          0.0000000            0.0000000            0.0000000
 Dipole Z            :         -0.1844719           -0.9787685           -1.1632403
 Magnitude           :                                                    1.1632403

 ------------------------------------------------------------------------------------

*** tstop() called on Joses-MacBook-Pro-2.local at Wed Jul 16 18:57:04 2025
Module time:
	user time   =       5.32 seconds =       0.09 minutes
	system time =       4.08 seconds =       0.07 minutes
	total time  =          1 seconds =       0.02 minutes
Total time:
	user time   =      11.23 seconds =       0.19 minutes
	system time =      10.97 seconds =       0.18 minutes
	total time  =          2 seconds =       0.03 minutes

*** tstart() called on Joses-MacBook-Pro-2.local
*** at Wed Jul 16 18:57:04 2025


         ------------------------------------------------------------
                                   SCF GRAD                          
                          Rob Parrish, Justin Turney,                
                       Andy Simmonett, and Alex Sokolov              
         ------------------------------------------------------------

  ==> Geometry <==

    Molecular point group: c2v
    Full point group: C_inf_v

    Geometry (in Angstrom), charge = 0, multiplicity = 6:

       Center              X                  Y                   Z               Mass       
    ------------   -----------------  -----------------  -----------------  -----------------
         B            0.000000000000     0.000000000000     1.016646516488    11.009305360000
         S            0.000000000000     0.000000000000    -0.350073408824    31.972071174400

  Nuclear repulsion =   30.975019877553333

  ==> Basis Set <==

  Basis Set: CC-PVDZ
    Blend: CC-PVDZ
    Number of shells: 14
    Number of basis functions: 32
    Number of Cartesian functions: 34
    Spherical Harmonics?: true
    Max angular momentum: 2

  ==> DFJKGrad: Density-Fitted SCF Gradients <==

    Gradient:                    1
    J tasked:                  Yes
    K tasked:                  Yes
    wK tasked:                  No
    OpenMP threads:              1
    Integrals threads:           1
    Memory [MiB]:              375
    Schwarz Cutoff:          1E-12
    Fitting Condition:       1E-10

   => Auxiliary Basis Set <=

  Basis Set: (CC-PVDZ AUX)
    Blend: CC-PVDZ-JKFIT
    Number of shells: 60
    Number of basis functions: 182
    Number of Cartesian functions: 211
    Spherical Harmonics?: true
    Max angular momentum: 3

  ==> DFT Potential <==

   => LibXC <=

    Version 6.2.2
    S. Lehtola, C. Steigemann, M. J.T. Oliveira, and M. A.L. Marques.,  SoftwareX 7, 1–5 (2018) (10.1016/j.softx.2017.11.002)

   => Composite Functional: B3LYP <= 

    B3LYP Hyb-GGA Exchange-Correlation Functional

    P. J. Stephens, F. J. Devlin, C. F. Chabalowski, and M. J. Frisch.,  J. Phys. Chem. 98, 11623 (1994) (10.1021/j100096a001)

    Deriv               =              1
    GGA                 =           TRUE
    Meta                =          FALSE

    Exchange Hybrid     =           TRUE
    MP2 Hybrid          =          FALSE

   => Exchange Functionals <=

    0.0800   Slater exchange
    0.7200         Becke 88

   => Exact (HF) Exchange <=

    0.2000               HF 

   => Correlation Functionals <=

    0.1900   Vosko, Wilk & Nusair (VWN5_RPA)
    0.8100   Lee, Yang & Parr

   => LibXC Density Thresholds  <==

    XC_HYB_GGA_XC_B3LYP:  1.00E-15 

   => Molecular Quadrature <=

    Radial Scheme          =       TREUTLER
    Pruning Scheme         =           NONE
    Nuclear Scheme         =       TREUTLER

    Blocking Scheme        =         OCTREE
    BS radius alpha        =              1
    Pruning alpha          =              1
    Radial Points          =             75
    Spherical Points       =            302
    Total Points           =          41948
    Total Blocks           =            385
    Max Points             =            254
    Max Functions          =             32
    Weights Tolerance      =       1.00E-15


  -Total Gradient:
     Atom            X                  Y                   Z
    ------   -----------------  -----------------  -----------------
       1       -0.000000000000     0.000000000000    -0.713818838841
       2        0.000000000000    -0.000000000000     0.713797586585


*** tstop() called on Joses-MacBook-Pro-2.local at Wed Jul 16 18:57:04 2025
Module time:
	user time   =       0.86 seconds =       0.01 minutes
	system time =       1.55 seconds =       0.03 minutes
	total time  =          0 seconds =       0.00 minutes
Total time:
	user time   =      12.09 seconds =       0.20 minutes
	system time =      12.52 seconds =       0.21 minutes
	total time  =          2 seconds =       0.03 minutes

    			-----------------------------------------

    			 OPTKING 3.0: for geometry optimizations 

    			     By R.A. King, Bethel University     

    			        with contributions from          

    			    A.V. Copan, J. Cayton, A. Heide      

    			-----------------------------------------

    
	                            ===> Fragment 1 <== 

	 Z (Atomic Numbers)          Masses                          Geom                  
	       5.000000            11.009305          0.00000000  0.00000000  1.92118348   
	      16.000000            31.972071          0.00000000  0.00000000 -0.66154287   

	 - Coordinate -           - BOHR/RAD -       - ANG/DEG -
	 R(1,2)           =         2.582726           1.366720


	        --- Internal Coordinate Step in ANG or DEG, aJ/ANG or AJ/DEG ---
	-------------------------------------------------------------------------------
	           Coordinate      Previous         Force          Change          New 
	           ----------      --------        ------          ------        ------
	               R(1,2)       1.36672        5.88087        0.14668       1.51340
	-------------------------------------------------------------------------------

	                                 ==> Convergence Check <==                                  
    
	Measures of convergence in internal coordinates in au.
    
	Criteria marked as inactive (o), active & met (*), and active & unmet ( ).

	----------------------------------------------------------------------------------------------
	   Step    Total Energy     Delta E     Max Force     RMS Force      Max Disp      RMS Disp   
	----------------------------------------------------------------------------------------------
	  Convergence Criteria     1.00e-06 *    3.00e-04 *             o    1.20e-03 *             o
	----------------------------------------------------------------------------------------------
	     2    -422.44157833   -3.30e-01      7.14e-01      7.14e-01 o    2.77e-01      2.77e-01 o  ~
	----------------------------------------------------------------------------------------------

Next Geometry in Ang 
	Fragment 1 (Ang)

	    B   0.0000000000   0.0000000000   1.0899844023
	    S   0.0000000000   0.0000000000  -0.4234112946


    Structure for next step:
    Molecular point group: c2v
    Full point group: C_inf_v

    Geometry (in Angstrom), charge = 0, multiplicity = 6:

    B            0.000000000000     0.000000000000     1.125752566333
    S            0.000000000000     0.000000000000    -0.387643130623


Scratch directory: /tmp/
gradient() will perform analytic gradient computation.
   => Libint2 <=

    Primary   basis highest AM E, G, H:  6, 6, 3
    Auxiliary basis highest AM E, G, H:  7, 7, 4
    Onebody   basis highest AM E, G, H:  -, -, -
    Solid Harmonics ordering:            Gaussian

*** tstart() called on Joses-MacBook-Pro-2.local
*** at Wed Jul 16 18:57:04 2025

   => Loading Basis Set <=

    Name: CC-PVDZ
    Role: ORBITAL
    Keyword: BASIS
    atoms 1 entry B          line   108 file /Users/joseantoniorodriguesromero/anaconda3/share/psi4/basis/cc-pvdz.gbs 
    atoms 2 entry S          line   598 file /Users/joseantoniorodriguesromero/anaconda3/share/psi4/basis/cc-pvdz.gbs 


         ---------------------------------------------------------
                                   SCF
               by Justin Turney, Rob Parrish, Andy Simmonett
                          and Daniel G. A. Smith
                              UKS Reference
                        1 Threads,    500 MiB Core
         ---------------------------------------------------------

  ==> Geometry <==

    Molecular point group: c2v
    Full point group: C_inf_v

    Geometry (in Angstrom), charge = 0, multiplicity = 6:

       Center              X                  Y                   Z               Mass       
    ------------   -----------------  -----------------  -----------------  -----------------
         B            0.000000000000     0.000000000000     1.125752566333    11.009305360000
         S            0.000000000000     0.000000000000    -0.387643130623    31.972071174400

  Running in c2v symmetry.

  Rotational constants: A = ************  B =      0.89875  C =      0.89875 [cm^-1]
  Rotational constants: A = ************  B =  26943.98581  C =  26943.98581 [MHz]
  Nuclear repulsion =   27.972972923570563

  Charge       = 0
  Multiplicity = 6
  Electrons    = 21
  Nalpha       = 13
  Nbeta        = 8

  ==> Algorithm <==

  SCF Algorithm Type is DF.
  DIIS enabled.
  MOM disabled.
  Fractional occupation disabled.
  Guess Type is READ.
  Energy threshold   = 1.00e-08
  Density threshold  = 1.00e-08
  Integral threshold = 1.00e-12

  ==> Primary Basis <==

  Basis Set: CC-PVDZ
    Blend: CC-PVDZ
    Number of shells: 14
    Number of basis functions: 32
    Number of Cartesian functions: 34
    Spherical Harmonics?: true
    Max angular momentum: 2

  ==> DFT Potential <==

   => LibXC <=

    Version 6.2.2
    S. Lehtola, C. Steigemann, M. J.T. Oliveira, and M. A.L. Marques.,  SoftwareX 7, 1–5 (2018) (10.1016/j.softx.2017.11.002)

   => Composite Functional: B3LYP <= 

    B3LYP Hyb-GGA Exchange-Correlation Functional

    P. J. Stephens, F. J. Devlin, C. F. Chabalowski, and M. J. Frisch.,  J. Phys. Chem. 98, 11623 (1994) (10.1021/j100096a001)

    Deriv               =              1
    GGA                 =           TRUE
    Meta                =          FALSE

    Exchange Hybrid     =           TRUE
    MP2 Hybrid          =          FALSE

   => Exchange Functionals <=

    0.0800   Slater exchange
    0.7200         Becke 88

   => Exact (HF) Exchange <=

    0.2000               HF 

   => Correlation Functionals <=

    0.1900   Vosko, Wilk & Nusair (VWN5_RPA)
    0.8100   Lee, Yang & Parr

   => LibXC Density Thresholds  <==

    XC_HYB_GGA_XC_B3LYP:  1.00E-15 

   => Molecular Quadrature <=

    Radial Scheme          =       TREUTLER
    Pruning Scheme         =           NONE
    Nuclear Scheme         =       TREUTLER

    Blocking Scheme        =         OCTREE
    BS radius alpha        =              1
    Pruning alpha          =              1
    Radial Points          =             75
    Spherical Points       =            302
    Total Points           =          41964
    Total Blocks           =            381
    Max Points             =            255
    Max Functions          =             32
    Weights Tolerance      =       1.00E-15

   => Loading Basis Set <=

    Name: (CC-PVDZ AUX)
    Role: JKFIT
    Keyword: DF_BASIS_SCF
    atoms 1 entry B          line    71 file /Users/joseantoniorodriguesromero/anaconda3/share/psi4/basis/cc-pvdz-jkfit.gbs 
    atoms 2 entry S          line   593 file /Users/joseantoniorodriguesromero/anaconda3/share/psi4/basis/cc-pvdz-jkfit.gbs 

   => Loading Basis Set <=

    Name: CC-PVDZ
    Role: ORBITAL
    Keyword: BASIS
    atoms 1 entry B          line   108 file /Users/joseantoniorodriguesromero/anaconda3/share/psi4/basis/cc-pvdz.gbs 
    atoms 2 entry S          line   598 file /Users/joseantoniorodriguesromero/anaconda3/share/psi4/basis/cc-pvdz.gbs 

  Reading orbitals from file /tmp/sextet_BS.default.68733.180.npy, no projection.

  ==> Integral Setup <==

  DFHelper Memory: AOs need 0.002 GiB; user supplied 0.328 GiB. 
  Using in-core AOs.

  ==> MemDFJK: Density-Fitted J/K Matrices <==

    J tasked:                   Yes
    K tasked:                   Yes
    wK tasked:                   No
    OpenMP threads:               1
    Memory [MiB]:               335
    Algorithm:                 Core
    Schwarz Cutoff:           1E-12
    Mask sparsity (%):       0.0000
    Fitting Condition:        1E-10

   => Auxiliary Basis Set <=

  Basis Set: (CC-PVDZ AUX)
    Blend: CC-PVDZ-JKFIT
    Number of shells: 60
    Number of basis functions: 182
    Number of Cartesian functions: 211
    Spherical Harmonics?: true
    Max angular momentum: 3

  Cached 100.0% of DFT collocation blocks in 0.039 [GiB].

  Minimum eigenvalue in the overlap matrix is 1.1264315636E-02.
  Reciprocal condition number of the overlap matrix is 3.6168465226E-03.
    Using symmetric orthogonalization.

  ==> Pre-Iterations <==

  SCF Guess: Orbitals guess was supplied from a previous computation.

   -------------------------------------------------------
    Irrep   Nso     Nmo     Nalpha   Nbeta   Ndocc  Nsocc
   -------------------------------------------------------
     A1        16      16       7       6       6       1
     A2         2       2       0       0       0       0
     B1         7       7       3       1       1       2
     B2         7       7       3       1       1       2
   -------------------------------------------------------
    Total      32      32      13       8       8       5
   -------------------------------------------------------

  ==> Iterations <==

                           Total Energy        Delta E     RMS |[F,P]|

   @DF-UKS iter   0:  -422.60597204335392   -4.22606e+02   3.05444e-02 
   @DF-UKS iter   1:  -422.58434239986923    2.16296e-02   2.36359e-03 DIIS/ADIIS
   @DF-UKS iter   2:  -422.58559542599988   -1.25303e-03   1.42137e-03 DIIS/ADIIS/DAMP=1%
   @DF-UKS iter   3:  -422.58739246888905   -1.79704e-03   1.69553e-04 DIIS/ADIIS/DAMP=1%
   @DF-UKS iter   4:  -422.58625413322648    1.13834e-03   2.56582e-05 DIIS/DAMP=1%
   @DF-UKS iter   5:  -422.58620121515725    5.29181e-05   8.24909e-06 DIIS/DAMP=1%
   @DF-UKS iter   6:  -422.58622333865259   -2.21235e-05   7.92991e-07 DIIS/DAMP=1%
   @DF-UKS iter   7:  -422.58621623801730    7.10064e-06   1.28613e-07 DIIS/DAMP=1%
   @DF-UKS iter   8:  -422.58621692597603   -6.87959e-07   9.07219e-09 DIIS/DAMP=1%
   @DF-UKS iter   9:  -422.58621681130580    1.14670e-07   6.94301e-10 DIIS/DAMP=1%
   @DF-UKS iter  10:  -422.58621681568036   -4.37456e-09   6.52599e-11 DIIS/DAMP=1%
  Energy and wave function converged.


  ==> Post-Iterations <==

   Electrons on quadrature grid:
      Nalpha   =   13.0000004516 ; deviation = 4.516e-07
      Nbeta    =    8.0000003024 ; deviation = 3.024e-07
      Ntotal   =   21.0000007539 ; deviation = 7.539e-07 

   @Spin Contamination Metric:   3.851468370E-03
   @S^2 Expected:                8.750000000E+00
   @S^2 Observed:                8.753851468E+00
   @S   Expected:                2.500000000E+00
   @S   Observed:                2.500000000E+00

    Orbital Energies [Eh]
    ---------------------

    Alpha Occupied:                                                       

       1A1   -89.022507     2A1    -8.085808     3A1    -6.737444  
       1B2    -6.052501     1B1    -6.052501     4A1    -6.039165  
       5A1    -0.888102     6A1    -0.510732     2B2    -0.445527  
       2B1    -0.445527     7A1    -0.261674     3B2    -0.133054  
       3B1    -0.133054  

    Alpha Virtual:                                                        

       8A1     0.129958     9A1     0.187155     4B1     0.250319  
       4B2     0.250319    10A1     0.350608    11A1     0.401200  
       1A2     0.401200     5B1     0.427294     5B2     0.427294  
      12A1     0.456885     6B1     0.529850     6B2     0.529850  
      13A1     0.737045    14A1     0.740058     2A2     0.740058  
      15A1     1.039514     7B2     1.080925     7B1     1.080925  
      16A1     1.427264  

    Beta Occupied:                                                        

       1A1   -89.010072     2A1    -8.072941     3A1    -6.706697  
       4A1    -6.030817     1B2    -6.028412     1B1    -6.028412  
       5A1    -0.786021     6A1    -0.438381  

    Beta Virtual:                                                         

       2B2    -0.268860     2B1    -0.268860     7A1    -0.050477  
       3B2     0.039254     3B1     0.039254     8A1     0.161056  
       9A1     0.237085     4B1     0.310519     4B2     0.310519  
      10A1     0.433875     5B2     0.501541     5B1     0.501541  
       1A2     0.515222    11A1     0.515223    12A1     0.522340  
       6B1     0.623753     6B2     0.623753    13A1     0.796642  
      14A1     0.858402     2A2     0.858403    15A1     1.121390  
       7B2     1.179565     7B1     1.179565    16A1     1.483884  

    Final Occupation by Irrep:
             A1    A2    B1    B2 
    DOCC [     6,    0,    1,    1 ]
    SOCC [     1,    0,    2,    2 ]
    NA   [     7,    0,    3,    3 ]
    NB   [     6,    0,    1,    1 ]

  @DF-UKS Final Energy:  -422.58621681568036

   => Energetics <=

    Nuclear Repulsion Energy =             27.9729729235705626
    One-Electron Energy =                -636.1066432698994504
    Two-Electron Energy =                 209.5600186778736145
    DFT Exchange-Correlation Energy =     -24.0125651472249970
    Empirical Dispersion Energy =           0.0000000000000000
    VV10 Nonlocal Energy =                  0.0000000000000000
    Total Energy =                       -422.5862168156803591

  UHF NO Occupations:
  HONO-2 :    2 B2 1.0000000
  HONO-1 :    7 A1 1.0000000
  HONO-0 :    3 B2 1.0000000
  LUNO+0 :    8 A1 0.0017232
  LUNO+1 :    9 A1 0.0002036
  LUNO+2 :   10 A1 0.0000003
  LUNO+3 :   11 A1 0.0000000


Computation Completed


Properties will be evaluated at   0.000000,   0.000000,   0.000000 [a0]

Properties computed using the SCF density matrix


 Multipole Moments:

 ------------------------------------------------------------------------------------
     Multipole            Electronic (a.u.)      Nuclear  (a.u.)        Total (a.u.)
 ------------------------------------------------------------------------------------

 L = 1.  Multiply by 2.5417464519 to convert [e a0] to [Debye]
 Dipole X            :          0.0000000            0.0000000            0.0000000
 Dipole Y            :          0.0000000            0.0000000            0.0000000
 Dipole Z            :         -0.3016672           -1.0838094           -1.3854766
 Magnitude           :                                                    1.3854766

 ------------------------------------------------------------------------------------

*** tstop() called on Joses-MacBook-Pro-2.local at Wed Jul 16 18:57:06 2025
Module time:
	user time   =       8.72 seconds =       0.15 minutes
	system time =       3.70 seconds =       0.06 minutes
	total time  =          2 seconds =       0.03 minutes
Total time:
	user time   =      20.89 seconds =       0.35 minutes
	system time =      16.48 seconds =       0.27 minutes
	total time  =          4 seconds =       0.07 minutes

*** tstart() called on Joses-MacBook-Pro-2.local
*** at Wed Jul 16 18:57:06 2025


         ------------------------------------------------------------
                                   SCF GRAD                          
                          Rob Parrish, Justin Turney,                
                       Andy Simmonett, and Alex Sokolov              
         ------------------------------------------------------------

  ==> Geometry <==

    Molecular point group: c2v
    Full point group: C_inf_v

    Geometry (in Angstrom), charge = 0, multiplicity = 6:

       Center              X                  Y                   Z               Mass       
    ------------   -----------------  -----------------  -----------------  -----------------
         B            0.000000000000     0.000000000000     1.125752566333    11.009305360000
         S            0.000000000000     0.000000000000    -0.387643130623    31.972071174400

  Nuclear repulsion =   27.972972923570563

  ==> Basis Set <==

  Basis Set: CC-PVDZ
    Blend: CC-PVDZ
    Number of shells: 14
    Number of basis functions: 32
    Number of Cartesian functions: 34
    Spherical Harmonics?: true
    Max angular momentum: 2

  ==> DFJKGrad: Density-Fitted SCF Gradients <==

    Gradient:                    1
    J tasked:                  Yes
    K tasked:                  Yes
    wK tasked:                  No
    OpenMP threads:              1
    Integrals threads:           1
    Memory [MiB]:              375
    Schwarz Cutoff:          1E-12
    Fitting Condition:       1E-10

   => Auxiliary Basis Set <=

  Basis Set: (CC-PVDZ AUX)
    Blend: CC-PVDZ-JKFIT
    Number of shells: 60
    Number of basis functions: 182
    Number of Cartesian functions: 211
    Spherical Harmonics?: true
    Max angular momentum: 3

  ==> DFT Potential <==

   => LibXC <=

    Version 6.2.2
    S. Lehtola, C. Steigemann, M. J.T. Oliveira, and M. A.L. Marques.,  SoftwareX 7, 1–5 (2018) (10.1016/j.softx.2017.11.002)

   => Composite Functional: B3LYP <= 

    B3LYP Hyb-GGA Exchange-Correlation Functional

    P. J. Stephens, F. J. Devlin, C. F. Chabalowski, and M. J. Frisch.,  J. Phys. Chem. 98, 11623 (1994) (10.1021/j100096a001)

    Deriv               =              1
    GGA                 =           TRUE
    Meta                =          FALSE

    Exchange Hybrid     =           TRUE
    MP2 Hybrid          =          FALSE

   => Exchange Functionals <=

    0.0800   Slater exchange
    0.7200         Becke 88

   => Exact (HF) Exchange <=

    0.2000               HF 

   => Correlation Functionals <=

    0.1900   Vosko, Wilk & Nusair (VWN5_RPA)
    0.8100   Lee, Yang & Parr

   => LibXC Density Thresholds  <==

    XC_HYB_GGA_XC_B3LYP:  1.00E-15 

   => Molecular Quadrature <=

    Radial Scheme          =       TREUTLER
    Pruning Scheme         =           NONE
    Nuclear Scheme         =       TREUTLER

    Blocking Scheme        =         OCTREE
    BS radius alpha        =              1
    Pruning alpha          =              1
    Radial Points          =             75
    Spherical Points       =            302
    Total Points           =          41964
    Total Blocks           =            381
    Max Points             =            255
    Max Functions          =             32
    Weights Tolerance      =       1.00E-15


  -Total Gradient:
     Atom            X                  Y                   Z
    ------   -----------------  -----------------  -----------------
       1        0.000000000000    -0.000000000000    -0.364686775395
       2        0.000000000000    -0.000000000000     0.364666181581


*** tstop() called on Joses-MacBook-Pro-2.local at Wed Jul 16 18:57:06 2025
Module time:
	user time   =       1.08 seconds =       0.02 minutes
	system time =       1.36 seconds =       0.02 minutes
	total time  =          0 seconds =       0.00 minutes
Total time:
	user time   =      21.97 seconds =       0.37 minutes
	system time =      17.86 seconds =       0.30 minutes
	total time  =          4 seconds =       0.07 minutes

    			-----------------------------------------

    			 OPTKING 3.0: for geometry optimizations 

    			     By R.A. King, Bethel University     

    			        with contributions from          

    			    A.V. Copan, J. Cayton, A. Heide      

    			-----------------------------------------

    
	                            ===> Fragment 1 <== 

	 Z (Atomic Numbers)          Masses                          Geom                  
	       5.000000            11.009305          0.00000000  0.00000000  2.12736404   
	      16.000000            31.972071          0.00000000  0.00000000 -0.73253935   

	 - Coordinate -           - BOHR/RAD -       - ANG/DEG -
	 R(1,2)           =         2.859903           1.513396


	        --- Internal Coordinate Step in ANG or DEG, aJ/ANG or AJ/DEG ---
	-------------------------------------------------------------------------------
	           Coordinate      Previous         Force          Change          New 
	           ----------      --------        ------          ------        ------
	               R(1,2)       1.51340        3.00447        0.14215       1.65555
	-------------------------------------------------------------------------------

	                                 ==> Convergence Check <==                                  
    
	Measures of convergence in internal coordinates in au.
    
	Criteria marked as inactive (o), active & met (*), and active & unmet ( ).

	----------------------------------------------------------------------------------------------
	   Step    Total Energy     Delta E     Max Force     RMS Force      Max Disp      RMS Disp   
	----------------------------------------------------------------------------------------------
	  Convergence Criteria     1.00e-06 *    3.00e-04 *             o    1.20e-03 *             o
	----------------------------------------------------------------------------------------------
	     3    -422.58621682   -1.45e-01      3.65e-01      3.65e-01 o    2.69e-01      2.69e-01 o  ~
	----------------------------------------------------------------------------------------------

Next Geometry in Ang 
	Fragment 1 (Ang)

	    B   0.0000000000   0.0000000000   1.1968280520
	    S   0.0000000000   0.0000000000  -0.4587186163


    Structure for next step:
    Molecular point group: c2v
    Full point group: C_inf_v

    Geometry (in Angstrom), charge = 0, multiplicity = 6:

    B            0.000000000000     0.000000000000     1.231492804118
    S            0.000000000000     0.000000000000    -0.424053864237


Scratch directory: /tmp/
gradient() will perform analytic gradient computation.
   => Libint2 <=

    Primary   basis highest AM E, G, H:  6, 6, 3
    Auxiliary basis highest AM E, G, H:  7, 7, 4
    Onebody   basis highest AM E, G, H:  -, -, -
    Solid Harmonics ordering:            Gaussian

*** tstart() called on Joses-MacBook-Pro-2.local
*** at Wed Jul 16 18:57:06 2025

   => Loading Basis Set <=

    Name: CC-PVDZ
    Role: ORBITAL
    Keyword: BASIS
    atoms 1 entry B          line   108 file /Users/joseantoniorodriguesromero/anaconda3/share/psi4/basis/cc-pvdz.gbs 
    atoms 2 entry S          line   598 file /Users/joseantoniorodriguesromero/anaconda3/share/psi4/basis/cc-pvdz.gbs 


         ---------------------------------------------------------
                                   SCF
               by Justin Turney, Rob Parrish, Andy Simmonett
                          and Daniel G. A. Smith
                              UKS Reference
                        1 Threads,    500 MiB Core
         ---------------------------------------------------------

  ==> Geometry <==

    Molecular point group: c2v
    Full point group: C_inf_v

    Geometry (in Angstrom), charge = 0, multiplicity = 6:

       Center              X                  Y                   Z               Mass       
    ------------   -----------------  -----------------  -----------------  -----------------
         B            0.000000000000     0.000000000000     1.231492804118    11.009305360000
         S            0.000000000000     0.000000000000    -0.424053864237    31.972071174400

  Running in c2v symmetry.

  Rotational constants: A = ************  B =      0.75104  C =      0.75104 [cm^-1]
  Rotational constants: A = ************  B =  22515.62338  C =  22515.62338 [MHz]
  Nuclear repulsion =   25.571116576041053

  Charge       = 0
  Multiplicity = 6
  Electrons    = 21
  Nalpha       = 13
  Nbeta        = 8

  ==> Algorithm <==

  SCF Algorithm Type is DF.
  DIIS enabled.
  MOM disabled.
  Fractional occupation disabled.
  Guess Type is READ.
  Energy threshold   = 1.00e-08
  Density threshold  = 1.00e-08
  Integral threshold = 1.00e-12

  ==> Primary Basis <==

  Basis Set: CC-PVDZ
    Blend: CC-PVDZ
    Number of shells: 14
    Number of basis functions: 32
    Number of Cartesian functions: 34
    Spherical Harmonics?: true
    Max angular momentum: 2

  ==> DFT Potential <==

   => LibXC <=

    Version 6.2.2
    S. Lehtola, C. Steigemann, M. J.T. Oliveira, and M. A.L. Marques.,  SoftwareX 7, 1–5 (2018) (10.1016/j.softx.2017.11.002)

   => Composite Functional: B3LYP <= 

    B3LYP Hyb-GGA Exchange-Correlation Functional

    P. J. Stephens, F. J. Devlin, C. F. Chabalowski, and M. J. Frisch.,  J. Phys. Chem. 98, 11623 (1994) (10.1021/j100096a001)

    Deriv               =              1
    GGA                 =           TRUE
    Meta                =          FALSE

    Exchange Hybrid     =           TRUE
    MP2 Hybrid          =          FALSE

   => Exchange Functionals <=

    0.0800   Slater exchange
    0.7200         Becke 88

   => Exact (HF) Exchange <=

    0.2000               HF 

   => Correlation Functionals <=

    0.1900   Vosko, Wilk & Nusair (VWN5_RPA)
    0.8100   Lee, Yang & Parr

   => LibXC Density Thresholds  <==

    XC_HYB_GGA_XC_B3LYP:  1.00E-15 

   => Molecular Quadrature <=

    Radial Scheme          =       TREUTLER
    Pruning Scheme         =           NONE
    Nuclear Scheme         =       TREUTLER

    Blocking Scheme        =         OCTREE
    BS radius alpha        =              1
    Pruning alpha          =              1
    Radial Points          =             75
    Spherical Points       =            302
    Total Points           =          41978
    Total Blocks           =            385
    Max Points             =            255
    Max Functions          =             32
    Weights Tolerance      =       1.00E-15

   => Loading Basis Set <=

    Name: (CC-PVDZ AUX)
    Role: JKFIT
    Keyword: DF_BASIS_SCF
    atoms 1 entry B          line    71 file /Users/joseantoniorodriguesromero/anaconda3/share/psi4/basis/cc-pvdz-jkfit.gbs 
    atoms 2 entry S          line   593 file /Users/joseantoniorodriguesromero/anaconda3/share/psi4/basis/cc-pvdz-jkfit.gbs 

   => Loading Basis Set <=

    Name: CC-PVDZ
    Role: ORBITAL
    Keyword: BASIS
    atoms 1 entry B          line   108 file /Users/joseantoniorodriguesromero/anaconda3/share/psi4/basis/cc-pvdz.gbs 
    atoms 2 entry S          line   598 file /Users/joseantoniorodriguesromero/anaconda3/share/psi4/basis/cc-pvdz.gbs 

  Reading orbitals from file /tmp/sextet_BS.default.68733.180.npy, no projection.

  ==> Integral Setup <==

  DFHelper Memory: AOs need 0.002 GiB; user supplied 0.328 GiB. 
  Using in-core AOs.

  ==> MemDFJK: Density-Fitted J/K Matrices <==

    J tasked:                   Yes
    K tasked:                   Yes
    wK tasked:                   No
    OpenMP threads:               1
    Memory [MiB]:               335
    Algorithm:                 Core
    Schwarz Cutoff:           1E-12
    Mask sparsity (%):       0.0000
    Fitting Condition:        1E-10

   => Auxiliary Basis Set <=

  Basis Set: (CC-PVDZ AUX)
    Blend: CC-PVDZ-JKFIT
    Number of shells: 60
    Number of basis functions: 182
    Number of Cartesian functions: 211
    Spherical Harmonics?: true
    Max angular momentum: 3

  Cached 100.0% of DFT collocation blocks in 0.038 [GiB].

  Minimum eigenvalue in the overlap matrix is 1.3510723153E-02.
  Reciprocal condition number of the overlap matrix is 4.4283430784E-03.
    Using symmetric orthogonalization.

  ==> Pre-Iterations <==

  SCF Guess: Orbitals guess was supplied from a previous computation.

   -------------------------------------------------------
    Irrep   Nso     Nmo     Nalpha   Nbeta   Ndocc  Nsocc
   -------------------------------------------------------
     A1        16      16       7       6       6       1
     A2         2       2       0       0       0       0
     B1         7       7       3       1       1       2
     B2         7       7       3       1       1       2
   -------------------------------------------------------
    Total      32      32      13       8       8       5
   -------------------------------------------------------

  ==> Iterations <==

                           Total Energy        Delta E     RMS |[F,P]|

   @DF-UKS iter   0:  -422.64329739563243   -4.22643e+02   2.11981e-02 
   @DF-UKS iter   1:  -422.65616094314822   -1.28635e-02   1.35979e-03 DIIS/ADIIS
   @DF-UKS iter   2:  -422.65662738822971   -4.66445e-04   7.24439e-04 DIIS/ADIIS/DAMP=1%
   @DF-UKS iter   3:  -422.65692717125063   -2.99783e-04   1.61211e-04 DIIS/ADIIS/DAMP=1%
   @DF-UKS iter   4:  -422.65681209960974    1.15072e-04   1.38787e-05 DIIS/DAMP=1%
   @DF-UKS iter   5:  -422.65678647803128    2.56216e-05   2.45049e-06 DIIS/DAMP=1%
   @DF-UKS iter   6:  -422.65678926273688   -2.78471e-06   4.64492e-07 DIIS/DAMP=1%
   @DF-UKS iter   7:  -422.65678803481677    1.22792e-06   1.52145e-07 DIIS/DAMP=1%
   @DF-UKS iter   8:  -422.65678869800536   -6.63189e-07   1.47764e-08 DIIS/DAMP=1%
   @DF-UKS iter   9:  -422.65678853955808    1.58447e-07   1.76537e-09 DIIS/DAMP=1%
   @DF-UKS iter  10:  -422.65678854344412   -3.88604e-09   1.32371e-10 DIIS/DAMP=1%
  Energy and wave function converged.


  ==> Post-Iterations <==

   Electrons on quadrature grid:
      Nalpha   =   12.9999999070 ; deviation = -9.304e-08
      Nbeta    =    8.0000002003 ; deviation = 2.003e-07
      Ntotal   =   21.0000001073 ; deviation = 1.073e-07 

   @Spin Contamination Metric:   3.539841018E-03
   @S^2 Expected:                8.750000000E+00
   @S^2 Observed:                8.753539841E+00
   @S   Expected:                2.500000000E+00
   @S   Observed:                2.500000000E+00

    Orbital Energies [Eh]
    ---------------------

    Alpha Occupied:                                                       

       1A1   -89.030241     2A1    -8.089503     3A1    -6.744481  
       1B1    -6.056899     1B2    -6.056899     4A1    -6.042756  
       5A1    -0.864614     6A1    -0.504933     2B2    -0.433284  
       2B1    -0.433284     7A1    -0.264873     3B2    -0.138043  
       3B1    -0.138043  

    Alpha Virtual:                                                        

       8A1     0.111199     9A1     0.189032     4B2     0.274550  
       4B1     0.274550    10A1     0.355102     5B2     0.410393  
       5B1     0.410393    11A1     0.412976     1A2     0.412976  
      12A1     0.423782     6B1     0.497980     6B2     0.497980  
      13A1     0.696686     2A2     0.728036    14A1     0.728036  
      15A1     0.984656     7B1     1.022735     7B2     1.022735  
      16A1     1.271721  

    Beta Occupied:                                                        

       1A1   -89.017691     2A1    -8.076544     3A1    -6.713824  
       4A1    -6.034036     1B1    -6.032796     1B2    -6.032796  
       5A1    -0.764150     6A1    -0.435742  

    Beta Virtual:                                                         

       2B2    -0.260478     2B1    -0.260478     7A1    -0.057193  
       3B2     0.034967     3B1     0.034967     8A1     0.157207  
       9A1     0.230112     4B2     0.337024     4B1     0.337024  
      10A1     0.428449     5B2     0.486020     5B1     0.486020  
      11A1     0.490258    12A1     0.527098     1A2     0.527099  
       6B1     0.583288     6B2     0.583288    13A1     0.751581  
      14A1     0.847921     2A2     0.847921    15A1     1.062111  
       7B1     1.120598     7B2     1.120598    16A1     1.333064  

    Final Occupation by Irrep:
             A1    A2    B1    B2 
    DOCC [     6,    0,    1,    1 ]
    SOCC [     1,    0,    2,    2 ]
    NA   [     7,    0,    3,    3 ]
    NB   [     6,    0,    1,    1 ]

  @DF-UKS Final Energy:  -422.65678854344412

   => Energetics <=

    Nuclear Repulsion Energy =             25.5711165760410530
    One-Electron Energy =                -631.4871064754449890
    Two-Electron Energy =                 207.2142679333152273
    DFT Exchange-Correlation Energy =     -23.9550665773554066
    Empirical Dispersion Energy =           0.0000000000000000
    VV10 Nonlocal Energy =                  0.0000000000000000
    Total Energy =                       -422.6567885434441223

  UHF NO Occupations:
  HONO-2 :    3 B2 1.0000000
  HONO-1 :    7 A1 1.0000000
  HONO-0 :    3 B1 1.0000000
  LUNO+0 :    8 A1 0.0015277
  LUNO+1 :    9 A1 0.0002430
  LUNO+2 :   10 A1 0.0000003
  LUNO+3 :   11 A1 0.0000000


Computation Completed


Properties will be evaluated at   0.000000,   0.000000,   0.000000 [a0]

Properties computed using the SCF density matrix


 Multipole Moments:

 ------------------------------------------------------------------------------------
     Multipole            Electronic (a.u.)      Nuclear  (a.u.)        Total (a.u.)
 ------------------------------------------------------------------------------------

 L = 1.  Multiply by 2.5417464519 to convert [e a0] to [Debye]
 Dipole X            :          0.0000000            0.0000000            0.0000000
 Dipole Y            :          0.0000000            0.0000000            0.0000000
 Dipole Z            :         -0.3380203           -1.1856100           -1.5236303
 Magnitude           :                                                    1.5236303

 ------------------------------------------------------------------------------------

*** tstop() called on Joses-MacBook-Pro-2.local at Wed Jul 16 18:57:07 2025
Module time:
	user time   =       6.07 seconds =       0.10 minutes
	system time =       2.69 seconds =       0.04 minutes
	total time  =          1 seconds =       0.02 minutes
Total time:
	user time   =      28.37 seconds =       0.47 minutes
	system time =      20.66 seconds =       0.34 minutes
	total time  =          5 seconds =       0.08 minutes

*** tstart() called on Joses-MacBook-Pro-2.local
*** at Wed Jul 16 18:57:07 2025


         ------------------------------------------------------------
                                   SCF GRAD                          
                          Rob Parrish, Justin Turney,                
                       Andy Simmonett, and Alex Sokolov              
         ------------------------------------------------------------

  ==> Geometry <==

    Molecular point group: c2v
    Full point group: C_inf_v

    Geometry (in Angstrom), charge = 0, multiplicity = 6:

       Center              X                  Y                   Z               Mass       
    ------------   -----------------  -----------------  -----------------  -----------------
         B            0.000000000000     0.000000000000     1.231492804118    11.009305360000
         S            0.000000000000     0.000000000000    -0.424053864237    31.972071174400

  Nuclear repulsion =   25.571116576041053

  ==> Basis Set <==

  Basis Set: CC-PVDZ
    Blend: CC-PVDZ
    Number of shells: 14
    Number of basis functions: 32
    Number of Cartesian functions: 34
    Spherical Harmonics?: true
    Max angular momentum: 2

  ==> DFJKGrad: Density-Fitted SCF Gradients <==

    Gradient:                    1
    J tasked:                  Yes
    K tasked:                  Yes
    wK tasked:                  No
    OpenMP threads:              1
    Integrals threads:           1
    Memory [MiB]:              375
    Schwarz Cutoff:          1E-12
    Fitting Condition:       1E-10

   => Auxiliary Basis Set <=

  Basis Set: (CC-PVDZ AUX)
    Blend: CC-PVDZ-JKFIT
    Number of shells: 60
    Number of basis functions: 182
    Number of Cartesian functions: 211
    Spherical Harmonics?: true
    Max angular momentum: 3

  ==> DFT Potential <==

   => LibXC <=

    Version 6.2.2
    S. Lehtola, C. Steigemann, M. J.T. Oliveira, and M. A.L. Marques.,  SoftwareX 7, 1–5 (2018) (10.1016/j.softx.2017.11.002)

   => Composite Functional: B3LYP <= 

    B3LYP Hyb-GGA Exchange-Correlation Functional

    P. J. Stephens, F. J. Devlin, C. F. Chabalowski, and M. J. Frisch.,  J. Phys. Chem. 98, 11623 (1994) (10.1021/j100096a001)

    Deriv               =              1
    GGA                 =           TRUE
    Meta                =          FALSE

    Exchange Hybrid     =           TRUE
    MP2 Hybrid          =          FALSE

   => Exchange Functionals <=

    0.0800   Slater exchange
    0.7200         Becke 88

   => Exact (HF) Exchange <=

    0.2000               HF 

   => Correlation Functionals <=

    0.1900   Vosko, Wilk & Nusair (VWN5_RPA)
    0.8100   Lee, Yang & Parr

   => LibXC Density Thresholds  <==

    XC_HYB_GGA_XC_B3LYP:  1.00E-15 

   => Molecular Quadrature <=

    Radial Scheme          =       TREUTLER
    Pruning Scheme         =           NONE
    Nuclear Scheme         =       TREUTLER

    Blocking Scheme        =         OCTREE
    BS radius alpha        =              1
    Pruning alpha          =              1
    Radial Points          =             75
    Spherical Points       =            302
    Total Points           =          41978
    Total Blocks           =            385
    Max Points             =            255
    Max Functions          =             32
    Weights Tolerance      =       1.00E-15


  -Total Gradient:
     Atom            X                  Y                   Z
    ------   -----------------  -----------------  -----------------
       1       -0.000000000000     0.000000000000    -0.179157097652
       2        0.000000000000     0.000000000000     0.179144030273


*** tstop() called on Joses-MacBook-Pro-2.local at Wed Jul 16 18:57:08 2025
Module time:
	user time   =       0.96 seconds =       0.02 minutes
	system time =       1.18 seconds =       0.02 minutes
	total time  =          1 seconds =       0.02 minutes
Total time:
	user time   =      29.33 seconds =       0.49 minutes
	system time =      21.85 seconds =       0.36 minutes
	total time  =          6 seconds =       0.10 minutes

    			-----------------------------------------

    			 OPTKING 3.0: for geometry optimizations 

    			     By R.A. King, Bethel University     

    			        with contributions from          

    			    A.V. Copan, J. Cayton, A. Heide      

    			-----------------------------------------

    
	                            ===> Fragment 1 <== 

	 Z (Atomic Numbers)          Masses                          Geom                  
	       5.000000            11.009305          0.00000000  0.00000000  2.32718413   
	      16.000000            31.972071          0.00000000  0.00000000 -0.80134567   

	 - Coordinate -           - BOHR/RAD -       - ANG/DEG -
	 R(1,2)           =         3.128530           1.655547


	        --- Internal Coordinate Step in ANG or DEG, aJ/ANG or AJ/DEG ---
	-------------------------------------------------------------------------------
	           Coordinate      Previous         Force          Change          New 
	           ----------      --------        ------          ------        ------
	               R(1,2)       1.65555        1.47597        0.12910       1.78464
	-------------------------------------------------------------------------------

	                                 ==> Convergence Check <==                                  
    
	Measures of convergence in internal coordinates in au.
    
	Criteria marked as inactive (o), active & met (*), and active & unmet ( ).

	----------------------------------------------------------------------------------------------
	   Step    Total Energy     Delta E     Max Force     RMS Force      Max Disp      RMS Disp   
	----------------------------------------------------------------------------------------------
	  Convergence Criteria     1.00e-06 *    3.00e-04 *             o    1.20e-03 *             o
	----------------------------------------------------------------------------------------------
	     4    -422.65678854   -7.06e-02      1.79e-01      1.79e-01 o    2.44e-01      2.44e-01 o  ~
	----------------------------------------------------------------------------------------------

Next Geometry in Ang 
	Fragment 1 (Ang)

	    B   0.0000000000   0.0000000000   1.2960411624
	    S   0.0000000000   0.0000000000  -0.4886022225


    Structure for next step:
    Molecular point group: c2v
    Full point group: C_inf_v

    Geometry (in Angstrom), charge = 0, multiplicity = 6:

    B            0.000000000000     0.000000000000     1.327522520815
    S            0.000000000000     0.000000000000    -0.457120864151


Scratch directory: /tmp/
gradient() will perform analytic gradient computation.
   => Libint2 <=

    Primary   basis highest AM E, G, H:  6, 6, 3
    Auxiliary basis highest AM E, G, H:  7, 7, 4
    Onebody   basis highest AM E, G, H:  -, -, -
    Solid Harmonics ordering:            Gaussian

*** tstart() called on Joses-MacBook-Pro-2.local
*** at Wed Jul 16 18:57:08 2025

   => Loading Basis Set <=

    Name: CC-PVDZ
    Role: ORBITAL
    Keyword: BASIS
    atoms 1 entry B          line   108 file /Users/joseantoniorodriguesromero/anaconda3/share/psi4/basis/cc-pvdz.gbs 
    atoms 2 entry S          line   598 file /Users/joseantoniorodriguesromero/anaconda3/share/psi4/basis/cc-pvdz.gbs 


         ---------------------------------------------------------
                                   SCF
               by Justin Turney, Rob Parrish, Andy Simmonett
                          and Daniel G. A. Smith
                              UKS Reference
                        1 Threads,    500 MiB Core
         ---------------------------------------------------------

  ==> Geometry <==

    Molecular point group: c2v
    Full point group: C_inf_v

    Geometry (in Angstrom), charge = 0, multiplicity = 6:

       Center              X                  Y                   Z               Mass       
    ------------   -----------------  -----------------  -----------------  -----------------
         B            0.000000000000     0.000000000000     1.327522520815    11.009305360000
         S            0.000000000000     0.000000000000    -0.457120864151    31.972071174400

  Running in c2v symmetry.

  Rotational constants: A = ************  B =      0.64631  C =      0.64631 [cm^-1]
  Rotational constants: A = ************  B =  19375.99161  C =  19375.99161 [MHz]
  Nuclear repulsion =   23.721364845343487

  Charge       = 0
  Multiplicity = 6
  Electrons    = 21
  Nalpha       = 13
  Nbeta        = 8

  ==> Algorithm <==

  SCF Algorithm Type is DF.
  DIIS enabled.
  MOM disabled.
  Fractional occupation disabled.
  Guess Type is READ.
  Energy threshold   = 1.00e-08
  Density threshold  = 1.00e-08
  Integral threshold = 1.00e-12

  ==> Primary Basis <==

  Basis Set: CC-PVDZ
    Blend: CC-PVDZ
    Number of shells: 14
    Number of basis functions: 32
    Number of Cartesian functions: 34
    Spherical Harmonics?: true
    Max angular momentum: 2

  ==> DFT Potential <==

   => LibXC <=

    Version 6.2.2
    S. Lehtola, C. Steigemann, M. J.T. Oliveira, and M. A.L. Marques.,  SoftwareX 7, 1–5 (2018) (10.1016/j.softx.2017.11.002)

   => Composite Functional: B3LYP <= 

    B3LYP Hyb-GGA Exchange-Correlation Functional

[...]

	                                 ==> Convergence Check <==                                  
    
	Measures of convergence in internal coordinates in au.
    
	Criteria marked as inactive (o), active & met (*), and active & unmet ( ).

	----------------------------------------------------------------------------------------------
	   Step    Total Energy     Delta E     Max Force     RMS Force      Max Disp      RMS Disp   
	----------------------------------------------------------------------------------------------
	  Convergence Criteria     1.00e-06 *    3.00e-04 *             o    1.20e-03 *             o
	----------------------------------------------------------------------------------------------
	    12    -422.70577051   -3.57e-06      1.85e-04 *    1.85e-04 o    2.15e-03      2.15e-03 o  ~
	----------------------------------------------------------------------------------------------

Next Geometry in Ang 
	Fragment 1 (Ang)

	    B   0.0000000000   0.0000000000   1.5375560965
	    S   0.0000000000   0.0000000000  -0.5298179526


    Structure for next step:
    Molecular point group: c2v
    Full point group: C_inf_v

    Geometry (in Angstrom), charge = 0, multiplicity = 6:

    B            0.000000000000     0.000000000000     1.537834187059
    S            0.000000000000     0.000000000000    -0.529539862026


Scratch directory: /tmp/
gradient() will perform analytic gradient computation.
   => Libint2 <=

    Primary   basis highest AM E, G, H:  6, 6, 3
    Auxiliary basis highest AM E, G, H:  7, 7, 4
    Onebody   basis highest AM E, G, H:  -, -, -
    Solid Harmonics ordering:            Gaussian

*** tstart() called on Joses-MacBook-Pro-2.local
*** at Wed Jul 16 18:57:18 2025

   => Loading Basis Set <=

    Name: CC-PVDZ
    Role: ORBITAL
    Keyword: BASIS
    atoms 1 entry B          line   108 file /Users/joseantoniorodriguesromero/anaconda3/share/psi4/basis/cc-pvdz.gbs 
    atoms 2 entry S          line   598 file /Users/joseantoniorodriguesromero/anaconda3/share/psi4/basis/cc-pvdz.gbs 


         ---------------------------------------------------------
                                   SCF
               by Justin Turney, Rob Parrish, Andy Simmonett
                          and Daniel G. A. Smith
                              UKS Reference
                        1 Threads,    500 MiB Core
         ---------------------------------------------------------

  ==> Geometry <==

    Molecular point group: c2v
    Full point group: C_inf_v

    Geometry (in Angstrom), charge = 0, multiplicity = 6:

       Center              X                  Y                   Z               Mass       
    ------------   -----------------  -----------------  -----------------  -----------------
         B            0.000000000000     0.000000000000     1.537834187059    11.009305360000
         S            0.000000000000     0.000000000000    -0.529539862026    31.972071174400

  Running in c2v symmetry.

  Rotational constants: A = ************  B =      0.48162  C =      0.48162 [cm^-1]
  Rotational constants: A = ************  B =  14438.72051  C =  14438.72051 [MHz]
  Nuclear repulsion =   20.477270125513893

  Charge       = 0
  Multiplicity = 6
  Electrons    = 21
  Nalpha       = 13
  Nbeta        = 8

  ==> Algorithm <==

  SCF Algorithm Type is DF.
  DIIS enabled.
  MOM disabled.
  Fractional occupation disabled.
  Guess Type is READ.
  Energy threshold   = 1.00e-08
  Density threshold  = 1.00e-08
  Integral threshold = 1.00e-12

  ==> Primary Basis <==

  Basis Set: CC-PVDZ
    Blend: CC-PVDZ
    Number of shells: 14
    Number of basis functions: 32
    Number of Cartesian functions: 34
    Spherical Harmonics?: true
    Max angular momentum: 2

  ==> DFT Potential <==

   => LibXC <=

    Version 6.2.2
    S. Lehtola, C. Steigemann, M. J.T. Oliveira, and M. A.L. Marques.,  SoftwareX 7, 1–5 (2018) (10.1016/j.softx.2017.11.002)

   => Composite Functional: B3LYP <= 

    B3LYP Hyb-GGA Exchange-Correlation Functional

    P. J. Stephens, F. J. Devlin, C. F. Chabalowski, and M. J. Frisch.,  J. Phys. Chem. 98, 11623 (1994) (10.1021/j100096a001)

    Deriv               =              1
    GGA                 =           TRUE
    Meta                =          FALSE

    Exchange Hybrid     =           TRUE
    MP2 Hybrid          =          FALSE

   => Exchange Functionals <=

    0.0800   Slater exchange
    0.7200         Becke 88

   => Exact (HF) Exchange <=

    0.2000               HF 

   => Correlation Functionals <=

    0.1900   Vosko, Wilk & Nusair (VWN5_RPA)
    0.8100   Lee, Yang & Parr

   => LibXC Density Thresholds  <==

    XC_HYB_GGA_XC_B3LYP:  1.00E-15 

   => Molecular Quadrature <=

    Radial Scheme          =       TREUTLER
    Pruning Scheme         =           NONE
    Nuclear Scheme         =       TREUTLER

    Blocking Scheme        =         OCTREE
    BS radius alpha        =              1
    Pruning alpha          =              1
    Radial Points          =             75
    Spherical Points       =            302
    Total Points           =          42024
    Total Blocks           =            386
    Max Points             =            256
    Max Functions          =             32
    Weights Tolerance      =       1.00E-15

   => Loading Basis Set <=

    Name: (CC-PVDZ AUX)
    Role: JKFIT
    Keyword: DF_BASIS_SCF
    atoms 1 entry B          line    71 file /Users/joseantoniorodriguesromero/anaconda3/share/psi4/basis/cc-pvdz-jkfit.gbs 
    atoms 2 entry S          line   593 file /Users/joseantoniorodriguesromero/anaconda3/share/psi4/basis/cc-pvdz-jkfit.gbs 

   => Loading Basis Set <=

    Name: CC-PVDZ
    Role: ORBITAL
    Keyword: BASIS
    atoms 1 entry B          line   108 file /Users/joseantoniorodriguesromero/anaconda3/share/psi4/basis/cc-pvdz.gbs 
    atoms 2 entry S          line   598 file /Users/joseantoniorodriguesromero/anaconda3/share/psi4/basis/cc-pvdz.gbs 

  Reading orbitals from file /tmp/sextet_BS.default.68733.180.npy, no projection.

  ==> Integral Setup <==

  DFHelper Memory: AOs need 0.002 GiB; user supplied 0.328 GiB. 
  Using in-core AOs.

  ==> MemDFJK: Density-Fitted J/K Matrices <==

    J tasked:                   Yes
    K tasked:                   Yes
    wK tasked:                   No
    OpenMP threads:               1
    Memory [MiB]:               335
    Algorithm:                 Core
    Schwarz Cutoff:           1E-12
    Mask sparsity (%):       0.0000
    Fitting Condition:        1E-10

   => Auxiliary Basis Set <=

  Basis Set: (CC-PVDZ AUX)
    Blend: CC-PVDZ-JKFIT
    Number of shells: 60
    Number of basis functions: 182
    Number of Cartesian functions: 211
    Spherical Harmonics?: true
    Max angular momentum: 3

  Cached 100.0% of DFT collocation blocks in 0.038 [GiB].

  Minimum eigenvalue in the overlap matrix is 2.3593905511E-02.
  Reciprocal condition number of the overlap matrix is 8.4197684029E-03.
    Using symmetric orthogonalization.

  ==> Pre-Iterations <==

  SCF Guess: Orbitals guess was supplied from a previous computation.

   -------------------------------------------------------
    Irrep   Nso     Nmo     Nalpha   Nbeta   Ndocc  Nsocc
   -------------------------------------------------------
     A1        16      16       7       6       6       1
     A2         2       2       0       0       0       0
     B1         7       7       3       1       1       2
     B2         7       7       3       1       1       2
   -------------------------------------------------------
    Total      32      32      13       8       8       5
   -------------------------------------------------------

  ==> Iterations <==

                           Total Energy        Delta E     RMS |[F,P]|

   @DF-UKS iter   0:  -422.70553781809122   -4.22706e+02   6.68608e-05 
   @DF-UKS iter   1:  -422.70577069762783   -2.32880e-04   9.60916e-06 DIIS
   @DF-UKS iter   2:  -422.70577071400561   -1.63778e-08   6.86611e-06 DIIS/DAMP=1%
   @DF-UKS iter   3:  -422.70576536702413    5.34698e-06   1.03103e-06 DIIS/DAMP=1%
   @DF-UKS iter   4:  -422.70577094088344   -5.57386e-06   2.31641e-07 DIIS/DAMP=1%
   @DF-UKS iter   5:  -422.70577077449866    1.66385e-07   5.99580e-08 DIIS/DAMP=1%
   @DF-UKS iter   6:  -422.70577069675613    7.77425e-08   1.03658e-08 DIIS/DAMP=1%
   @DF-UKS iter   7:  -422.70577073532866   -3.85725e-08   2.52533e-09 DIIS/DAMP=1%
   @DF-UKS iter   8:  -422.70577072647927    8.84938e-09   3.35650e-10 DIIS/DAMP=1%
  Energy and wave function converged.


  ==> Post-Iterations <==

   Electrons on quadrature grid:
      Nalpha   =   12.9999999927 ; deviation = -7.311e-09
      Nbeta    =    8.0000000075 ; deviation = 7.540e-09
      Ntotal   =   21.0000000002 ; deviation = 2.285e-10 

   @Spin Contamination Metric:   3.234391869E-03
   @S^2 Expected:                8.750000000E+00
   @S^2 Observed:                8.753234392E+00
   @S   Expected:                2.500000000E+00
   @S   Observed:                2.500000000E+00

    Orbital Energies [Eh]
    ---------------------

    Alpha Occupied:                                                       

       1A1   -89.031049     2A1    -8.087046     3A1    -6.776402  
       1B1    -6.054889     1B2    -6.054889     4A1    -6.040639  
       5A1    -0.821465     6A1    -0.464187     2B1    -0.410979  
       2B2    -0.410979     7A1    -0.290548     3B2    -0.147384  
       3B1    -0.147384  

    Alpha Virtual:                                                        

       8A1     0.024966     9A1     0.255580     4B2     0.307351  
       4B1     0.307351    10A1     0.357379    11A1     0.381579  
       5B1     0.401853     5B2     0.401853     1A2     0.438731  
      12A1     0.438731     6B1     0.452195     6B2     0.452195  
      13A1     0.575973     2A2     0.711050    14A1     0.711050  
      15A1     0.795112     7B1     0.883545     7B2     0.883545  
      16A1     1.152345  

    Beta Occupied:                                                        

       1A1   -89.018189     2A1    -8.073845     3A1    -6.744706  
       1B1    -6.030951     1B2    -6.030951     4A1    -6.030320  
       5A1    -0.719558     6A1    -0.397216  

    Beta Virtual:                                                         

       2B1    -0.243439     2B2    -0.243439     7A1    -0.098783  
       3B1     0.028951     3B2     0.028951     8A1     0.090311  
       9A1     0.285196     4B2     0.388631     4B1     0.388631  
      10A1     0.411730    11A1     0.442573     5B1     0.466509  
       5B2     0.466509     6B1     0.520850     6B2     0.520850  
       1A2     0.552724    12A1     0.552725    13A1     0.628319  
      14A1     0.836235     2A2     0.836236    15A1     0.855343  
       7B1     0.975977     7B2     0.975977    16A1     1.223103  

    Final Occupation by Irrep:
             A1    A2    B1    B2 
    DOCC [     6,    0,    1,    1 ]
    SOCC [     1,    0,    2,    2 ]
    NA   [     7,    0,    3,    3 ]
    NB   [     6,    0,    1,    1 ]

  @DF-UKS Final Energy:  -422.70577072647927

   => Energetics <=

    Nuclear Repulsion Energy =             20.4772701255138934
    One-Electron Energy =                -621.5837377007137547
    Two-Electron Energy =                 202.2590463197411452
    DFT Exchange-Correlation Energy =     -23.8583494710205066
    Empirical Dispersion Energy =           0.0000000000000000
    VV10 Nonlocal Energy =                  0.0000000000000000
    Total Energy =                       -422.7057707264792157

  UHF NO Occupations:
  HONO-2 :    2 B1 1.0000000
  HONO-1 :    3 B2 1.0000000
  HONO-0 :    3 B1 1.0000000
  LUNO+0 :    8 A1 0.0012471
  LUNO+1 :    9 A1 0.0003706
  LUNO+2 :   10 A1 0.0000002
  LUNO+3 :   11 A1 0.0000000


Computation Completed


Properties will be evaluated at   0.000000,   0.000000,   0.000000 [a0]

Properties computed using the SCF density matrix


 Multipole Moments:

 ------------------------------------------------------------------------------------
     Multipole            Electronic (a.u.)      Nuclear  (a.u.)        Total (a.u.)
 ------------------------------------------------------------------------------------

 L = 1.  Multiply by 2.5417464519 to convert [e a0] to [Debye]
 Dipole X            :          0.0000000            0.0000000            0.0000000
 Dipole Y            :          0.0000000            0.0000000            0.0000000
 Dipole Z            :         -0.0857893           -1.4805378           -1.5663271
 Magnitude           :                                                    1.5663271

 ------------------------------------------------------------------------------------

*** tstop() called on Joses-MacBook-Pro-2.local at Wed Jul 16 18:57:19 2025
Module time:
	user time   =       2.87 seconds =       0.05 minutes
	system time =       3.41 seconds =       0.06 minutes
	total time  =          1 seconds =       0.02 minutes
Total time:
	user time   =      85.48 seconds =       1.42 minutes
	system time =      69.40 seconds =       1.16 minutes
	total time  =         17 seconds =       0.28 minutes

*** tstart() called on Joses-MacBook-Pro-2.local
*** at Wed Jul 16 18:57:19 2025


         ------------------------------------------------------------
                                   SCF GRAD                          
                          Rob Parrish, Justin Turney,                
                       Andy Simmonett, and Alex Sokolov              
         ------------------------------------------------------------

  ==> Geometry <==

    Molecular point group: c2v
    Full point group: C_inf_v

    Geometry (in Angstrom), charge = 0, multiplicity = 6:

       Center              X                  Y                   Z               Mass       
    ------------   -----------------  -----------------  -----------------  -----------------
         B            0.000000000000     0.000000000000     1.537834187059    11.009305360000
         S            0.000000000000     0.000000000000    -0.529539862026    31.972071174400

  Nuclear repulsion =   20.477270125513893

  ==> Basis Set <==

  Basis Set: CC-PVDZ
    Blend: CC-PVDZ
    Number of shells: 14
    Number of basis functions: 32
    Number of Cartesian functions: 34
    Spherical Harmonics?: true
    Max angular momentum: 2

  ==> DFJKGrad: Density-Fitted SCF Gradients <==

    Gradient:                    1
    J tasked:                  Yes
    K tasked:                  Yes
    wK tasked:                  No
    OpenMP threads:              1
    Integrals threads:           1
    Memory [MiB]:              375
    Schwarz Cutoff:          1E-12
    Fitting Condition:       1E-10

   => Auxiliary Basis Set <=

  Basis Set: (CC-PVDZ AUX)
    Blend: CC-PVDZ-JKFIT
    Number of shells: 60
    Number of basis functions: 182
    Number of Cartesian functions: 211
    Spherical Harmonics?: true
    Max angular momentum: 3

  ==> DFT Potential <==

   => LibXC <=

    Version 6.2.2
    S. Lehtola, C. Steigemann, M. J.T. Oliveira, and M. A.L. Marques.,  SoftwareX 7, 1–5 (2018) (10.1016/j.softx.2017.11.002)

   => Composite Functional: B3LYP <= 

    B3LYP Hyb-GGA Exchange-Correlation Functional

    P. J. Stephens, F. J. Devlin, C. F. Chabalowski, and M. J. Frisch.,  J. Phys. Chem. 98, 11623 (1994) (10.1021/j100096a001)

    Deriv               =              1
    GGA                 =           TRUE
    Meta                =          FALSE

    Exchange Hybrid     =           TRUE
    MP2 Hybrid          =          FALSE

   => Exchange Functionals <=

    0.0800   Slater exchange
    0.7200         Becke 88

   => Exact (HF) Exchange <=

    0.2000               HF 

   => Correlation Functionals <=

    0.1900   Vosko, Wilk & Nusair (VWN5_RPA)
    0.8100   Lee, Yang & Parr

   => LibXC Density Thresholds  <==

    XC_HYB_GGA_XC_B3LYP:  1.00E-15 

   => Molecular Quadrature <=

    Radial Scheme          =       TREUTLER
    Pruning Scheme         =           NONE
    Nuclear Scheme         =       TREUTLER

    Blocking Scheme        =         OCTREE
    BS radius alpha        =              1
    Pruning alpha          =              1
    Radial Points          =             75
    Spherical Points       =            302
    Total Points           =          42024
    Total Blocks           =            386
    Max Points             =            256
    Max Functions          =             32
    Weights Tolerance      =       1.00E-15


  -Total Gradient:
     Atom            X                  Y                   Z
    ------   -----------------  -----------------  -----------------
       1        0.000000000000    -0.000000000000    -0.000023610594
       2       -0.000000000000     0.000000000000     0.000024806913


*** tstop() called on Joses-MacBook-Pro-2.local at Wed Jul 16 18:57:19 2025
Module time:
	user time   =       1.18 seconds =       0.02 minutes
	system time =       1.60 seconds =       0.03 minutes
	total time  =          0 seconds =       0.00 minutes
Total time:
	user time   =      86.66 seconds =       1.44 minutes
	system time =      71.01 seconds =       1.18 minutes
	total time  =         17 seconds =       0.28 minutes

    			-----------------------------------------

    			 OPTKING 3.0: for geometry optimizations 

    			     By R.A. King, Bethel University     

    			        with contributions from          

    			    A.V. Copan, J. Cayton, A. Heide      

    			-----------------------------------------

    
	                            ===> Fragment 1 <== 

	 Z (Atomic Numbers)          Masses                          Geom                  
	       5.000000            11.009305          0.00000000  0.00000000  2.90608544   
	      16.000000            31.972071          0.00000000  0.00000000 -1.00068531   

	 - Coordinate -           - BOHR/RAD -       - ANG/DEG -
	 R(1,2)           =         3.906771           2.067374


	        --- Internal Coordinate Step in ANG or DEG, aJ/ANG or AJ/DEG ---
	-------------------------------------------------------------------------------
	           Coordinate      Previous         Force          Change          New 
	           ----------      --------        ------          ------        ------
	               R(1,2)       2.06737        0.00020        0.00016       2.06753
	-------------------------------------------------------------------------------

	                                 ==> Convergence Check <==                                  
    
	Measures of convergence in internal coordinates in au.
    
	Criteria marked as inactive (o), active & met (*), and active & unmet ( ).

	----------------------------------------------------------------------------------------------
	   Step    Total Energy     Delta E     Max Force     RMS Force      Max Disp      RMS Disp   
	----------------------------------------------------------------------------------------------
	  Convergence Criteria     1.00e-06 *    3.00e-04 *             o    1.20e-03 *             o
	----------------------------------------------------------------------------------------------
	    13    -422.70577073   -2.13e-07 *    2.42e-05 *    2.42e-05 o    3.03e-04 *    3.03e-04 o  ~
	----------------------------------------------------------------------------------------------

Next Geometry in Ang 
	Fragment 1 (Ang)

	    B   0.0000000000   0.0000000000   1.5379144727
	    S   0.0000000000   0.0000000000  -0.5296201477


    Final optimized geometry and variables:
    Molecular point group: c2v
    Full point group: C_inf_v

    Geometry (in Angstrom), charge = 0, multiplicity = 6:

    B            0.000000000000     0.000000000000     1.537834187059
    S            0.000000000000     0.000000000000    -0.529539862026


    Psi4 stopped on: Wednesday, 16 July 2025 06:57PM
    Psi4 wall time for execution: 0:00:18.32

*** Psi4 exiting successfully. Buy a developer a beer!
