
    -----------------------------------------------------------------------
          Psi4: An Open-Source Ab Initio Electronic Structure Package
                               Psi4 1.9.1 release

                         Git: Rev {} zzzzzzz 


    D. G. A. Smith, L. A. Burns, A. C. Simmonett, R. M. Parrish,
    M. C. Schieber, R. Galvelis, P. Kraus, H. Kruse, R. Di Remigio,
    A. Alenaizan, A. M. James, S. Lehtola, J. P. Misiewicz, M. Scheurer,
    R. A. Shaw, J. B. Schriber, Y. Xie, Z. L. Glick, D. A. Sirianni,
    J. S. O'Brien, J. M. Waldrop, A. Kumar, E. G. Hohenstein,
    B. P. Pritchard, B. R. Brooks, H. F. Schaefer III, A. Yu. Sokolov,
    K. Patkowski, A. E. DePrince III, U. Bozkaya, R. A. King,
    F. A. Evangelista, J. M. Turney, T. D. Crawford, C. D. Sherrill,
    J. Chem. Phys. 152(18) 184108 (2020). https://doi.org/10.1063/5.0006002

                            Additional Code Authors
    E. T. Seidl, C. L. Janssen, E. F. Valeev, M. L. Leininger,
    J. F. Gonthier, R. M. Richard, H. R. McAlexander, M. Saitow, X. Wang,
    P. Verma, M. H. Lechner, A. Jiang, S. Behnle, A. G. Heide,
    M. F. Herbst, and D. L. Poole

             Previous Authors, Complete List of Code Contributors,
                       and Citations for Specific Modules
    https://github.com/psi4/psi4/blob/master/codemeta.json
    https://github.com/psi4/psi4/graphs/contributors
    http://psicode.org/psi4manual/master/introduction.html#citing-psifour

    -----------------------------------------------------------------------


    Psi4 started on: Wednesday, 16 July 2025 07:00PM

    Process ID: 68773
    Host:       Joses-MacBook-Pro-2.local
    PSIDATADIR: /Users/joseantoniorodriguesromero/anaconda3/share/psi4
    Memory:     500.0 MiB
    Threads:    1
    
  ==> Input File <==

--------------------------------------------------------------------------
molecule { 
0 6
C   0.00000        0.60000        0.00000
F   0.00000       -0.60000        0.00000
}

set { 
basis              cc-pvdz
reference          uks
maxiter            500
geom_maxiter       500
DAMPING_PERCENTAGE 1
guess              SAP
}

optimize('b3lyp')
--------------------------------------------------------------------------

Scratch directory: /tmp/
gradient() will perform analytic gradient computation.
   => Libint2 <=

    Primary   basis highest AM E, G, H:  6, 6, 3
    Auxiliary basis highest AM E, G, H:  7, 7, 4
    Onebody   basis highest AM E, G, H:  -, -, -
    Solid Harmonics ordering:            Gaussian

*** tstart() called on Joses-MacBook-Pro-2.local
*** at Wed Jul 16 19:00:17 2025

   => Loading Basis Set <=

    Name: CC-PVDZ
    Role: ORBITAL
    Keyword: BASIS
    atoms 1 entry C          line   138 file /Users/joseantoniorodriguesromero/anaconda3/share/psi4/basis/cc-pvdz.gbs 
    atoms 2 entry F          line   228 file /Users/joseantoniorodriguesromero/anaconda3/share/psi4/basis/cc-pvdz.gbs 


         ---------------------------------------------------------
                                   SCF
               by Justin Turney, Rob Parrish, Andy Simmonett
                          and Daniel G. A. Smith
                              UKS Reference
                        1 Threads,    500 MiB Core
         ---------------------------------------------------------

  ==> Geometry <==

    Molecular point group: c2v
    Full point group: C_inf_v

    Geometry (in Angstrom), charge = 0, multiplicity = 6:

       Center              X                  Y                   Z               Mass       
    ------------   -----------------  -----------------  -----------------  -----------------
         C            0.000000000000     0.000000000000     0.735459942101    12.000000000000
         F            0.000000000000     0.000000000000    -0.464540057899    18.998403162730

  Running in c2v symmetry.

  Rotational constants: A = ************  B =      1.59175  C =      1.59175 [cm^-1]
  Rotational constants: A = ************  B =  47719.47797  C =  47719.47797 [MHz]
  Nuclear repulsion =   23.812974480150004

  Charge       = 0
  Multiplicity = 6
  Electrons    = 15
  Nalpha       = 10
  Nbeta        = 5

  ==> Algorithm <==

  SCF Algorithm Type is DF.
  DIIS enabled.
  MOM disabled.
  Fractional occupation disabled.
  Guess Type is SAP.
  Energy threshold   = 1.00e-08
  Density threshold  = 1.00e-08
  Integral threshold = 1.00e-12

  ==> Primary Basis <==

  Basis Set: CC-PVDZ
    Blend: CC-PVDZ
    Number of shells: 12
    Number of basis functions: 28
    Number of Cartesian functions: 30
    Spherical Harmonics?: true
    Max angular momentum: 2

  ==> DFT Potential <==

   => LibXC <=

    Version 6.2.2
    S. Lehtola, C. Steigemann, M. J.T. Oliveira, and M. A.L. Marques.,  SoftwareX 7, 1–5 (2018) (10.1016/j.softx.2017.11.002)

   => Composite Functional: B3LYP <= 

    B3LYP Hyb-GGA Exchange-Correlation Functional

    P. J. Stephens, F. J. Devlin, C. F. Chabalowski, and M. J. Frisch.,  J. Phys. Chem. 98, 11623 (1994) (10.1021/j100096a001)

    Deriv               =              1
    GGA                 =           TRUE
    Meta                =          FALSE

    Exchange Hybrid     =           TRUE
    MP2 Hybrid          =          FALSE

   => Exchange Functionals <=

    0.0800   Slater exchange
    0.7200         Becke 88

   => Exact (HF) Exchange <=

    0.2000               HF 

   => Correlation Functionals <=

    0.1900   Vosko, Wilk & Nusair (VWN5_RPA)
    0.8100   Lee, Yang & Parr

   => LibXC Density Thresholds  <==

    XC_HYB_GGA_XC_B3LYP:  1.00E-15 

   => Molecular Quadrature <=

    Radial Scheme          =       TREUTLER
    Pruning Scheme         =           NONE
    Nuclear Scheme         =       TREUTLER

    Blocking Scheme        =         OCTREE
    BS radius alpha        =              1
    Pruning alpha          =              1
    Radial Points          =             75
    Spherical Points       =            302
    Total Points           =          43222
    Total Blocks           =            387
    Max Points             =            254
    Max Functions          =             28
    Weights Tolerance      =       1.00E-15

   => Loading Basis Set <=

    Name: (CC-PVDZ AUX)
    Role: JKFIT
    Keyword: DF_BASIS_SCF
    atoms 1 entry C          line   121 file /Users/joseantoniorodriguesromero/anaconda3/share/psi4/basis/cc-pvdz-jkfit.gbs 
    atoms 2 entry F          line   271 file /Users/joseantoniorodriguesromero/anaconda3/share/psi4/basis/cc-pvdz-jkfit.gbs 

  ==> Integral Setup <==

  DFHelper Memory: AOs need 0.001 GiB; user supplied 0.332 GiB. 
  Using in-core AOs.

  ==> MemDFJK: Density-Fitted J/K Matrices <==

    J tasked:                   Yes
    K tasked:                   Yes
    wK tasked:                   No
    OpenMP threads:               1
    Memory [MiB]:               339
    Algorithm:                 Core
    Schwarz Cutoff:           1E-12
    Mask sparsity (%):       0.0000
    Fitting Condition:        1E-10

   => Auxiliary Basis Set <=

  Basis Set: (CC-PVDZ AUX)
    Blend: CC-PVDZ-JKFIT
    Number of shells: 48
    Number of basis functions: 140
    Number of Cartesian functions: 162
    Spherical Harmonics?: true
    Max angular momentum: 3

  Cached 100.0% of DFT collocation blocks in 0.034 [GiB].

  Minimum eigenvalue in the overlap matrix is 3.5998128127E-02.
  Reciprocal condition number of the overlap matrix is 1.2373533977E-02.
    Using symmetric orthogonalization.

  ==> Pre-Iterations <==

  SCF Guess: Superposition of Atomic Potentials (doi:10.1021/acs.jctc.8b01089).

  ==> SAP guess <==

   => Molecular Quadrature <=

    Radial Scheme          =       TREUTLER
    Pruning Scheme         =           NONE
    Nuclear Scheme         =       TREUTLER

    Blocking Scheme        =         OCTREE
    BS radius alpha        =              1
    Pruning alpha          =              1
    Radial Points          =             75
    Spherical Points       =            302
    Total Points           =          43222
    Total Blocks           =            387
    Max Points             =            254
    Max Functions          =             28
    Weights Tolerance      =       1.00E-15

   -------------------------------------------------------
    Irrep   Nso     Nmo     Nalpha   Nbeta   Ndocc  Nsocc
   -------------------------------------------------------
     A1        14      14       6       4       4       2
     A2         2       2       0       0       0       0
     B1         6       6       2       0       0       2
     B2         6       6       2       1       1       1
   -------------------------------------------------------
    Total      28      28      10       5       5       5
   -------------------------------------------------------

  ==> Iterations <==

                           Total Energy        Delta E     RMS |[F,P]|

   @DF-UKS iter   1:  -136.95388536063172   -1.36954e+02   2.41112e-02 ADIIS/DIIS
   @DF-UKS iter   2:  -136.99005025475796   -3.61649e-02   1.66354e-02 ADIIS/DIIS/DAMP=1%
   @DF-UKS iter   3:  -137.02147324490903   -3.14230e-02   2.07335e-03 ADIIS/DIIS/DAMP=1%
   @DF-UKS iter   4:  -137.02457817872880   -3.10493e-03   9.38898e-04 ADIIS/DIIS/DAMP=1%
   @DF-UKS iter   5:  -137.02560378392161   -1.02561e-03   1.45296e-04 ADIIS/DIIS/DAMP=1%
   @DF-UKS iter   6:  -137.02512535069559    4.78433e-04   1.69238e-05 DIIS/DAMP=1%
   @DF-UKS iter   7:  -137.02520538905569   -8.00384e-05   2.71185e-06 DIIS/DAMP=1%
   @DF-UKS iter   8:  -137.02519767908259    7.70997e-06   2.00154e-07 DIIS/DAMP=1%
   @DF-UKS iter   9:  -137.02519859594773   -9.16865e-07   1.40887e-08 DIIS/DAMP=1%
   @DF-UKS iter  10:  -137.02519859432203    1.62569e-09   2.79330e-09 DIIS/DAMP=1%
  Energy and wave function converged.


  ==> Post-Iterations <==

   Electrons on quadrature grid:
      Nalpha   =    9.9999997488 ; deviation = -2.512e-07
      Nbeta    =    4.9999997939 ; deviation = -2.061e-07
      Ntotal   =   14.9999995427 ; deviation = -4.573e-07 

   @Spin Contamination Metric:   1.840249671E-03
   @S^2 Expected:                8.750000000E+00
   @S^2 Observed:                8.751840250E+00
   @S   Expected:                2.500000000E+00
   @S   Observed:                2.500000000E+00

    Orbital Energies [Eh]
    ---------------------

    Alpha Occupied:                                                       

       1A1   -25.011796     2A1   -10.315586     3A1    -1.550241  
       4A1    -0.858584     1B1    -0.798155     1B2    -0.716974  
       5A1    -0.501343     2B1    -0.264373     2B2    -0.247198  
       6A1     0.054442  

    Alpha Virtual:                                                        

       3B1     0.409810     3B2     0.417062     7A1     0.471427  
       8A1     0.505556     9A1     0.899395     4B1     0.964244  
       4B2     1.010861     1A2     1.050271    10A1     1.050412  
       5B1     1.193683     5B2     1.212190    11A1     1.693130  
      12A1     1.972833    13A1     3.259151     2A2     3.259829  
       6B1     3.568895     6B2     3.631155    14A1     3.982798  

    Beta Occupied:                                                        

       1A1   -24.962111     2A1   -10.258582     3A1    -1.424743  
       4A1    -0.778738     1B2    -0.644505  

    Beta Virtual:                                                         

       1B1    -0.476784     5A1    -0.183941     2B2     0.004861  
       2B1     0.019159     6A1     0.219318     3B2     0.526248  
       3B1     0.529192     7A1     0.593879     8A1     0.646552  
       9A1     0.953222     4B2     1.066083     4B1     1.095416  
       1A2     1.221294    10A1     1.223115     5B2     1.337414  
       5B1     1.342029    11A1     1.834443    12A1     2.040241  
       2A2     3.376436    13A1     3.388056     6B2     3.683300  
       6B1     3.694485    14A1     4.059844  

    Final Occupation by Irrep:
             A1    A2    B1    B2 
    DOCC [     4,    0,    0,    1 ]
    SOCC [     2,    0,    2,    1 ]
    NA   [     6,    0,    2,    2 ]
    NB   [     4,    0,    0,    1 ]

  @DF-UKS Final Energy:  -137.02519859432203

   => Energetics <=

    Nuclear Repulsion Energy =             23.8129744801500038
    One-Electron Energy =                -234.2416499295188146
    Two-Electron Energy =                  86.1642754832153486
    DFT Exchange-Correlation Energy =     -12.7607986281685584
    Empirical Dispersion Energy =           0.0000000000000000
    VV10 Nonlocal Energy =                  0.0000000000000000
    Total Energy =                       -137.0251985943220348

  UHF NO Occupations:
  HONO-2 :    1 B1 1.0000000
  HONO-1 :    2 B1 1.0000000
  HONO-0 :    6 A1 1.0000000
  LUNO+0 :    3 B2 0.0003631
  LUNO+1 :    7 A1 0.0003580
  LUNO+2 :    8 A1 0.0001985
  LUNO+3 :    9 A1 0.0000006


Computation Completed


Properties will be evaluated at   0.000000,   0.000000,   0.000000 [a0]

Properties computed using the SCF density matrix


 Multipole Moments:

 ------------------------------------------------------------------------------------
     Multipole            Electronic (a.u.)      Nuclear  (a.u.)        Total (a.u.)
 ------------------------------------------------------------------------------------

 L = 1.  Multiply by 2.5417464519 to convert [e a0] to [Debye]
 Dipole X            :          0.0000000            0.0000000            0.0000000
 Dipole Y            :          0.0000000            0.0000000            0.0000000
 Dipole Z            :         -1.3934761            0.4382258           -0.9552502
 Magnitude           :                                                    0.9552502

 ------------------------------------------------------------------------------------

*** tstop() called on Joses-MacBook-Pro-2.local at Wed Jul 16 19:00:18 2025
Module time:
	user time   =       3.80 seconds =       0.06 minutes
	system time =       3.69 seconds =       0.06 minutes
	total time  =          1 seconds =       0.02 minutes
Total time:
	user time   =       3.80 seconds =       0.06 minutes
	system time =       3.69 seconds =       0.06 minutes
	total time  =          1 seconds =       0.02 minutes

*** tstart() called on Joses-MacBook-Pro-2.local
*** at Wed Jul 16 19:00:18 2025


         ------------------------------------------------------------
                                   SCF GRAD                          
                          Rob Parrish, Justin Turney,                
                       Andy Simmonett, and Alex Sokolov              
         ------------------------------------------------------------

  ==> Geometry <==

    Molecular point group: c2v
    Full point group: C_inf_v

    Geometry (in Angstrom), charge = 0, multiplicity = 6:

       Center              X                  Y                   Z               Mass       
    ------------   -----------------  -----------------  -----------------  -----------------
         C            0.000000000000     0.000000000000     0.735459942101    12.000000000000
         F            0.000000000000     0.000000000000    -0.464540057899    18.998403162730

  Nuclear repulsion =   23.812974480150004

  ==> Basis Set <==

  Basis Set: CC-PVDZ
    Blend: CC-PVDZ
    Number of shells: 12
    Number of basis functions: 28
    Number of Cartesian functions: 30
    Spherical Harmonics?: true
    Max angular momentum: 2

  ==> DFJKGrad: Density-Fitted SCF Gradients <==

    Gradient:                    1
    J tasked:                  Yes
    K tasked:                  Yes
    wK tasked:                  No
    OpenMP threads:              1
    Integrals threads:           1
    Memory [MiB]:              375
    Schwarz Cutoff:          1E-12
    Fitting Condition:       1E-10

   => Auxiliary Basis Set <=

  Basis Set: (CC-PVDZ AUX)
    Blend: CC-PVDZ-JKFIT
    Number of shells: 48
    Number of basis functions: 140
    Number of Cartesian functions: 162
    Spherical Harmonics?: true
    Max angular momentum: 3

  ==> DFT Potential <==

   => LibXC <=

    Version 6.2.2
    S. Lehtola, C. Steigemann, M. J.T. Oliveira, and M. A.L. Marques.,  SoftwareX 7, 1–5 (2018) (10.1016/j.softx.2017.11.002)

   => Composite Functional: B3LYP <= 

    B3LYP Hyb-GGA Exchange-Correlation Functional

    P. J. Stephens, F. J. Devlin, C. F. Chabalowski, and M. J. Frisch.,  J. Phys. Chem. 98, 11623 (1994) (10.1021/j100096a001)

    Deriv               =              1
    GGA                 =           TRUE
    Meta                =          FALSE

    Exchange Hybrid     =           TRUE
    MP2 Hybrid          =          FALSE

   => Exchange Functionals <=

    0.0800   Slater exchange
    0.7200         Becke 88

   => Exact (HF) Exchange <=

    0.2000               HF 

   => Correlation Functionals <=

    0.1900   Vosko, Wilk & Nusair (VWN5_RPA)
    0.8100   Lee, Yang & Parr

   => LibXC Density Thresholds  <==

    XC_HYB_GGA_XC_B3LYP:  1.00E-15 

   => Molecular Quadrature <=

    Radial Scheme          =       TREUTLER
    Pruning Scheme         =           NONE
    Nuclear Scheme         =       TREUTLER

    Blocking Scheme        =         OCTREE
    BS radius alpha        =              1
    Pruning alpha          =              1
    Radial Points          =             75
    Spherical Points       =            302
    Total Points           =          43222
    Total Blocks           =            387
    Max Points             =            254
    Max Functions          =             28
    Weights Tolerance      =       1.00E-15


  -Total Gradient:
     Atom            X                  Y                   Z
    ------   -----------------  -----------------  -----------------
       1        0.000000000000    -0.000000000000    -0.605549779489
       2        0.000000000000    -0.000000000000     0.605563268269


*** tstop() called on Joses-MacBook-Pro-2.local at Wed Jul 16 19:00:18 2025
Module time:
	user time   =       0.67 seconds =       0.01 minutes
	system time =       1.03 seconds =       0.02 minutes
	total time  =          0 seconds =       0.00 minutes
Total time:
	user time   =       4.47 seconds =       0.07 minutes
	system time =       4.72 seconds =       0.08 minutes
	total time  =          1 seconds =       0.02 minutes

    			-----------------------------------------

    			 OPTKING 3.0: for geometry optimizations 

    			     By R.A. King, Bethel University     

    			        with contributions from          

    			    A.V. Copan, J. Cayton, A. Heide      

    			-----------------------------------------

    
	                            ===> Fragment 1 <== 

	 Z (Atomic Numbers)          Masses                          Geom                  
	       6.000000            12.000000          0.00000000  0.00000000  1.38981787   
	       9.000000            18.998403          0.00000000  0.00000000 -0.87785348   

	 - Coordinate -           - BOHR/RAD -       - ANG/DEG -
	 R(1,2)           =         2.267671           1.200000


	        --- Internal Coordinate Step in ANG or DEG, aJ/ANG or AJ/DEG ---
	-------------------------------------------------------------------------------
	           Coordinate      Previous         Force          Change          New 
	           ----------      --------        ------          ------        ------
	               R(1,2)       1.20000        4.98901        0.24185       1.44185
	-------------------------------------------------------------------------------

	                                 ==> Convergence Check <==                                  
    
	Measures of convergence in internal coordinates in au.
    
	Criteria marked as inactive (o), active & met (*), and active & unmet ( ).

	----------------------------------------------------------------------------------------------
	   Step    Total Energy     Delta E     Max Force     RMS Force      Max Disp      RMS Disp   
	----------------------------------------------------------------------------------------------
	  Convergence Criteria     1.00e-06 *    3.00e-04 *             o    1.20e-03 *             o
	----------------------------------------------------------------------------------------------
	     1    -137.02519859   -1.37e+02      6.06e-01      6.06e-01 o    4.57e-01      4.57e-01 o  ~
	----------------------------------------------------------------------------------------------

Next Geometry in Ang 
	Fragment 1 (Ang)

	    C   0.0000000000   0.0000000000   0.8563844066
	    F   0.0000000000   0.0000000000  -0.5854645224


    Structure for next step:
    Molecular point group: c2v
    Full point group: C_inf_v

    Geometry (in Angstrom), charge = 0, multiplicity = 6:

    C            0.000000000000     0.000000000000     0.883685108146
    F            0.000000000000     0.000000000000    -0.558163820766


Scratch directory: /tmp/
gradient() will perform analytic gradient computation.
   => Libint2 <=

    Primary   basis highest AM E, G, H:  6, 6, 3
    Auxiliary basis highest AM E, G, H:  7, 7, 4
    Onebody   basis highest AM E, G, H:  -, -, -
    Solid Harmonics ordering:            Gaussian

*** tstart() called on Joses-MacBook-Pro-2.local
*** at Wed Jul 16 19:00:18 2025

   => Loading Basis Set <=

    Name: CC-PVDZ
    Role: ORBITAL
    Keyword: BASIS
    atoms 1 entry C          line   138 file /Users/joseantoniorodriguesromero/anaconda3/share/psi4/basis/cc-pvdz.gbs 
    atoms 2 entry F          line   228 file /Users/joseantoniorodriguesromero/anaconda3/share/psi4/basis/cc-pvdz.gbs 


         ---------------------------------------------------------
                                   SCF
               by Justin Turney, Rob Parrish, Andy Simmonett
                          and Daniel G. A. Smith
                              UKS Reference
                        1 Threads,    500 MiB Core
         ---------------------------------------------------------

  ==> Geometry <==

    Molecular point group: c2v
    Full point group: C_inf_v

    Geometry (in Angstrom), charge = 0, multiplicity = 6:

       Center              X                  Y                   Z               Mass       
    ------------   -----------------  -----------------  -----------------  -----------------
         C            0.000000000000     0.000000000000     0.883685108146    12.000000000000
         F            0.000000000000     0.000000000000    -0.558163820766    18.998403162730

  Running in c2v symmetry.

  Rotational constants: A = ************  B =      1.10255  C =      1.10255 [cm^-1]
  Rotational constants: A = ************  B =  33053.59168  C =  33053.59168 [MHz]
  Nuclear repulsion =   19.818698618963836

  Charge       = 0
  Multiplicity = 6
  Electrons    = 15
  Nalpha       = 10
  Nbeta        = 5

  ==> Algorithm <==

  SCF Algorithm Type is DF.
  DIIS enabled.
  MOM disabled.
  Fractional occupation disabled.
  Guess Type is READ.
  Energy threshold   = 1.00e-08
  Density threshold  = 1.00e-08
  Integral threshold = 1.00e-12

  ==> Primary Basis <==

  Basis Set: CC-PVDZ
    Blend: CC-PVDZ
    Number of shells: 12
    Number of basis functions: 28
    Number of Cartesian functions: 30
    Spherical Harmonics?: true
    Max angular momentum: 2

  ==> DFT Potential <==

   => LibXC <=

    Version 6.2.2
    S. Lehtola, C. Steigemann, M. J.T. Oliveira, and M. A.L. Marques.,  SoftwareX 7, 1–5 (2018) (10.1016/j.softx.2017.11.002)

   => Composite Functional: B3LYP <= 

    B3LYP Hyb-GGA Exchange-Correlation Functional

    P. J. Stephens, F. J. Devlin, C. F. Chabalowski, and M. J. Frisch.,  J. Phys. Chem. 98, 11623 (1994) (10.1021/j100096a001)

    Deriv               =              1
    GGA                 =           TRUE
    Meta                =          FALSE

    Exchange Hybrid     =           TRUE
    MP2 Hybrid          =          FALSE

   => Exchange Functionals <=

    0.0800   Slater exchange
    0.7200         Becke 88

   => Exact (HF) Exchange <=

    0.2000               HF 

   => Correlation Functionals <=

    0.1900   Vosko, Wilk & Nusair (VWN5_RPA)
    0.8100   Lee, Yang & Parr

   => LibXC Density Thresholds  <==

    XC_HYB_GGA_XC_B3LYP:  1.00E-15 

   => Molecular Quadrature <=

    Radial Scheme          =       TREUTLER
    Pruning Scheme         =           NONE
    Nuclear Scheme         =       TREUTLER

    Blocking Scheme        =         OCTREE
    BS radius alpha        =              1
    Pruning alpha          =              1
    Radial Points          =             75
    Spherical Points       =            302
    Total Points           =          43264
    Total Blocks           =            386
    Max Points             =            255
    Max Functions          =             28
    Weights Tolerance      =       1.00E-15

   => Loading Basis Set <=

    Name: (CC-PVDZ AUX)
    Role: JKFIT
    Keyword: DF_BASIS_SCF
    atoms 1 entry C          line   121 file /Users/joseantoniorodriguesromero/anaconda3/share/psi4/basis/cc-pvdz-jkfit.gbs 
    atoms 2 entry F          line   271 file /Users/joseantoniorodriguesromero/anaconda3/share/psi4/basis/cc-pvdz-jkfit.gbs 

   => Loading Basis Set <=

    Name: CC-PVDZ
    Role: ORBITAL
    Keyword: BASIS
    atoms 1 entry C          line   138 file /Users/joseantoniorodriguesromero/anaconda3/share/psi4/basis/cc-pvdz.gbs 
    atoms 2 entry F          line   228 file /Users/joseantoniorodriguesromero/anaconda3/share/psi4/basis/cc-pvdz.gbs 

  Reading orbitals from file /tmp/sextet_CF.default.68773.180.npy, no projection.

  ==> Integral Setup <==

  DFHelper Memory: AOs need 0.001 GiB; user supplied 0.332 GiB. 
  Using in-core AOs.

  ==> MemDFJK: Density-Fitted J/K Matrices <==

    J tasked:                   Yes
    K tasked:                   Yes
    wK tasked:                   No
    OpenMP threads:               1
    Memory [MiB]:               339
    Algorithm:                 Core
    Schwarz Cutoff:           1E-12
    Mask sparsity (%):       0.0000
    Fitting Condition:        1E-10

   => Auxiliary Basis Set <=

  Basis Set: (CC-PVDZ AUX)
    Blend: CC-PVDZ-JKFIT
    Number of shells: 48
    Number of basis functions: 140
    Number of Cartesian functions: 162
    Spherical Harmonics?: true
    Max angular momentum: 3

  Cached 100.0% of DFT collocation blocks in 0.034 [GiB].

  Minimum eigenvalue in the overlap matrix is 4.8107825691E-02.
  Reciprocal condition number of the overlap matrix is 1.7803892167E-02.
    Using symmetric orthogonalization.

  ==> Pre-Iterations <==

  SCF Guess: Orbitals guess was supplied from a previous computation.

   -------------------------------------------------------
    Irrep   Nso     Nmo     Nalpha   Nbeta   Ndocc  Nsocc
   -------------------------------------------------------
     A1        14      14       6       4       4       2
     A2         2       2       0       0       0       0
     B1         6       6       2       0       0       2
     B2         6       6       2       1       1       1
   -------------------------------------------------------
    Total      28      28      10       5       5       5
   -------------------------------------------------------

  ==> Iterations <==

                           Total Energy        Delta E     RMS |[F,P]|

   @DF-UKS iter   0:  -137.20176582928099   -1.37202e+02   8.58315e-02 
   @DF-UKS iter   1:  -137.23180622678865   -3.00404e-02   6.97149e-03 ADIIS/DIIS
   @DF-UKS iter   2:  -137.23695753117053   -5.15130e-03   6.31942e-03 ADIIS/DIIS/DAMP=1%
   @DF-UKS iter   3:  -137.24295916311192   -6.00163e-03   8.64522e-04 ADIIS/DIIS/DAMP=1%
   @DF-UKS iter   4:  -137.24341076428311   -4.51601e-04   3.19340e-04 ADIIS/DIIS/DAMP=1%
   @DF-UKS iter   5:  -137.24275655399143    6.54210e-04   4.14119e-05 DIIS/DAMP=1%
   @DF-UKS iter   6:  -137.24291367112053   -1.57117e-04   3.64167e-06 DIIS/DAMP=1%
   @DF-UKS iter   7:  -137.24290247638942    1.11947e-05   3.89570e-07 DIIS/DAMP=1%
   @DF-UKS iter   8:  -137.24290321374812   -7.37359e-07   6.53912e-08 DIIS/DAMP=1%
   @DF-UKS iter   9:  -137.24290322059679   -6.84867e-09   1.24202e-08 DIIS/DAMP=1%
   @DF-UKS iter  10:  -137.24290321564865    4.94813e-09   7.85214e-10 DIIS/DAMP=1%
  Energy and wave function converged.


  ==> Post-Iterations <==

   Electrons on quadrature grid:
      Nalpha   =   10.0000023854 ; deviation = 2.385e-06
      Nbeta    =    5.0000009439 ; deviation = 9.439e-07
      Ntotal   =   15.0000033293 ; deviation = 3.329e-06 

   @Spin Contamination Metric:   2.457207000E-03
   @S^2 Expected:                8.750000000E+00
   @S^2 Observed:                8.752457207E+00
   @S   Expected:                2.500000000E+00
   @S   Observed:                2.500000000E+00

    Orbital Energies [Eh]
    ---------------------

    Alpha Occupied:                                                       

       1A1   -24.922604     2A1   -10.231803     3A1    -1.397014  
       4A1    -0.740480     1B1    -0.688745     1B2    -0.604063  
       5A1    -0.485325     2B1    -0.239204     2B2    -0.229825  
       6A1    -0.054852  

    Alpha Virtual:                                                        

       7A1     0.427207     3B1     0.461593     3B2     0.466289  
       8A1     0.539765     4B1     0.948997     4B2     0.988697  
       9A1     1.005394     1A2     1.107948    10A1     1.108002  
       5B1     1.238319     5B2     1.260340    11A1     1.497375  
      12A1     2.023495    13A1     3.325807     2A2     3.327850  
       6B1     3.457119     6B2     3.522620    14A1     3.771124  

    Beta Occupied:                                                        

       1A1   -24.873662     2A1   -10.169360     3A1    -1.269801  
       4A1    -0.630433     1B2    -0.544679  

    Beta Virtual:                                                         

       1B1    -0.374814     5A1    -0.180857     2B2     0.022295  
       2B1     0.028929     6A1     0.173285     7A1     0.530012  
       3B2     0.584896     3B1     0.585018     8A1     0.674441  
       4B2     1.055857     9A1     1.065168     4B1     1.085447  
       1A2     1.284221    10A1     1.284499     5B2     1.378184  
       5B1     1.382580    11A1     1.649256    12A1     2.094691  
       2A2     3.438778    13A1     3.450610     6B2     3.573594  
       6B1     3.586227    14A1     3.858346  

    Final Occupation by Irrep:
             A1    A2    B1    B2 
    DOCC [     4,    0,    0,    1 ]
    SOCC [     2,    0,    2,    1 ]
    NA   [     6,    0,    2,    2 ]
    NB   [     4,    0,    0,    1 ]

  @DF-UKS Final Energy:  -137.24290321564865

   => Energetics <=

    Nuclear Repulsion Energy =             19.8186986189638361
    One-Electron Energy =                -227.8967012858965404
    Two-Electron Energy =                  83.5775830548939780
    DFT Exchange-Correlation Energy =     -12.7424836036099034
    Empirical Dispersion Energy =           0.0000000000000000
    VV10 Nonlocal Energy =                  0.0000000000000000
    Total Energy =                       -137.2429032156486528

  UHF NO Occupations:
  HONO-2 :    1 B1 1.0000000
  HONO-1 :    6 A1 1.0000000
  HONO-0 :    2 B1 1.0000000
  LUNO+0 :    7 A1 0.0006115
  LUNO+1 :    3 B2 0.0003410
  LUNO+2 :    8 A1 0.0002757
  LUNO+3 :    9 A1 0.0000006


Computation Completed


Properties will be evaluated at   0.000000,   0.000000,   0.000000 [a0]

Properties computed using the SCF density matrix


 Multipole Moments:

 ------------------------------------------------------------------------------------
     Multipole            Electronic (a.u.)      Nuclear  (a.u.)        Total (a.u.)
 ------------------------------------------------------------------------------------

 L = 1.  Multiply by 2.5417464519 to convert [e a0] to [Debye]
 Dipole X            :          0.0000000            0.0000000            0.0000000
 Dipole Y            :          0.0000000            0.0000000            0.0000000
 Dipole Z            :         -1.3725520            0.5265462           -0.8460058
 Magnitude           :                                                    0.8460058

 ------------------------------------------------------------------------------------

*** tstop() called on Joses-MacBook-Pro-2.local at Wed Jul 16 19:00:18 2025
Module time:
	user time   =       3.16 seconds =       0.05 minutes
	system time =       3.40 seconds =       0.06 minutes
	total time  =          0 seconds =       0.00 minutes
Total time:
	user time   =       7.67 seconds =       0.13 minutes
	system time =       8.33 seconds =       0.14 minutes
	total time  =          1 seconds =       0.02 minutes

*** tstart() called on Joses-MacBook-Pro-2.local
*** at Wed Jul 16 19:00:18 2025


         ------------------------------------------------------------
                                   SCF GRAD                          
                          Rob Parrish, Justin Turney,                
                       Andy Simmonett, and Alex Sokolov              
         ------------------------------------------------------------

  ==> Geometry <==

    Molecular point group: c2v
    Full point group: C_inf_v

    Geometry (in Angstrom), charge = 0, multiplicity = 6:

       Center              X                  Y                   Z               Mass       
    ------------   -----------------  -----------------  -----------------  -----------------
         C            0.000000000000     0.000000000000     0.883685108146    12.000000000000
         F            0.000000000000     0.000000000000    -0.558163820766    18.998403162730

  Nuclear repulsion =   19.818698618963836

  ==> Basis Set <==

  Basis Set: CC-PVDZ
    Blend: CC-PVDZ
    Number of shells: 12
    Number of basis functions: 28
    Number of Cartesian functions: 30
    Spherical Harmonics?: true
    Max angular momentum: 2

  ==> DFJKGrad: Density-Fitted SCF Gradients <==

    Gradient:                    1
    J tasked:                  Yes
    K tasked:                  Yes
    wK tasked:                  No
    OpenMP threads:              1
    Integrals threads:           1
    Memory [MiB]:              375
    Schwarz Cutoff:          1E-12
    Fitting Condition:       1E-10

   => Auxiliary Basis Set <=

  Basis Set: (CC-PVDZ AUX)
    Blend: CC-PVDZ-JKFIT
    Number of shells: 48
    Number of basis functions: 140
    Number of Cartesian functions: 162
    Spherical Harmonics?: true
    Max angular momentum: 3

  ==> DFT Potential <==

   => LibXC <=

    Version 6.2.2
    S. Lehtola, C. Steigemann, M. J.T. Oliveira, and M. A.L. Marques.,  SoftwareX 7, 1–5 (2018) (10.1016/j.softx.2017.11.002)

   => Composite Functional: B3LYP <= 

    B3LYP Hyb-GGA Exchange-Correlation Functional

    P. J. Stephens, F. J. Devlin, C. F. Chabalowski, and M. J. Frisch.,  J. Phys. Chem. 98, 11623 (1994) (10.1021/j100096a001)

    Deriv               =              1
    GGA                 =           TRUE
    Meta                =          FALSE

    Exchange Hybrid     =           TRUE
    MP2 Hybrid          =          FALSE

   => Exchange Functionals <=

    0.0800   Slater exchange
    0.7200         Becke 88

   => Exact (HF) Exchange <=

    0.2000               HF 

   => Correlation Functionals <=

    0.1900   Vosko, Wilk & Nusair (VWN5_RPA)
    0.8100   Lee, Yang & Parr

   => LibXC Density Thresholds  <==

    XC_HYB_GGA_XC_B3LYP:  1.00E-15 

   => Molecular Quadrature <=

    Radial Scheme          =       TREUTLER
    Pruning Scheme         =           NONE
    Nuclear Scheme         =       TREUTLER

    Blocking Scheme        =         OCTREE
    BS radius alpha        =              1
    Pruning alpha          =              1
    Radial Points          =             75
    Spherical Points       =            302
    Total Points           =          43264
    Total Blocks           =            386
    Max Points             =            255
    Max Functions          =             28
    Weights Tolerance      =       1.00E-15


  -Total Gradient:
     Atom            X                  Y                   Z
    ------   -----------------  -----------------  -----------------
       1       -0.000000000000     0.000000000000    -0.343941919287
       2       -0.000000000000     0.000000000000     0.343960684607


*** tstop() called on Joses-MacBook-Pro-2.local at Wed Jul 16 19:00:19 2025
Module time:
	user time   =       0.61 seconds =       0.01 minutes
	system time =       1.31 seconds =       0.02 minutes
	total time  =          1 seconds =       0.02 minutes
Total time:
	user time   =       8.28 seconds =       0.14 minutes
	system time =       9.64 seconds =       0.16 minutes
	total time  =          2 seconds =       0.03 minutes

    			-----------------------------------------

    			 OPTKING 3.0: for geometry optimizations 

    			     By R.A. King, Bethel University     

    			        with contributions from          

    			    A.V. Copan, J. Cayton, A. Heide      

    			-----------------------------------------

    
	                            ===> Fragment 1 <== 

	 Z (Atomic Numbers)          Masses                          Geom                  
	       6.000000            12.000000          0.00000000  0.00000000  1.66992284   
	       9.000000            18.998403          0.00000000  0.00000000 -1.05477675   

	 - Coordinate -           - BOHR/RAD -       - ANG/DEG -
	 R(1,2)           =         2.724700           1.441849


	        --- Internal Coordinate Step in ANG or DEG, aJ/ANG or AJ/DEG ---
	-------------------------------------------------------------------------------
	           Coordinate      Previous         Force          Change          New 
	           ----------      --------        ------          ------        ------
	               R(1,2)       1.44185        2.83372        0.24809       1.68994
	-------------------------------------------------------------------------------

	                                 ==> Convergence Check <==                                  
    
	Measures of convergence in internal coordinates in au.
    
	Criteria marked as inactive (o), active & met (*), and active & unmet ( ).

	----------------------------------------------------------------------------------------------
	   Step    Total Energy     Delta E     Max Force     RMS Force      Max Disp      RMS Disp   
	----------------------------------------------------------------------------------------------
	  Convergence Criteria     1.00e-06 *    3.00e-04 *             o    1.20e-03 *             o
	----------------------------------------------------------------------------------------------
	     2    -137.24290322   -2.18e-01      3.44e-01      3.44e-01 o    4.69e-01      4.69e-01 o  ~
	----------------------------------------------------------------------------------------------

Next Geometry in Ang 
	Fragment 1 (Ang)

	    C   0.0000000000   0.0000000000   1.0077291263
	    F   0.0000000000   0.0000000000  -0.6822078389


    Structure for next step:
    Molecular point group: c2v
    Full point group: C_inf_v

    Geometry (in Angstrom), charge = 0, multiplicity = 6:

    C            0.000000000000     0.000000000000     1.035734118851
    F            0.000000000000     0.000000000000    -0.654202846405


Scratch directory: /tmp/
gradient() will perform analytic gradient computation.
   => Libint2 <=

    Primary   basis highest AM E, G, H:  6, 6, 3
    Auxiliary basis highest AM E, G, H:  7, 7, 4
    Onebody   basis highest AM E, G, H:  -, -, -
    Solid Harmonics ordering:            Gaussian

*** tstart() called on Joses-MacBook-Pro-2.local
*** at Wed Jul 16 19:00:19 2025

   => Loading Basis Set <=

    Name: CC-PVDZ
    Role: ORBITAL
    Keyword: BASIS
    atoms 1 entry C          line   138 file /Users/joseantoniorodriguesromero/anaconda3/share/psi4/basis/cc-pvdz.gbs 
    atoms 2 entry F          line   228 file /Users/joseantoniorodriguesromero/anaconda3/share/psi4/basis/cc-pvdz.gbs 


         ---------------------------------------------------------
                                   SCF
               by Justin Turney, Rob Parrish, Andy Simmonett
                          and Daniel G. A. Smith
                              UKS Reference
                        1 Threads,    500 MiB Core
         ---------------------------------------------------------

  ==> Geometry <==

    Molecular point group: c2v
    Full point group: C_inf_v

    Geometry (in Angstrom), charge = 0, multiplicity = 6:

       Center              X                  Y                   Z               Mass       
    ------------   -----------------  -----------------  -----------------  -----------------
         C            0.000000000000     0.000000000000     1.035734118851    12.000000000000
         F            0.000000000000     0.000000000000    -0.654202846405    18.998403162730

  Running in c2v symmetry.

  Rotational constants: A = ************  B =      0.80260  C =      0.80260 [cm^-1]
  Rotational constants: A = ************  B =  24061.19344  C =  24061.19344 [MHz]
  Nuclear repulsion =   16.909251625164597

  Charge       = 0
  Multiplicity = 6
  Electrons    = 15
  Nalpha       = 10
  Nbeta        = 5

  ==> Algorithm <==

  SCF Algorithm Type is DF.
  DIIS enabled.
  MOM disabled.
  Fractional occupation disabled.
  Guess Type is READ.
  Energy threshold   = 1.00e-08
  Density threshold  = 1.00e-08
  Integral threshold = 1.00e-12

  ==> Primary Basis <==

  Basis Set: CC-PVDZ
    Blend: CC-PVDZ
    Number of shells: 12
    Number of basis functions: 28
    Number of Cartesian functions: 30
    Spherical Harmonics?: true
    Max angular momentum: 2

  ==> DFT Potential <==

   => LibXC <=

    Version 6.2.2
    S. Lehtola, C. Steigemann, M. J.T. Oliveira, and M. A.L. Marques.,  SoftwareX 7, 1–5 (2018) (10.1016/j.softx.2017.11.002)

   => Composite Functional: B3LYP <= 

    B3LYP Hyb-GGA Exchange-Correlation Functional

    P. J. Stephens, F. J. Devlin, C. F. Chabalowski, and M. J. Frisch.,  J. Phys. Chem. 98, 11623 (1994) (10.1021/j100096a001)

    Deriv               =              1
    GGA                 =           TRUE
    Meta                =          FALSE

    Exchange Hybrid     =           TRUE
    MP2 Hybrid          =          FALSE

   => Exchange Functionals <=

    0.0800   Slater exchange
    0.7200         Becke 88

   => Exact (HF) Exchange <=

    0.2000               HF 

   => Correlation Functionals <=

    0.1900   Vosko, Wilk & Nusair (VWN5_RPA)
    0.8100   Lee, Yang & Parr

   => LibXC Density Thresholds  <==

    XC_HYB_GGA_XC_B3LYP:  1.00E-15 

   => Molecular Quadrature <=

    Radial Scheme          =       TREUTLER
    Pruning Scheme         =           NONE
    Nuclear Scheme         =       TREUTLER

    Blocking Scheme        =         OCTREE
    BS radius alpha        =              1
    Pruning alpha          =              1
    Radial Points          =             75
    Spherical Points       =            302
    Total Points           =          43316
    Total Blocks           =            386
    Max Points             =            255
    Max Functions          =             28
    Weights Tolerance      =       1.00E-15

   => Loading Basis Set <=

    Name: (CC-PVDZ AUX)
    Role: JKFIT
    Keyword: DF_BASIS_SCF
    atoms 1 entry C          line   121 file /Users/joseantoniorodriguesromero/anaconda3/share/psi4/basis/cc-pvdz-jkfit.gbs 
    atoms 2 entry F          line   271 file /Users/joseantoniorodriguesromero/anaconda3/share/psi4/basis/cc-pvdz-jkfit.gbs 

   => Loading Basis Set <=

    Name: CC-PVDZ
    Role: ORBITAL
    Keyword: BASIS
    atoms 1 entry C          line   138 file /Users/joseantoniorodriguesromero/anaconda3/share/psi4/basis/cc-pvdz.gbs 
    atoms 2 entry F          line   228 file /Users/joseantoniorodriguesromero/anaconda3/share/psi4/basis/cc-pvdz.gbs 

  Reading orbitals from file /tmp/sextet_CF.default.68773.180.npy, no projection.

  ==> Integral Setup <==

  DFHelper Memory: AOs need 0.001 GiB; user supplied 0.332 GiB. 
  Using in-core AOs.

  ==> MemDFJK: Density-Fitted J/K Matrices <==

    J tasked:                   Yes
    K tasked:                   Yes
    wK tasked:                   No
    OpenMP threads:               1
    Memory [MiB]:               340
    Algorithm:                 Core
    Schwarz Cutoff:           1E-12
    Mask sparsity (%):       0.0000
    Fitting Condition:        1E-10

   => Auxiliary Basis Set <=

  Basis Set: (CC-PVDZ AUX)
    Blend: CC-PVDZ-JKFIT
    Number of shells: 48
    Number of basis functions: 140
    Number of Cartesian functions: 162
    Spherical Harmonics?: true
    Max angular momentum: 3

  Cached 100.0% of DFT collocation blocks in 0.034 [GiB].

  Minimum eigenvalue in the overlap matrix is 6.7485968024E-02.
  Reciprocal condition number of the overlap matrix is 2.7285531306E-02.
    Using symmetric orthogonalization.

  ==> Pre-Iterations <==

  SCF Guess: Orbitals guess was supplied from a previous computation.

   -------------------------------------------------------
    Irrep   Nso     Nmo     Nalpha   Nbeta   Ndocc  Nsocc
   -------------------------------------------------------
     A1        14      14       6       4       4       2
     A2         2       2       0       0       0       0
     B1         6       6       2       0       0       2
     B2         6       6       2       1       1       1
   -------------------------------------------------------
    Total      28      28      10       5       5       5
   -------------------------------------------------------

  ==> Iterations <==

                           Total Energy        Delta E     RMS |[F,P]|

   @DF-UKS iter   0:  -137.34724746089978   -1.37347e+02   4.78322e-02 
   @DF-UKS iter   1:  -137.34381318793791    3.43427e-03   5.95478e-03 ADIIS/DIIS
   @DF-UKS iter   2:  -137.34779169355946   -3.97851e-03   3.91260e-03 ADIIS/DIIS/DAMP=1%
   @DF-UKS iter   3:  -137.35134008333895   -3.54839e-03   9.00071e-04 ADIIS/DIIS/DAMP=1%
   @DF-UKS iter   4:  -137.35099690742680    3.43176e-04   1.11701e-04 ADIIS/DIIS/DAMP=1%
   @DF-UKS iter   5:  -137.35064084138750    3.56066e-04   1.32440e-05 DIIS/DAMP=1%
   @DF-UKS iter   6:  -137.35068033219096   -3.94908e-05   1.72611e-06 DIIS/DAMP=1%
   @DF-UKS iter   7:  -137.35067752048610    2.81170e-06   3.85304e-07 DIIS/DAMP=1%
   @DF-UKS iter   8:  -137.35067789253972   -3.72054e-07   9.84669e-08 DIIS/DAMP=1%
   @DF-UKS iter   9:  -137.35067790194029   -9.40057e-09   3.58345e-09 DIIS/DAMP=1%
  Energy and wave function converged.


  ==> Post-Iterations <==

   Electrons on quadrature grid:
      Nalpha   =    9.9999969425 ; deviation = -3.057e-06
      Nbeta    =    4.9999986658 ; deviation = -1.334e-06
      Ntotal   =   14.9999956083 ; deviation = -4.392e-06 

   @Spin Contamination Metric:   2.882684703E-03
   @S^2 Expected:                8.750000000E+00
   @S^2 Observed:                8.752882685E+00
   @S   Expected:                2.500000000E+00
   @S   Observed:                2.500000000E+00

    Orbital Energies [Eh]
    ---------------------

    Alpha Occupied:                                                       

       1A1   -24.894209     2A1   -10.232679     3A1    -1.334552  
       4A1    -0.670713     1B1    -0.643984     1B2    -0.556423  
       5A1    -0.502463     2B1    -0.239893     2B2    -0.235091  
       6A1    -0.149950  

    Alpha Virtual:                                                        

       7A1     0.457141     3B1     0.470927     3B2     0.474602  
       8A1     0.559891     4B1     0.932603     4B2     0.968585  
       9A1     1.091487     1A2     1.121730    10A1     1.121757  
       5B1     1.243758    11A1     1.261585     5B2     1.265781  
      12A1     2.026302    13A1     3.357417     2A2     3.361925  
       6B1     3.391973     6B2     3.459849    14A1     3.623409  

    Beta Occupied:                                                        

       1A1   -24.849487     2A1   -10.168678     3A1    -1.214813  
       4A1    -0.549189     1B2    -0.507395  

    Beta Virtual:                                                         

       1B1    -0.334637     5A1    -0.212002     2B2     0.019975  
       2B1     0.022550     6A1     0.104502     7A1     0.562105  
       3B1     0.595099     3B2     0.595453     8A1     0.684657  
       4B2     1.036560     4B1     1.065430     9A1     1.147116  
       1A2     1.301003    10A1     1.301032     5B2     1.390154  
       5B1     1.395705    11A1     1.403882    12A1     2.108380  
       2A2     3.467259    13A1     3.478897     6B2     3.503446  
       6B1     3.516662    14A1     3.703907  

    Final Occupation by Irrep:
             A1    A2    B1    B2 
    DOCC [     4,    0,    0,    1 ]
    SOCC [     2,    0,    2,    1 ]
    NA   [     6,    0,    2,    2 ]
    NB   [     4,    0,    0,    1 ]

  @DF-UKS Final Energy:  -137.35067790194029

   => Energetics <=

    Nuclear Repulsion Energy =             16.9092516251645968
    One-Electron Energy =                -222.6529052233692312
    Two-Electron Energy =                  81.0949345284247585
    DFT Exchange-Correlation Energy =     -12.7019588321604004
    Empirical Dispersion Energy =           0.0000000000000000
    VV10 Nonlocal Energy =                  0.0000000000000000
    Total Energy =                       -137.3506779019402870

  UHF NO Occupations:
  HONO-2 :    1 B1 1.0000000
  HONO-1 :    6 A1 1.0000000
  HONO-0 :    2 B1 1.0000000
  LUNO+0 :    7 A1 0.0009212
  LUNO+1 :    8 A1 0.0002919
  LUNO+2 :    3 B2 0.0002281
  LUNO+3 :    9 A1 0.0000006


Computation Completed


Properties will be evaluated at   0.000000,   0.000000,   0.000000 [a0]

Properties computed using the SCF density matrix


 Multipole Moments:

 ------------------------------------------------------------------------------------
     Multipole            Electronic (a.u.)      Nuclear  (a.u.)        Total (a.u.)
 ------------------------------------------------------------------------------------

 L = 1.  Multiply by 2.5417464519 to convert [e a0] to [Debye]
 Dipole X            :          0.0000000            0.0000000            0.0000000
 Dipole Y            :          0.0000000            0.0000000            0.0000000
 Dipole Z            :         -1.3399901            0.6171450           -0.7228450
 Magnitude           :                                                    0.7228450

 ------------------------------------------------------------------------------------

*** tstop() called on Joses-MacBook-Pro-2.local at Wed Jul 16 19:00:19 2025
Module time:
	user time   =       3.83 seconds =       0.06 minutes
	system time =       2.38 seconds =       0.04 minutes
	total time  =          0 seconds =       0.00 minutes
Total time:
	user time   =      12.14 seconds =       0.20 minutes
	system time =      12.21 seconds =       0.20 minutes
	total time  =          2 seconds =       0.03 minutes

*** tstart() called on Joses-MacBook-Pro-2.local
*** at Wed Jul 16 19:00:19 2025


         ------------------------------------------------------------
                                   SCF GRAD                          
                          Rob Parrish, Justin Turney,                
                       Andy Simmonett, and Alex Sokolov              
         ------------------------------------------------------------

  ==> Geometry <==

    Molecular point group: c2v
    Full point group: C_inf_v

    Geometry (in Angstrom), charge = 0, multiplicity = 6:

       Center              X                  Y                   Z               Mass       
    ------------   -----------------  -----------------  -----------------  -----------------
         C            0.000000000000     0.000000000000     1.035734118851    12.000000000000
         F            0.000000000000     0.000000000000    -0.654202846405    18.998403162730

  Nuclear repulsion =   16.909251625164597

  ==> Basis Set <==

  Basis Set: CC-PVDZ
    Blend: CC-PVDZ
    Number of shells: 12
    Number of basis functions: 28
    Number of Cartesian functions: 30
    Spherical Harmonics?: true
    Max angular momentum: 2

  ==> DFJKGrad: Density-Fitted SCF Gradients <==

    Gradient:                    1
    J tasked:                  Yes
    K tasked:                  Yes
    wK tasked:                  No
    OpenMP threads:              1
    Integrals threads:           1
    Memory [MiB]:              375
    Schwarz Cutoff:          1E-12
    Fitting Condition:       1E-10

   => Auxiliary Basis Set <=

  Basis Set: (CC-PVDZ AUX)
    Blend: CC-PVDZ-JKFIT
    Number of shells: 48
    Number of basis functions: 140
    Number of Cartesian functions: 162
    Spherical Harmonics?: true
    Max angular momentum: 3

  ==> DFT Potential <==

   => LibXC <=

    Version 6.2.2
    S. Lehtola, C. Steigemann, M. J.T. Oliveira, and M. A.L. Marques.,  SoftwareX 7, 1–5 (2018) (10.1016/j.softx.2017.11.002)

   => Composite Functional: B3LYP <= 

    B3LYP Hyb-GGA Exchange-Correlation Functional

    P. J. Stephens, F. J. Devlin, C. F. Chabalowski, and M. J. Frisch.,  J. Phys. Chem. 98, 11623 (1994) (10.1021/j100096a001)

    Deriv               =              1
    GGA                 =           TRUE
    Meta                =          FALSE

    Exchange Hybrid     =           TRUE
    MP2 Hybrid          =          FALSE

   => Exchange Functionals <=

    0.0800   Slater exchange
    0.7200         Becke 88

   => Exact (HF) Exchange <=

    0.2000               HF 

   => Correlation Functionals <=

    0.1900   Vosko, Wilk & Nusair (VWN5_RPA)
    0.8100   Lee, Yang & Parr

   => LibXC Density Thresholds  <==

    XC_HYB_GGA_XC_B3LYP:  1.00E-15 

   => Molecular Quadrature <=

    Radial Scheme          =       TREUTLER
    Pruning Scheme         =           NONE
    Nuclear Scheme         =       TREUTLER

    Blocking Scheme        =         OCTREE
    BS radius alpha        =              1
    Pruning alpha          =              1
    Radial Points          =             75
    Spherical Points       =            302
    Total Points           =          43316
    Total Blocks           =            386
    Max Points             =            255
    Max Functions          =             28
    Weights Tolerance      =       1.00E-15


  -Total Gradient:
     Atom            X                  Y                   Z
    ------   -----------------  -----------------  -----------------
       1       -0.000000000000     0.000000000000    -0.138569867093
       2        0.000000000000     0.000000000000     0.138593217083


*** tstop() called on Joses-MacBook-Pro-2.local at Wed Jul 16 19:00:19 2025
Module time:
	user time   =       0.51 seconds =       0.01 minutes
	system time =       0.94 seconds =       0.02 minutes
	total time  =          0 seconds =       0.00 minutes
Total time:
	user time   =      12.65 seconds =       0.21 minutes
	system time =      13.15 seconds =       0.22 minutes
	total time  =          2 seconds =       0.03 minutes

    			-----------------------------------------

    			 OPTKING 3.0: for geometry optimizations 

    			     By R.A. King, Bethel University     

    			        with contributions from          

    			    A.V. Copan, J. Cayton, A. Heide      

    			-----------------------------------------

    
	                            ===> Fragment 1 <== 

	 Z (Atomic Numbers)          Masses                          Geom                  
	       6.000000            12.000000          0.00000000  0.00000000  1.95725382   
	       9.000000            18.998403          0.00000000  0.00000000 -1.23626421   

	 - Coordinate -           - BOHR/RAD -       - ANG/DEG -
	 R(1,2)           =         3.193518           1.689937


	        --- Internal Coordinate Step in ANG or DEG, aJ/ANG or AJ/DEG ---
	-------------------------------------------------------------------------------
	           Coordinate      Previous         Force          Change          New 
	           ----------      --------        ------          ------        ------
	               R(1,2)       1.68994        1.14173        0.15335       1.84329
	-------------------------------------------------------------------------------

	                                 ==> Convergence Check <==                                  
    
	Measures of convergence in internal coordinates in au.
    
	Criteria marked as inactive (o), active & met (*), and active & unmet ( ).

	----------------------------------------------------------------------------------------------
	   Step    Total Energy     Delta E     Max Force     RMS Force      Max Disp      RMS Disp   
	----------------------------------------------------------------------------------------------
	  Convergence Criteria     1.00e-06 *    3.00e-04 *             o    1.20e-03 *             o
	----------------------------------------------------------------------------------------------
	     3    -137.35067790   -1.08e-01      1.39e-01      1.39e-01 o    2.90e-01      2.90e-01 o  ~
	----------------------------------------------------------------------------------------------

Next Geometry in Ang 
	Fragment 1 (Ang)

	    C   0.0000000000   0.0000000000   1.1124086506
	    F   0.0000000000   0.0000000000  -0.7308773781


    Structure for next step:
    Molecular point group: c2v
    Full point group: C_inf_v

    Geometry (in Angstrom), charge = 0, multiplicity = 6:

    C            0.000000000000     0.000000000000     1.129719196601
    F            0.000000000000     0.000000000000    -0.713566832070


Scratch directory: /tmp/
gradient() will perform analytic gradient computation.
   => Libint2 <=

    Primary   basis highest AM E, G, H:  6, 6, 3
    Auxiliary basis highest AM E, G, H:  7, 7, 4
    Onebody   basis highest AM E, G, H:  -, -, -
    Solid Harmonics ordering:            Gaussian

*** tstart() called on Joses-MacBook-Pro-2.local
*** at Wed Jul 16 19:00:19 2025

   => Loading Basis Set <=

    Name: CC-PVDZ
    Role: ORBITAL
    Keyword: BASIS
    atoms 1 entry C          line   138 file /Users/joseantoniorodriguesromero/anaconda3/share/psi4/basis/cc-pvdz.gbs 
    atoms 2 entry F          line   228 file /Users/joseantoniorodriguesromero/anaconda3/share/psi4/basis/cc-pvdz.gbs 


         ---------------------------------------------------------
                                   SCF
               by Justin Turney, Rob Parrish, Andy Simmonett
                          and Daniel G. A. Smith
                              UKS Reference
                        1 Threads,    500 MiB Core
         ---------------------------------------------------------

  ==> Geometry <==

    Molecular point group: c2v
    Full point group: C_inf_v

    Geometry (in Angstrom), charge = 0, multiplicity = 6:

       Center              X                  Y                   Z               Mass       
    ------------   -----------------  -----------------  -----------------  -----------------
         C            0.000000000000     0.000000000000     1.129719196601    12.000000000000
         F            0.000000000000     0.000000000000    -0.713566832070    18.998403162730

  Running in c2v symmetry.

  Rotational constants: A = ************  B =      0.67461  C =      0.67461 [cm^-1]
  Rotational constants: A = ************  B =  20224.26343  C =  20224.26343 [MHz]
  Nuclear repulsion =   15.502515036576360

  Charge       = 0
  Multiplicity = 6
  Electrons    = 15
  Nalpha       = 10
  Nbeta        = 5

  ==> Algorithm <==

  SCF Algorithm Type is DF.
  DIIS enabled.
  MOM disabled.
  Fractional occupation disabled.
  Guess Type is READ.
  Energy threshold   = 1.00e-08
  Density threshold  = 1.00e-08
  Integral threshold = 1.00e-12

  ==> Primary Basis <==

  Basis Set: CC-PVDZ
    Blend: CC-PVDZ
    Number of shells: 12
    Number of basis functions: 28
    Number of Cartesian functions: 30
    Spherical Harmonics?: true
    Max angular momentum: 2

  ==> DFT Potential <==

   => LibXC <=

    Version 6.2.2
    S. Lehtola, C. Steigemann, M. J.T. Oliveira, and M. A.L. Marques.,  SoftwareX 7, 1–5 (2018) (10.1016/j.softx.2017.11.002)

   => Composite Functional: B3LYP <= 

    B3LYP Hyb-GGA Exchange-Correlation Functional

    P. J. Stephens, F. J. Devlin, C. F. Chabalowski, and M. J. Frisch.,  J. Phys. Chem. 98, 11623 (1994) (10.1021/j100096a001)

    Deriv               =              1
    GGA                 =           TRUE
    Meta                =          FALSE

    Exchange Hybrid     =           TRUE
    MP2 Hybrid          =          FALSE

   => Exchange Functionals <=

    0.0800   Slater exchange
    0.7200         Becke 88

   => Exact (HF) Exchange <=

    0.2000               HF 

   => Correlation Functionals <=

    0.1900   Vosko, Wilk & Nusair (VWN5_RPA)
    0.8100   Lee, Yang & Parr

   => LibXC Density Thresholds  <==

    XC_HYB_GGA_XC_B3LYP:  1.00E-15 

   => Molecular Quadrature <=

    Radial Scheme          =       TREUTLER
    Pruning Scheme         =           NONE
    Nuclear Scheme         =       TREUTLER

    Blocking Scheme        =         OCTREE
    BS radius alpha        =              1
    Pruning alpha          =              1
    Radial Points          =             75
    Spherical Points       =            302
    Total Points           =          43324
    Total Blocks           =            382
    Max Points             =            254
    Max Functions          =             28
    Weights Tolerance      =       1.00E-15

   => Loading Basis Set <=

    Name: (CC-PVDZ AUX)
    Role: JKFIT
    Keyword: DF_BASIS_SCF
    atoms 1 entry C          line   121 file /Users/joseantoniorodriguesromero/anaconda3/share/psi4/basis/cc-pvdz-jkfit.gbs 
    atoms 2 entry F          line   271 file /Users/joseantoniorodriguesromero/anaconda3/share/psi4/basis/cc-pvdz-jkfit.gbs 

   => Loading Basis Set <=

    Name: CC-PVDZ
    Role: ORBITAL
    Keyword: BASIS
    atoms 1 entry C          line   138 file /Users/joseantoniorodriguesromero/anaconda3/share/psi4/basis/cc-pvdz.gbs 
    atoms 2 entry F          line   228 file /Users/joseantoniorodriguesromero/anaconda3/share/psi4/basis/cc-pvdz.gbs 

  Reading orbitals from file /tmp/sextet_CF.default.68773.180.npy, no projection.

  ==> Integral Setup <==

  DFHelper Memory: AOs need 0.001 GiB; user supplied 0.332 GiB. 
  Using in-core AOs.

  ==> MemDFJK: Density-Fitted J/K Matrices <==

    J tasked:                   Yes
    K tasked:                   Yes
    wK tasked:                   No
    OpenMP threads:               1
    Memory [MiB]:               340
    Algorithm:                 Core
    Schwarz Cutoff:           1E-12
    Mask sparsity (%):       0.0000
    Fitting Condition:        1E-10

   => Auxiliary Basis Set <=

  Basis Set: (CC-PVDZ AUX)
    Blend: CC-PVDZ-JKFIT
    Number of shells: 48
    Number of basis functions: 140
    Number of Cartesian functions: 162
    Spherical Harmonics?: true
    Max angular momentum: 3

  Cached 100.0% of DFT collocation blocks in 0.034 [GiB].

  Minimum eigenvalue in the overlap matrix is 8.2889774825E-02.
  Reciprocal condition number of the overlap matrix is 3.5478228054E-02.
    Using symmetric orthogonalization.

  ==> Pre-Iterations <==

  SCF Guess: Orbitals guess was supplied from a previous computation.

   -------------------------------------------------------
    Irrep   Nso     Nmo     Nalpha   Nbeta   Ndocc  Nsocc
   -------------------------------------------------------
     A1        14      14       6       4       4       2
     A2         2       2       0       0       0       0
     B1         6       6       2       0       0       2
     B2         6       6       2       1       1       1
   -------------------------------------------------------
    Total      28      28      10       5       5       5
   -------------------------------------------------------

  ==> Iterations <==

                           Total Energy        Delta E     RMS |[F,P]|

   @DF-UKS iter   0:  -137.37010110745052   -1.37370e+02   1.60200e-02 
   @DF-UKS iter   1:  -137.37965200900138   -9.55090e-03   1.95608e-03 ADIIS/DIIS
   @DF-UKS iter   2:  -137.38005566894498   -4.03660e-04   1.39777e-03 ADIIS/DIIS/DAMP=1%
   @DF-UKS iter   3:  -137.38038968761947   -3.34019e-04   4.42352e-04 ADIIS/DIIS/DAMP=1%
   @DF-UKS iter   4:  -137.38059061550413   -2.00928e-04   3.87191e-05 DIIS/DAMP=1%
   @DF-UKS iter   5:  -137.38041393913576    1.76676e-04   1.21576e-05 DIIS/DAMP=1%
   @DF-UKS iter   6:  -137.38042993347196   -1.59943e-05   1.63053e-06 DIIS/DAMP=1%
   @DF-UKS iter   7:  -137.38042800101624    1.93246e-06   1.65831e-07 DIIS/DAMP=1%
   @DF-UKS iter   8:  -137.38042800749571   -6.47947e-09   3.32531e-08 DIIS/DAMP=1%
   @DF-UKS iter   9:  -137.38042801706976   -9.57405e-09   4.01029e-09 DIIS/DAMP=1%
  Energy and wave function converged.


  ==> Post-Iterations <==

   Electrons on quadrature grid:
      Nalpha   =    9.9999954776 ; deviation = -4.522e-06
      Nbeta    =    4.9999980130 ; deviation = -1.987e-06
      Ntotal   =   14.9999934906 ; deviation = -6.509e-06 

   @Spin Contamination Metric:   2.940804008E-03
   @S^2 Expected:                8.750000000E+00
   @S^2 Observed:                8.752940804E+00
   @S   Expected:                2.500000000E+00
   @S   Observed:                2.500000000E+00

    Orbital Energies [Eh]
    ---------------------

    Alpha Occupied:                                                       

       1A1   -24.880447     2A1   -10.244514     3A1    -1.311293  
       4A1    -0.642067     1B1    -0.626067     1B2    -0.537523  
       5A1    -0.512199     2B1    -0.244570     2B2    -0.241385  
       6A1    -0.187069  

    Alpha Virtual:                                                        

       3B1     0.468180     3B2     0.471448     7A1     0.471899  
       8A1     0.572523     4B1     0.936620     4B2     0.971952  
       9A1     1.120664     1A2     1.121198    10A1     1.121299  
      11A1     1.152773     5B1     1.226736     5B2     1.247878  
      12A1     1.989048    13A1     3.369946     2A2     3.377641  
       6B1     3.383374     6B2     3.452031    14A1     3.550898  

    Beta Occupied:                                                        

       1A1   -24.838313     2A1   -10.179868     3A1    -1.196481  
       4A1    -0.517073     1B2    -0.492935  

    Beta Virtual:                                                         

       1B1    -0.319169     5A1    -0.231279     2B2     0.016910  
       2B1     0.018254     6A1     0.074000     7A1     0.585163  
       3B1     0.592135     3B2     0.592328     8A1     0.692480  
       4B2     1.038236     4B1     1.067579     9A1     1.169396  
      10A1     1.294608     1A2     1.302962    11A1     1.302969  
       5B2     1.379104     5B1     1.384576    12A1     2.074973  
       2A2     3.480473     6B2     3.490768    13A1     3.491537  
       6B1     3.503868    14A1     3.621965  

    Final Occupation by Irrep:
             A1    A2    B1    B2 
    DOCC [     4,    0,    0,    1 ]
    SOCC [     2,    0,    2,    1 ]
    NA   [     6,    0,    2,    2 ]
    NB   [     4,    0,    0,    1 ]

  @DF-UKS Final Energy:  -137.38042801706976

   => Energetics <=

    Nuclear Repulsion Energy =             15.5025150365763604
    One-Electron Energy =                -220.0086216759689819
    Two-Electron Energy =                  79.8099190075548677
    DFT Exchange-Correlation Energy =     -12.6842403852320125
    Empirical Dispersion Energy =           0.0000000000000000
    VV10 Nonlocal Energy =                  0.0000000000000000
    Total Energy =                       -137.3804280170697609

  UHF NO Occupations:
  HONO-2 :    1 B1 1.0000000
  HONO-1 :    2 B1 1.0000000
  HONO-0 :    6 A1 1.0000000
  LUNO+0 :    7 A1 0.0009978
  LUNO+1 :    8 A1 0.0002950
  LUNO+2 :    3 B2 0.0001775
  LUNO+3 :    9 A1 0.0000006


Computation Completed


Properties will be evaluated at   0.000000,   0.000000,   0.000000 [a0]

Properties computed using the SCF density matrix


 Multipole Moments:

 ------------------------------------------------------------------------------------
     Multipole            Electronic (a.u.)      Nuclear  (a.u.)        Total (a.u.)
 ------------------------------------------------------------------------------------

 L = 1.  Multiply by 2.5417464519 to convert [e a0] to [Debye]
 Dipole X            :          0.0000000            0.0000000            0.0000000
 Dipole Y            :          0.0000000            0.0000000            0.0000000
 Dipole Z            :         -1.3223969            0.6731463           -0.6492506
 Magnitude           :                                                    0.6492506

 ------------------------------------------------------------------------------------

*** tstop() called on Joses-MacBook-Pro-2.local at Wed Jul 16 19:00:20 2025
Module time:
	user time   =       3.74 seconds =       0.06 minutes
	system time =       2.59 seconds =       0.04 minutes
	total time  =          1 seconds =       0.02 minutes
Total time:
	user time   =      16.42 seconds =       0.27 minutes
	system time =      15.95 seconds =       0.27 minutes
	total time  =          3 seconds =       0.05 minutes

*** tstart() called on Joses-MacBook-Pro-2.local
*** at Wed Jul 16 19:00:20 2025


         ------------------------------------------------------------
                                   SCF GRAD                          
                          Rob Parrish, Justin Turney,                
                       Andy Simmonett, and Alex Sokolov              
         ------------------------------------------------------------

  ==> Geometry <==

    Molecular point group: c2v
    Full point group: C_inf_v

    Geometry (in Angstrom), charge = 0, multiplicity = 6:

       Center              X                  Y                   Z               Mass       
    ------------   -----------------  -----------------  -----------------  -----------------
         C            0.000000000000     0.000000000000     1.129719196601    12.000000000000
         F            0.000000000000     0.000000000000    -0.713566832070    18.998403162730

  Nuclear repulsion =   15.502515036576360

  ==> Basis Set <==

  Basis Set: CC-PVDZ
    Blend: CC-PVDZ
    Number of shells: 12
    Number of basis functions: 28
    Number of Cartesian functions: 30
    Spherical Harmonics?: true
    Max angular momentum: 2

  ==> DFJKGrad: Density-Fitted SCF Gradients <==

    Gradient:                    1
    J tasked:                  Yes
    K tasked:                  Yes
    wK tasked:                  No
    OpenMP threads:              1
    Integrals threads:           1
    Memory [MiB]:              375
    Schwarz Cutoff:          1E-12
    Fitting Condition:       1E-10

   => Auxiliary Basis Set <=

  Basis Set: (CC-PVDZ AUX)
    Blend: CC-PVDZ-JKFIT
    Number of shells: 48
    Number of basis functions: 140
    Number of Cartesian functions: 162
    Spherical Harmonics?: true
    Max angular momentum: 3

  ==> DFT Potential <==

   => LibXC <=

    Version 6.2.2
    S. Lehtola, C. Steigemann, M. J.T. Oliveira, and M. A.L. Marques.,  SoftwareX 7, 1–5 (2018) (10.1016/j.softx.2017.11.002)

   => Composite Functional: B3LYP <= 

    B3LYP Hyb-GGA Exchange-Correlation Functional

    P. J. Stephens, F. J. Devlin, C. F. Chabalowski, and M. J. Frisch.,  J. Phys. Chem. 98, 11623 (1994) (10.1021/j100096a001)

    Deriv               =              1
    GGA                 =           TRUE
    Meta                =          FALSE

    Exchange Hybrid     =           TRUE
    MP2 Hybrid          =          FALSE

   => Exchange Functionals <=

    0.0800   Slater exchange
    0.7200         Becke 88

   => Exact (HF) Exchange <=

    0.2000               HF 

   => Correlation Functionals <=

    0.1900   Vosko, Wilk & Nusair (VWN5_RPA)
    0.8100   Lee, Yang & Parr

   => LibXC Density Thresholds  <==

    XC_HYB_GGA_XC_B3LYP:  1.00E-15 

   => Molecular Quadrature <=

    Radial Scheme          =       TREUTLER
    Pruning Scheme         =           NONE
    Nuclear Scheme         =       TREUTLER

    Blocking Scheme        =         OCTREE
    BS radius alpha        =              1
    Pruning alpha          =              1
    Radial Points          =             75
    Spherical Points       =            302
    Total Points           =          43324
    Total Blocks           =            382
    Max Points             =            254
    Max Functions          =             28
    Weights Tolerance      =       1.00E-15


  -Total Gradient:
     Atom            X                  Y                   Z
    ------   -----------------  -----------------  -----------------
       1        0.000000000000    -0.000000000000    -0.072918382935
       2        0.000000000000     0.000000000000     0.072939248908


*** tstop() called on Joses-MacBook-Pro-2.local at Wed Jul 16 19:00:20 2025
Module time:
	user time   =       0.58 seconds =       0.01 minutes
	system time =       0.99 seconds =       0.02 minutes
	total time  =          0 seconds =       0.00 minutes
Total time:
	user time   =      17.00 seconds =       0.28 minutes
	system time =      16.94 seconds =       0.28 minutes
	total time  =          3 seconds =       0.05 minutes

    			-----------------------------------------

    			 OPTKING 3.0: for geometry optimizations 

    			     By R.A. King, Bethel University     

    			        with contributions from          

    			    A.V. Copan, J. Cayton, A. Heide      

    			-----------------------------------------

    
	                            ===> Fragment 1 <== 

	 Z (Atomic Numbers)          Masses                          Geom                  
	       6.000000            12.000000          0.00000000  0.00000000  2.13485988   
	       9.000000            18.998403          0.00000000  0.00000000 -1.34844588   

	 - Coordinate -           - BOHR/RAD -       - ANG/DEG -
	 R(1,2)           =         3.483306           1.843286


	        --- Internal Coordinate Step in ANG or DEG, aJ/ANG or AJ/DEG ---
	-------------------------------------------------------------------------------
	           Coordinate      Previous         Force          Change          New 
	           ----------      --------        ------          ------        ------
	               R(1,2)       1.84329        0.60084        0.15561       1.99890
	-------------------------------------------------------------------------------

	                                 ==> Convergence Check <==                                  
    
	Measures of convergence in internal coordinates in au.
    
	Criteria marked as inactive (o), active & met (*), and active & unmet ( ).

	----------------------------------------------------------------------------------------------
	   Step    Total Energy     Delta E     Max Force     RMS Force      Max Disp      RMS Disp   
	----------------------------------------------------------------------------------------------
	  Convergence Criteria     1.00e-06 *    3.00e-04 *             o    1.20e-03 *             o
	----------------------------------------------------------------------------------------------
	     4    -137.38042802   -2.98e-02      7.29e-02      7.29e-02 o    2.94e-01      2.94e-01 o  ~
	----------------------------------------------------------------------------------------------

Next Geometry in Ang 
	Fragment 1 (Ang)

	    C   0.0000000000   0.0000000000   1.2075260265
	    F   0.0000000000   0.0000000000  -0.7913736620


    Structure for next step:
    Molecular point group: c2v
    Full point group: C_inf_v

    Geometry (in Angstrom), charge = 0, multiplicity = 6:

    C            0.000000000000     0.000000000000     1.225092207641
    F            0.000000000000     0.000000000000    -0.773807480859


Scratch directory: /tmp/
gradient() will perform analytic gradient computation.
   => Libint2 <=

    Primary   basis highest AM E, G, H:  6, 6, 3
    Auxiliary basis highest AM E, G, H:  7, 7, 4
    Onebody   basis highest AM E, G, H:  -, -, -
    Solid Harmonics ordering:            Gaussian

*** tstart() called on Joses-MacBook-Pro-2.local
*** at Wed Jul 16 19:00:20 2025

   => Loading Basis Set <=

    Name: CC-PVDZ
    Role: ORBITAL
    Keyword: BASIS
    atoms 1 entry C          line   138 file /Users/joseantoniorodriguesromero/anaconda3/share/psi4/basis/cc-pvdz.gbs 
    atoms 2 entry F          line   228 file /Users/joseantoniorodriguesromero/anaconda3/share/psi4/basis/cc-pvdz.gbs 


         ---------------------------------------------------------
                                   SCF
               by Justin Turney, Rob Parrish, Andy Simmonett
                          and Daniel G. A. Smith
                              UKS Reference
                        1 Threads,    500 MiB Core
         ---------------------------------------------------------

  ==> Geometry <==

    Molecular point group: c2v
    Full point group: C_inf_v

    Geometry (in Angstrom), charge = 0, multiplicity = 6:

       Center              X                  Y                   Z               Mass       
    ------------   -----------------  -----------------  -----------------  -----------------
         C            0.000000000000     0.000000000000     1.225092207641    12.000000000000
         F            0.000000000000     0.000000000000    -0.773807480859    18.998403162730

  Running in c2v symmetry.

  Rotational constants: A = ************  B =      0.57366  C =      0.57366 [cm^-1]
  Rotational constants: A = ************  B =  17197.92994  C =  17197.92994 [MHz]
  Nuclear repulsion =   14.295649521879035

  Charge       = 0
  Multiplicity = 6
  Electrons    = 15
  Nalpha       = 10
  Nbeta        = 5

  ==> Algorithm <==

  SCF Algorithm Type is DF.
  DIIS enabled.
  MOM disabled.
  Fractional occupation disabled.
  Guess Type is READ.
  Energy threshold   = 1.00e-08
  Density threshold  = 1.00e-08
  Integral threshold = 1.00e-12

  ==> Primary Basis <==

  Basis Set: CC-PVDZ
    Blend: CC-PVDZ
    Number of shells: 12
    Number of basis functions: 28
    Number of Cartesian functions: 30
    Spherical Harmonics?: true
    Max angular momentum: 2

  ==> DFT Potential <==

   => LibXC <=

    Version 6.2.2
    S. Lehtola, C. Steigemann, M. J.T. Oliveira, and M. A.L. Marques.,  SoftwareX 7, 1–5 (2018) (10.1016/j.softx.2017.11.002)

   => Composite Functional: B3LYP <= 

    B3LYP Hyb-GGA Exchange-Correlation Functional

    P. J. Stephens, F. J. Devlin, C. F. Chabalowski, and M. J. Frisch.,  J. Phys. Chem. 98, 11623 (1994) (10.1021/j100096a001)

    Deriv               =              1
    GGA                 =           TRUE
    Meta                =          FALSE

    Exchange Hybrid     =           TRUE
    MP2 Hybrid          =          FALSE

   => Exchange Functionals <=

    0.0800   Slater exchange
    0.7200         Becke 88

   => Exact (HF) Exchange <=

    0.2000               HF 

   => Correlation Functionals <=

    0.1900   Vosko, Wilk & Nusair (VWN5_RPA)
    0.8100   Lee, Yang & Parr

   => LibXC Density Thresholds  <==

    XC_HYB_GGA_XC_B3LYP:  1.00E-15 

   => Molecular Quadrature <=

    Radial Scheme          =       TREUTLER
    Pruning Scheme         =           NONE
    Nuclear Scheme         =       TREUTLER

    Blocking Scheme        =         OCTREE
    BS radius alpha        =              1
    Pruning alpha          =              1
    Radial Points          =             75
    Spherical Points       =            302
    Total Points           =          43330
    Total Blocks           =            384
    Max Points             =            255
    Max Functions          =             28
[...]
	               R(1,2)       2.63581        0.00037        0.00394       2.63975
	-------------------------------------------------------------------------------

	                                 ==> Convergence Check <==                                  
    
	Measures of convergence in internal coordinates in au.
    
	Criteria marked as inactive (o), active & met (*), and active & unmet ( ).

	----------------------------------------------------------------------------------------------
	   Step    Total Energy     Delta E     Max Force     RMS Force      Max Disp      RMS Disp   
	----------------------------------------------------------------------------------------------
	  Convergence Criteria     1.00e-06 *    3.00e-04 *             o    1.20e-03 *             o
	----------------------------------------------------------------------------------------------
	    14    -137.40839442   -1.37e-06      4.51e-05 *    4.51e-05 o    7.45e-03      7.45e-03 o  ~
	----------------------------------------------------------------------------------------------

Next Geometry in Ang 
	Fragment 1 (Ang)

	    C   0.0000000000   0.0000000000   1.6174163845
	    F   0.0000000000   0.0000000000  -1.0223383958


    Structure for next step:
    Molecular point group: c2v
    Full point group: C_inf_v

    Geometry (in Angstrom), charge = 0, multiplicity = 6:

    C            0.000000000000     0.000000000000     1.617861581574
    F            0.000000000000     0.000000000000    -1.021893198739


Scratch directory: /tmp/
gradient() will perform analytic gradient computation.
   => Libint2 <=

    Primary   basis highest AM E, G, H:  6, 6, 3
    Auxiliary basis highest AM E, G, H:  7, 7, 4
    Onebody   basis highest AM E, G, H:  -, -, -
    Solid Harmonics ordering:            Gaussian

*** tstart() called on Joses-MacBook-Pro-2.local
*** at Wed Jul 16 19:00:27 2025

   => Loading Basis Set <=

    Name: CC-PVDZ
    Role: ORBITAL
    Keyword: BASIS
    atoms 1 entry C          line   138 file /Users/joseantoniorodriguesromero/anaconda3/share/psi4/basis/cc-pvdz.gbs 
    atoms 2 entry F          line   228 file /Users/joseantoniorodriguesromero/anaconda3/share/psi4/basis/cc-pvdz.gbs 


         ---------------------------------------------------------
                                   SCF
               by Justin Turney, Rob Parrish, Andy Simmonett
                          and Daniel G. A. Smith
                              UKS Reference
                        1 Threads,    500 MiB Core
         ---------------------------------------------------------

  ==> Geometry <==

    Molecular point group: c2v
    Full point group: C_inf_v

    Geometry (in Angstrom), charge = 0, multiplicity = 6:

       Center              X                  Y                   Z               Mass       
    ------------   -----------------  -----------------  -----------------  -----------------
         C            0.000000000000     0.000000000000     1.617861581574    12.000000000000
         F            0.000000000000     0.000000000000    -1.021893198739    18.998403162730

  Running in c2v symmetry.

  Rotational constants: A = ************  B =      0.32894  C =      0.32894 [cm^-1]
  Rotational constants: A = ************  B =   9861.22813  C =   9861.22813 [MHz]
  Nuclear repulsion =   10.825084810638675

  Charge       = 0
  Multiplicity = 6
  Electrons    = 15
  Nalpha       = 10
  Nbeta        = 5

  ==> Algorithm <==

  SCF Algorithm Type is DF.
  DIIS enabled.
  MOM disabled.
  Fractional occupation disabled.
  Guess Type is READ.
  Energy threshold   = 1.00e-08
  Density threshold  = 1.00e-08
  Integral threshold = 1.00e-12

  ==> Primary Basis <==

  Basis Set: CC-PVDZ
    Blend: CC-PVDZ
    Number of shells: 12
    Number of basis functions: 28
    Number of Cartesian functions: 30
    Spherical Harmonics?: true
    Max angular momentum: 2

  ==> DFT Potential <==

   => LibXC <=

    Version 6.2.2
    S. Lehtola, C. Steigemann, M. J.T. Oliveira, and M. A.L. Marques.,  SoftwareX 7, 1–5 (2018) (10.1016/j.softx.2017.11.002)

   => Composite Functional: B3LYP <= 

    B3LYP Hyb-GGA Exchange-Correlation Functional

    P. J. Stephens, F. J. Devlin, C. F. Chabalowski, and M. J. Frisch.,  J. Phys. Chem. 98, 11623 (1994) (10.1021/j100096a001)

    Deriv               =              1
    GGA                 =           TRUE
    Meta                =          FALSE

    Exchange Hybrid     =           TRUE
    MP2 Hybrid          =          FALSE

   => Exchange Functionals <=

    0.0800   Slater exchange
    0.7200         Becke 88

   => Exact (HF) Exchange <=

    0.2000               HF 

   => Correlation Functionals <=

    0.1900   Vosko, Wilk & Nusair (VWN5_RPA)
    0.8100   Lee, Yang & Parr

   => LibXC Density Thresholds  <==

    XC_HYB_GGA_XC_B3LYP:  1.00E-15 

   => Molecular Quadrature <=

    Radial Scheme          =       TREUTLER
    Pruning Scheme         =           NONE
    Nuclear Scheme         =       TREUTLER

    Blocking Scheme        =         OCTREE
    BS radius alpha        =              1
    Pruning alpha          =              1
    Radial Points          =             75
    Spherical Points       =            302
    Total Points           =          43375
    Total Blocks           =            387
    Max Points             =            256
    Max Functions          =             28
    Weights Tolerance      =       1.00E-15

   => Loading Basis Set <=

    Name: (CC-PVDZ AUX)
    Role: JKFIT
    Keyword: DF_BASIS_SCF
    atoms 1 entry C          line   121 file /Users/joseantoniorodriguesromero/anaconda3/share/psi4/basis/cc-pvdz-jkfit.gbs 
    atoms 2 entry F          line   271 file /Users/joseantoniorodriguesromero/anaconda3/share/psi4/basis/cc-pvdz-jkfit.gbs 

   => Loading Basis Set <=

    Name: CC-PVDZ
    Role: ORBITAL
    Keyword: BASIS
    atoms 1 entry C          line   138 file /Users/joseantoniorodriguesromero/anaconda3/share/psi4/basis/cc-pvdz.gbs 
    atoms 2 entry F          line   228 file /Users/joseantoniorodriguesromero/anaconda3/share/psi4/basis/cc-pvdz.gbs 

  Reading orbitals from file /tmp/sextet_CF.default.68773.180.npy, no projection.

  ==> Integral Setup <==

  DFHelper Memory: AOs need 0.001 GiB; user supplied 0.335 GiB. 
  Using in-core AOs.

  ==> MemDFJK: Density-Fitted J/K Matrices <==

    J tasked:                   Yes
    K tasked:                   Yes
    wK tasked:                   No
    OpenMP threads:               1
    Memory [MiB]:               343
    Algorithm:                 Core
    Schwarz Cutoff:           1E-12
    Mask sparsity (%):       0.0000
    Fitting Condition:        1E-10

   => Auxiliary Basis Set <=

  Basis Set: (CC-PVDZ AUX)
    Blend: CC-PVDZ-JKFIT
    Number of shells: 48
    Number of basis functions: 140
    Number of Cartesian functions: 162
    Spherical Harmonics?: true
    Max angular momentum: 3

  Cached 100.0% of DFT collocation blocks in 0.031 [GiB].

  Minimum eigenvalue in the overlap matrix is 1.5913255266E-01.
  Reciprocal condition number of the overlap matrix is 8.6915983366E-02.
    Using symmetric orthogonalization.

  ==> Pre-Iterations <==

  SCF Guess: Orbitals guess was supplied from a previous computation.

   -------------------------------------------------------
    Irrep   Nso     Nmo     Nalpha   Nbeta   Ndocc  Nsocc
   -------------------------------------------------------
     A1        14      14       6       4       4       2
     A2         2       2       0       0       0       0
     B1         6       6       2       0       0       2
     B2         6       6       2       1       1       1
   -------------------------------------------------------
    Total      28      28      10       5       5       5
   -------------------------------------------------------

  ==> Iterations <==

                           Total Energy        Delta E     RMS |[F,P]|

   @DF-UKS iter   0:  -137.40825503058093   -1.37408e+02   7.01415e-05 
   @DF-UKS iter   1:  -137.40839454632959   -1.39516e-04   1.77595e-05 DIIS
   @DF-UKS iter   2:  -137.40839455800474   -1.16752e-08   1.53846e-05 DIIS/DAMP=1%
   @DF-UKS iter   3:  -137.40838898857280    5.56943e-06   2.14474e-06 DIIS/DAMP=1%
   @DF-UKS iter   4:  -137.40839505077443   -6.06220e-06   6.17201e-07 DIIS/DAMP=1%
   @DF-UKS iter   5:  -137.40839448031409    5.70460e-07   8.16963e-08 DIIS/DAMP=1%
   @DF-UKS iter   6:  -137.40839460617400   -1.25860e-07   1.78579e-08 DIIS/DAMP=1%
   @DF-UKS iter   7:  -137.40839458543741    2.07366e-08   6.52619e-10 DIIS/DAMP=1%
   @DF-UKS iter   8:  -137.40839458396005    1.47736e-09   5.93694e-11 DIIS/DAMP=1%
  Energy and wave function converged.


  ==> Post-Iterations <==

   Electrons on quadrature grid:
      Nalpha   =   10.0000022539 ; deviation = 2.254e-06
      Nbeta    =    5.0000007509 ; deviation = 7.509e-07
      Ntotal   =   15.0000030048 ; deviation = 3.005e-06 

   @Spin Contamination Metric:   1.541054791E-03
   @S^2 Expected:                8.750000000E+00
   @S^2 Observed:                8.751541055E+00
   @S   Expected:                2.500000000E+00
   @S   Observed:                2.500000000E+00

    Orbital Energies [Eh]
    ---------------------

    Alpha Occupied:                                                       

       1A1   -24.808573     2A1   -10.295350     3A1    -1.235302  
       4A1    -0.620527     1B1    -0.560543     5A1    -0.476900  
       1B2    -0.471073     2B1    -0.274335     2B2    -0.273869  
       6A1    -0.267687  

    Alpha Virtual:                                                        

       3B1     0.446144     3B2     0.447241     7A1     0.465436  
       8A1     0.531513     9A1     1.013771     4B1     1.016263  
       4B2     1.058791    10A1     1.096391     1A2     1.096392  
       5B1     1.108522     5B2     1.121206    11A1     1.224281  
      12A1     1.540770    13A1     3.418206     6B1     3.436938  
       2A2     3.439706     6B2     3.506415    14A1     3.510900  

    Beta Occupied:                                                        

       1A1   -24.775565     2A1   -10.227242     3A1    -1.139463  
       4A1    -0.437857     1B2    -0.437543  

    Beta Virtual:                                                         

       5A1    -0.273700     1B1    -0.263506     2B2     0.009187  
       2B1     0.009296     6A1     0.014913     3B2     0.574246  
       3B1     0.574545     7A1     0.587662     8A1     0.661168  
       4B2     1.096829     9A1     1.119981     4B1     1.133502  
      10A1     1.302377     1A2     1.302380     5B2     1.307751  
       5B1     1.308350    11A1     1.332694    12A1     1.607851  
       6B2     3.526616    13A1     3.530754     2A2     3.536146  
       6B1     3.537779    14A1     3.557896  

    Final Occupation by Irrep:
             A1    A2    B1    B2 
    DOCC [     4,    0,    0,    1 ]
    SOCC [     2,    0,    2,    1 ]
    NA   [     6,    0,    2,    2 ]
    NB   [     4,    0,    0,    1 ]

  @DF-UKS Final Energy:  -137.40839458396005

   => Energetics <=

    Nuclear Repulsion Energy =             10.8250848106386748
    One-Electron Energy =                -211.0685037271453552
    Two-Electron Energy =                  75.5060748050676835
    DFT Exchange-Correlation Energy =     -12.6710504725210686
    Empirical Dispersion Energy =           0.0000000000000000
    VV10 Nonlocal Energy =                  0.0000000000000000
    Total Energy =                       -137.4083945839600460

  UHF NO Occupations:
  HONO-2 :    2 B2 1.0000000
  HONO-1 :    2 B1 1.0000000
  HONO-0 :    6 A1 1.0000000
  LUNO+0 :    7 A1 0.0004274
  LUNO+1 :    8 A1 0.0002706
  LUNO+2 :    3 B2 0.0000719
  LUNO+3 :    9 A1 0.0000008


Computation Completed


Properties will be evaluated at   0.000000,   0.000000,   0.000000 [a0]

Properties computed using the SCF density matrix


 Multipole Moments:

 ------------------------------------------------------------------------------------
     Multipole            Electronic (a.u.)      Nuclear  (a.u.)        Total (a.u.)
 ------------------------------------------------------------------------------------

 L = 1.  Multiply by 2.5417464519 to convert [e a0] to [Debye]
 Dipole X            :          0.0000000            0.0000000            0.0000000
 Dipole Y            :          0.0000000            0.0000000            0.0000000
 Dipole Z            :         -1.1754548            0.9640073           -0.2114475
 Magnitude           :                                                    0.2114475

 ------------------------------------------------------------------------------------

*** tstop() called on Joses-MacBook-Pro-2.local at Wed Jul 16 19:00:28 2025
Module time:
	user time   =       2.65 seconds =       0.04 minutes
	system time =       2.92 seconds =       0.05 minutes
	total time  =          1 seconds =       0.02 minutes
Total time:
	user time   =      59.12 seconds =       0.99 minutes
	system time =      56.78 seconds =       0.95 minutes
	total time  =         11 seconds =       0.18 minutes

*** tstart() called on Joses-MacBook-Pro-2.local
*** at Wed Jul 16 19:00:28 2025


         ------------------------------------------------------------
                                   SCF GRAD                          
                          Rob Parrish, Justin Turney,                
                       Andy Simmonett, and Alex Sokolov              
         ------------------------------------------------------------

  ==> Geometry <==

    Molecular point group: c2v
    Full point group: C_inf_v

    Geometry (in Angstrom), charge = 0, multiplicity = 6:

       Center              X                  Y                   Z               Mass       
    ------------   -----------------  -----------------  -----------------  -----------------
         C            0.000000000000     0.000000000000     1.617861581574    12.000000000000
         F            0.000000000000     0.000000000000    -1.021893198739    18.998403162730

  Nuclear repulsion =   10.825084810638675

  ==> Basis Set <==

  Basis Set: CC-PVDZ
    Blend: CC-PVDZ
    Number of shells: 12
    Number of basis functions: 28
    Number of Cartesian functions: 30
    Spherical Harmonics?: true
    Max angular momentum: 2

  ==> DFJKGrad: Density-Fitted SCF Gradients <==

    Gradient:                    1
    J tasked:                  Yes
    K tasked:                  Yes
    wK tasked:                  No
    OpenMP threads:              1
    Integrals threads:           1
    Memory [MiB]:              375
    Schwarz Cutoff:          1E-12
    Fitting Condition:       1E-10

   => Auxiliary Basis Set <=

  Basis Set: (CC-PVDZ AUX)
    Blend: CC-PVDZ-JKFIT
    Number of shells: 48
    Number of basis functions: 140
    Number of Cartesian functions: 162
    Spherical Harmonics?: true
    Max angular momentum: 3

  ==> DFT Potential <==

   => LibXC <=

    Version 6.2.2
    S. Lehtola, C. Steigemann, M. J.T. Oliveira, and M. A.L. Marques.,  SoftwareX 7, 1–5 (2018) (10.1016/j.softx.2017.11.002)

   => Composite Functional: B3LYP <= 

    B3LYP Hyb-GGA Exchange-Correlation Functional

    P. J. Stephens, F. J. Devlin, C. F. Chabalowski, and M. J. Frisch.,  J. Phys. Chem. 98, 11623 (1994) (10.1021/j100096a001)

    Deriv               =              1
    GGA                 =           TRUE
    Meta                =          FALSE

    Exchange Hybrid     =           TRUE
    MP2 Hybrid          =          FALSE

   => Exchange Functionals <=

    0.0800   Slater exchange
    0.7200         Becke 88

   => Exact (HF) Exchange <=

    0.2000               HF 

   => Correlation Functionals <=

    0.1900   Vosko, Wilk & Nusair (VWN5_RPA)
    0.8100   Lee, Yang & Parr

   => LibXC Density Thresholds  <==

    XC_HYB_GGA_XC_B3LYP:  1.00E-15 

   => Molecular Quadrature <=

    Radial Scheme          =       TREUTLER
    Pruning Scheme         =           NONE
    Nuclear Scheme         =       TREUTLER

    Blocking Scheme        =         OCTREE
    BS radius alpha        =              1
    Pruning alpha          =              1
    Radial Points          =             75
    Spherical Points       =            302
    Total Points           =          43375
    Total Blocks           =            387
    Max Points             =            256
    Max Functions          =             28
    Weights Tolerance      =       1.00E-15


  -Total Gradient:
     Atom            X                  Y                   Z
    ------   -----------------  -----------------  -----------------
       1        0.000000000000    -0.000000000000    -0.000008339707
       2       -0.000000000000    -0.000000000000     0.000012383289


*** tstop() called on Joses-MacBook-Pro-2.local at Wed Jul 16 19:00:28 2025
Module time:
	user time   =       0.39 seconds =       0.01 minutes
	system time =       1.30 seconds =       0.02 minutes
	total time  =          0 seconds =       0.00 minutes
Total time:
	user time   =      59.52 seconds =       0.99 minutes
	system time =      58.08 seconds =       0.97 minutes
	total time  =         11 seconds =       0.18 minutes

    			-----------------------------------------

    			 OPTKING 3.0: for geometry optimizations 

    			     By R.A. King, Bethel University     

    			        with contributions from          

    			    A.V. Copan, J. Cayton, A. Heide      

    			-----------------------------------------

    
	                            ===> Fragment 1 <== 

	 Z (Atomic Numbers)          Masses                          Geom                  
	       6.000000            12.000000          0.00000000  0.00000000  3.05731530   
	       9.000000            18.998403          0.00000000  0.00000000 -1.93109828   

	 - Coordinate -           - BOHR/RAD -       - ANG/DEG -
	 R(1,2)           =         4.988414           2.639755


	        --- Internal Coordinate Step in ANG or DEG, aJ/ANG or AJ/DEG ---
	-------------------------------------------------------------------------------
	           Coordinate      Previous         Force          Change          New 
	           ----------      --------        ------          ------        ------
	               R(1,2)       2.63975        0.00009        0.00102       2.64077
	-------------------------------------------------------------------------------

	                                 ==> Convergence Check <==                                  
    
	Measures of convergence in internal coordinates in au.
    
	Criteria marked as inactive (o), active & met (*), and active & unmet ( ).

	----------------------------------------------------------------------------------------------
	   Step    Total Energy     Delta E     Max Force     RMS Force      Max Disp      RMS Disp   
	----------------------------------------------------------------------------------------------
	  Convergence Criteria     1.00e-06 *    3.00e-04 *             o    1.20e-03 *             o
	----------------------------------------------------------------------------------------------
	    15    -137.40839458   -1.64e-07 *    1.04e-05 *    1.04e-05 o    1.92e-03      1.92e-03 o  ~
	----------------------------------------------------------------------------------------------

Next Geometry in Ang 
	Fragment 1 (Ang)

	    C   0.0000000000   0.0000000000   1.6183698229
	    F   0.0000000000   0.0000000000  -1.0224014401


    Final optimized geometry and variables:
    Molecular point group: c2v
    Full point group: C_inf_v

    Geometry (in Angstrom), charge = 0, multiplicity = 6:

    C            0.000000000000     0.000000000000     1.617861581574
    F            0.000000000000     0.000000000000    -1.021893198739


    Psi4 stopped on: Wednesday, 16 July 2025 07:00PM
    Psi4 wall time for execution: 0:00:11.62

*** Psi4 exiting successfully. Buy a developer a beer!
