
    -----------------------------------------------------------------------
          Psi4: An Open-Source Ab Initio Electronic Structure Package
                               Psi4 1.9.1 release

                         Git: Rev {} zzzzzzz 


    D. G. A. Smith, L. A. Burns, A. C. Simmonett, R. M. Parrish,
    M. C. Schieber, R. Galvelis, P. Kraus, H. Kruse, R. Di Remigio,
    A. Alenaizan, A. M. James, S. Lehtola, J. P. Misiewicz, M. Scheurer,
    R. A. Shaw, J. B. Schriber, Y. Xie, Z. L. Glick, D. A. Sirianni,
    J. S. O'Brien, J. M. Waldrop, A. Kumar, E. G. Hohenstein,
    B. P. Pritchard, B. R. Brooks, H. F. Schaefer III, A. Yu. Sokolov,
    K. Patkowski, A. E. DePrince III, U. Bozkaya, R. A. King,
    F. A. Evangelista, J. M. Turney, T. D. Crawford, C. D. Sherrill,
    J. Chem. Phys. 152(18) 184108 (2020). https://doi.org/10.1063/5.0006002

                            Additional Code Authors
    E. T. Seidl, C. L. Janssen, E. F. Valeev, M. L. Leininger,
    J. F. Gonthier, R. M. Richard, H. R. McAlexander, M. Saitow, X. Wang,
    P. Verma, M. H. Lechner, A. Jiang, S. Behnle, A. G. Heide,
    M. F. Herbst, and D. L. Poole

             Previous Authors, Complete List of Code Contributors,
                       and Citations for Specific Modules
    https://github.com/psi4/psi4/blob/master/codemeta.json
    https://github.com/psi4/psi4/graphs/contributors
    http://psicode.org/psi4manual/master/introduction.html#citing-psifour

    -----------------------------------------------------------------------


    Psi4 started on: Wednesday, 16 July 2025 07:28PM

    Process ID: 69115
    Host:       Joses-MacBook-Pro-2.local
    PSIDATADIR: /Users/joseantoniorodriguesromero/anaconda3/share/psi4
    Memory:     500.0 MiB
    Threads:    1
    
  ==> Input File <==

--------------------------------------------------------------------------
molecule { 
0 6
F   0.00000        0.60000        0.00000
Si   0.00000       -0.60000        0.00000
}

set { 
basis              cc-pvdz
reference          uks
maxiter            500
geom_maxiter       500
DAMPING_PERCENTAGE 1
guess              SAP
}

optimize('b3lyp')
--------------------------------------------------------------------------

Scratch directory: /tmp/
gradient() will perform analytic gradient computation.
   => Libint2 <=

    Primary   basis highest AM E, G, H:  6, 6, 3
    Auxiliary basis highest AM E, G, H:  7, 7, 4
    Onebody   basis highest AM E, G, H:  -, -, -
    Solid Harmonics ordering:            Gaussian

*** tstart() called on Joses-MacBook-Pro-2.local
*** at Wed Jul 16 19:28:33 2025

   => Loading Basis Set <=

    Name: CC-PVDZ
    Role: ORBITAL
    Keyword: BASIS
    atoms 1 entry F          line   228 file /Users/joseantoniorodriguesromero/anaconda3/share/psi4/basis/cc-pvdz.gbs 
    atoms 2 entry SI         line   478 file /Users/joseantoniorodriguesromero/anaconda3/share/psi4/basis/cc-pvdz.gbs 


         ---------------------------------------------------------
                                   SCF
               by Justin Turney, Rob Parrish, Andy Simmonett
                          and Daniel G. A. Smith
                              UKS Reference
                        1 Threads,    500 MiB Core
         ---------------------------------------------------------

  ==> Geometry <==

    Molecular point group: c2v
    Full point group: C_inf_v

    Geometry (in Angstrom), charge = 0, multiplicity = 6:

       Center              X                  Y                   Z               Mass       
    ------------   -----------------  -----------------  -----------------  -----------------
         F            0.000000000000     0.000000000000     0.714679642652    18.998403162730
         SI           0.000000000000     0.000000000000    -0.485320357348    27.976926534650

  Running in c2v symmetry.

  Rotational constants: A = ************  B =      1.03463  C =      1.03463 [cm^-1]
  Rotational constants: A = ************  B =  31017.54651  C =  31017.54651 [MHz]
  Nuclear repulsion =   55.563607120350021

  Charge       = 0
  Multiplicity = 6
  Electrons    = 23
  Nalpha       = 14
  Nbeta        = 9

  ==> Algorithm <==

  SCF Algorithm Type is DF.
  DIIS enabled.
  MOM disabled.
  Fractional occupation disabled.
  Guess Type is SAP.
  Energy threshold   = 1.00e-08
  Density threshold  = 1.00e-08
  Integral threshold = 1.00e-12

  ==> Primary Basis <==

  Basis Set: CC-PVDZ
    Blend: CC-PVDZ
    Number of shells: 14
    Number of basis functions: 32
    Number of Cartesian functions: 34
    Spherical Harmonics?: true
    Max angular momentum: 2

  ==> DFT Potential <==

   => LibXC <=

    Version 6.2.2
    S. Lehtola, C. Steigemann, M. J.T. Oliveira, and M. A.L. Marques.,  SoftwareX 7, 1–5 (2018) (10.1016/j.softx.2017.11.002)

   => Composite Functional: B3LYP <= 

    B3LYP Hyb-GGA Exchange-Correlation Functional

    P. J. Stephens, F. J. Devlin, C. F. Chabalowski, and M. J. Frisch.,  J. Phys. Chem. 98, 11623 (1994) (10.1021/j100096a001)

    Deriv               =              1
    GGA                 =           TRUE
    Meta                =          FALSE

    Exchange Hybrid     =           TRUE
    MP2 Hybrid          =          FALSE

   => Exchange Functionals <=

    0.0800   Slater exchange
    0.7200         Becke 88

   => Exact (HF) Exchange <=

    0.2000               HF 

   => Correlation Functionals <=

    0.1900   Vosko, Wilk & Nusair (VWN5_RPA)
    0.8100   Lee, Yang & Parr

   => LibXC Density Thresholds  <==

    XC_HYB_GGA_XC_B3LYP:  1.00E-15 

   => Molecular Quadrature <=

    Radial Scheme          =       TREUTLER
    Pruning Scheme         =           NONE
    Nuclear Scheme         =       TREUTLER

    Blocking Scheme        =         OCTREE
    BS radius alpha        =              1
    Pruning alpha          =              1
    Radial Points          =             75
    Spherical Points       =            302
    Total Points           =          42831
    Total Blocks           =            389
    Max Points             =            256
    Max Functions          =             32
    Weights Tolerance      =       1.00E-15

   => Loading Basis Set <=

    Name: (CC-PVDZ AUX)
    Role: JKFIT
    Keyword: DF_BASIS_SCF
    atoms 1 entry F          line   271 file /Users/joseantoniorodriguesromero/anaconda3/share/psi4/basis/cc-pvdz-jkfit.gbs 
    atoms 2 entry SI         line   445 file /Users/joseantoniorodriguesromero/anaconda3/share/psi4/basis/cc-pvdz-jkfit.gbs 

  ==> Integral Setup <==

  DFHelper Memory: AOs need 0.002 GiB; user supplied 0.328 GiB. 
  Using in-core AOs.

  ==> MemDFJK: Density-Fitted J/K Matrices <==

    J tasked:                   Yes
    K tasked:                   Yes
    wK tasked:                   No
    OpenMP threads:               1
    Memory [MiB]:               335
    Algorithm:                 Core
    Schwarz Cutoff:           1E-12
    Mask sparsity (%):       0.0000
    Fitting Condition:        1E-10

   => Auxiliary Basis Set <=

  Basis Set: (CC-PVDZ AUX)
    Blend: CC-PVDZ-JKFIT
    Number of shells: 60
    Number of basis functions: 182
    Number of Cartesian functions: 211
    Spherical Harmonics?: true
    Max angular momentum: 3

  Cached 100.0% of DFT collocation blocks in 0.038 [GiB].

  Minimum eigenvalue in the overlap matrix is 1.0300864554E-02.
  Reciprocal condition number of the overlap matrix is 3.4995039241E-03.
    Using symmetric orthogonalization.

  ==> Pre-Iterations <==

  SCF Guess: Superposition of Atomic Potentials (doi:10.1021/acs.jctc.8b01089).

  ==> SAP guess <==

   => Molecular Quadrature <=

    Radial Scheme          =       TREUTLER
    Pruning Scheme         =           NONE
    Nuclear Scheme         =       TREUTLER

    Blocking Scheme        =         OCTREE
    BS radius alpha        =              1
    Pruning alpha          =              1
    Radial Points          =             75
    Spherical Points       =            302
    Total Points           =          42831
    Total Blocks           =            389
    Max Points             =            256
    Max Functions          =             32
    Weights Tolerance      =       1.00E-15

   -------------------------------------------------------
    Irrep   Nso     Nmo     Nalpha   Nbeta   Ndocc  Nsocc
   -------------------------------------------------------
     A1        16      16       8       5       5       3
     A2         2       2       0       0       0       0
     B1         7       7       3       2       2       1
     B2         7       7       3       2       2       1
   -------------------------------------------------------
    Total      32      32      14       9       9       5
   -------------------------------------------------------

  ==> Iterations <==

                           Total Energy        Delta E     RMS |[F,P]|

   @DF-UKS iter   1:  -388.22574524102907   -3.88226e+02   2.22353e-02 ADIIS/DIIS
   @DF-UKS iter   2:  -388.26494231990193   -3.91971e-02   1.26365e-02 ADIIS/DIIS/DAMP=1%
   @DF-UKS iter   3:  -388.27190623103058   -6.96391e-03   2.36826e-03 ADIIS/DIIS/DAMP=1%
   @DF-UKS iter   4:  -388.28333037416007   -1.14241e-02   6.31107e-04 ADIIS/DIIS/DAMP=1%
   @DF-UKS iter   5:  -388.28154282112331    1.78755e-03   9.30634e-05 DIIS/DAMP=1%
   @DF-UKS iter   6:  -388.28166027567374   -1.17455e-04   8.05958e-06 DIIS/DAMP=1%
   @DF-UKS iter   7:  -388.28171217248695   -5.18968e-05   1.45260e-06 DIIS/DAMP=1%
   @DF-UKS iter   8:  -388.28170789752897    4.27496e-06   1.02696e-07 DIIS/DAMP=1%
   @DF-UKS iter   9:  -388.28170857449913   -6.76970e-07   1.23842e-08 DIIS/DAMP=1%
   @DF-UKS iter  10:  -388.28170857896981   -4.47068e-09   1.72232e-09 DIIS/DAMP=1%
  Energy and wave function converged.


  ==> Post-Iterations <==

   Electrons on quadrature grid:
      Nalpha   =   14.0000005394 ; deviation = 5.394e-07
      Nbeta    =    9.0000004302 ; deviation = 4.302e-07
      Ntotal   =   23.0000009696 ; deviation = 9.696e-07 

   @Spin Contamination Metric:   1.304698715E-03
   @S^2 Expected:                8.750000000E+00
   @S^2 Observed:                8.751304699E+00
   @S   Expected:                2.500000000E+00
   @S   Observed:                2.500000000E+00

    Orbital Energies [Eh]
    ---------------------

    Alpha Occupied:                                                       

       1A1   -66.282332     2A1   -25.087363     3A1    -5.451551  
       4A1    -3.828447     1B1    -3.797701     1B2    -3.797701  
       5A1    -1.652612     6A1    -0.982564     2B1    -0.843965  
       2B2    -0.843965     7A1    -0.434761     3B2    -0.201303  
       3B1    -0.201303     8A1    -0.078608  

    Alpha Virtual:                                                        

       9A1     0.221224     4B1     0.245756     4B2     0.245756  
       1A2     0.269106    10A1     0.269111    11A1     0.296241  
       5B2     0.399301     5B1     0.399301    12A1     0.749452  
       6B2     1.026695     6B1     1.026695    13A1     1.039356  
      14A1     2.133184     2A2     3.179664    15A1     3.179666  
       7B2     3.225383     7B1     3.225383    16A1     3.489543  

    Beta Occupied:                                                        

       1A1   -66.268258     2A1   -25.042989     3A1    -5.433189  
       4A1    -3.808508     1B1    -3.777139     1B2    -3.777139  
       5A1    -1.550498     2B1    -0.786961     2B2    -0.786961  

    Beta Virtual:                                                         

       6A1    -0.654022     7A1    -0.210243     3B2    -0.024839  
       3B1    -0.024839     8A1     0.043981     9A1     0.300751  
       4B1     0.317473     4B2     0.317473     1A2     0.398643  
      10A1     0.398656    11A1     0.408037     5B2     0.514550  
       5B1     0.514550    12A1     0.817763     6B2     1.064425  
       6B1     1.064425    13A1     1.157425    14A1     2.218273  
      15A1     3.213634     2A2     3.213636     7B2     3.337534  
       7B1     3.337534    16A1     3.607791  

    Final Occupation by Irrep:
             A1    A2    B1    B2 
    DOCC [     5,    0,    2,    2 ]
    SOCC [     3,    0,    1,    1 ]
    NA   [     8,    0,    3,    3 ]
    NB   [     5,    0,    2,    2 ]

  @DF-UKS Final Energy:  -388.28170857896981

   => Energetics <=

    Nuclear Repulsion Energy =             55.5636071203500208
    One-Electron Energy =                -644.8704631459791017
    Two-Electron Energy =                 226.3942872205923891
    DFT Exchange-Correlation Energy =     -25.3691397739331848
    Empirical Dispersion Energy =           0.0000000000000000
    VV10 Nonlocal Energy =                  0.0000000000000000
    Total Energy =                       -388.2817085789698126

  UHF NO Occupations:
  HONO-2 :    3 B2 1.0000000
  HONO-1 :    3 B1 1.0000000
  HONO-0 :    8 A1 1.0000000
  LUNO+0 :    9 A1 0.0002930
  LUNO+1 :    4 B1 0.0001792
  LUNO+2 :    4 B2 0.0001792
  LUNO+3 :   10 A1 0.0000005


Computation Completed


Properties will be evaluated at   0.000000,   0.000000,   0.000000 [a0]

Properties computed using the SCF density matrix


 Multipole Moments:

 ------------------------------------------------------------------------------------
     Multipole            Electronic (a.u.)      Nuclear  (a.u.)        Total (a.u.)
 ------------------------------------------------------------------------------------

 L = 1.  Multiply by 2.5417464519 to convert [e a0] to [Debye]
 Dipole X            :          0.0000000            0.0000000            0.0000000
 Dipole Y            :          0.0000000            0.0000000            0.0000000
 Dipole Z            :          1.7882997           -0.6847767            1.1035230
 Magnitude           :                                                    1.1035230

 ------------------------------------------------------------------------------------

*** tstop() called on Joses-MacBook-Pro-2.local at Wed Jul 16 19:28:34 2025
Module time:
	user time   =       5.10 seconds =       0.08 minutes
	system time =       4.09 seconds =       0.07 minutes
	total time  =          1 seconds =       0.02 minutes
Total time:
	user time   =       5.10 seconds =       0.08 minutes
	system time =       4.09 seconds =       0.07 minutes
	total time  =          1 seconds =       0.02 minutes

*** tstart() called on Joses-MacBook-Pro-2.local
*** at Wed Jul 16 19:28:34 2025


         ------------------------------------------------------------
                                   SCF GRAD                          
                          Rob Parrish, Justin Turney,                
                       Andy Simmonett, and Alex Sokolov              
         ------------------------------------------------------------

  ==> Geometry <==

    Molecular point group: c2v
    Full point group: C_inf_v

    Geometry (in Angstrom), charge = 0, multiplicity = 6:

       Center              X                  Y                   Z               Mass       
    ------------   -----------------  -----------------  -----------------  -----------------
         F            0.000000000000     0.000000000000     0.714679642652    18.998403162730
         SI           0.000000000000     0.000000000000    -0.485320357348    27.976926534650

  Nuclear repulsion =   55.563607120350021

  ==> Basis Set <==

  Basis Set: CC-PVDZ
    Blend: CC-PVDZ
    Number of shells: 14
    Number of basis functions: 32
    Number of Cartesian functions: 34
    Spherical Harmonics?: true
    Max angular momentum: 2

  ==> DFJKGrad: Density-Fitted SCF Gradients <==

    Gradient:                    1
    J tasked:                  Yes
    K tasked:                  Yes
    wK tasked:                  No
    OpenMP threads:              1
    Integrals threads:           1
    Memory [MiB]:              375
    Schwarz Cutoff:          1E-12
    Fitting Condition:       1E-10

   => Auxiliary Basis Set <=

  Basis Set: (CC-PVDZ AUX)
    Blend: CC-PVDZ-JKFIT
    Number of shells: 60
    Number of basis functions: 182
    Number of Cartesian functions: 211
    Spherical Harmonics?: true
    Max angular momentum: 3

  ==> DFT Potential <==

   => LibXC <=

    Version 6.2.2
    S. Lehtola, C. Steigemann, M. J.T. Oliveira, and M. A.L. Marques.,  SoftwareX 7, 1–5 (2018) (10.1016/j.softx.2017.11.002)

   => Composite Functional: B3LYP <= 

    B3LYP Hyb-GGA Exchange-Correlation Functional

    P. J. Stephens, F. J. Devlin, C. F. Chabalowski, and M. J. Frisch.,  J. Phys. Chem. 98, 11623 (1994) (10.1021/j100096a001)

    Deriv               =              1
    GGA                 =           TRUE
    Meta                =          FALSE

    Exchange Hybrid     =           TRUE
    MP2 Hybrid          =          FALSE

   => Exchange Functionals <=

    0.0800   Slater exchange
    0.7200         Becke 88

   => Exact (HF) Exchange <=

    0.2000               HF 

   => Correlation Functionals <=

    0.1900   Vosko, Wilk & Nusair (VWN5_RPA)
    0.8100   Lee, Yang & Parr

   => LibXC Density Thresholds  <==

    XC_HYB_GGA_XC_B3LYP:  1.00E-15 

   => Molecular Quadrature <=

    Radial Scheme          =       TREUTLER
    Pruning Scheme         =           NONE
    Nuclear Scheme         =       TREUTLER

    Blocking Scheme        =         OCTREE
    BS radius alpha        =              1
    Pruning alpha          =              1
    Radial Points          =             75
    Spherical Points       =            302
    Total Points           =          42831
    Total Blocks           =            389
    Max Points             =            256
    Max Functions          =             32
    Weights Tolerance      =       1.00E-15


  -Total Gradient:
     Atom            X                  Y                   Z
    ------   -----------------  -----------------  -----------------
       1        0.000000000000     0.000000000000    -1.138866077122
       2       -0.000000000000     0.000000000000     1.138819810204


*** tstop() called on Joses-MacBook-Pro-2.local at Wed Jul 16 19:28:34 2025
Module time:
	user time   =       0.72 seconds =       0.01 minutes
	system time =       1.87 seconds =       0.03 minutes
	total time  =          0 seconds =       0.00 minutes
Total time:
	user time   =       5.82 seconds =       0.10 minutes
	system time =       5.96 seconds =       0.10 minutes
	total time  =          1 seconds =       0.02 minutes

    			-----------------------------------------

    			 OPTKING 3.0: for geometry optimizations 

    			     By R.A. King, Bethel University     

    			        with contributions from          

    			    A.V. Copan, J. Cayton, A. Heide      

    			-----------------------------------------

    
	                            ===> Fragment 1 <== 

	 Z (Atomic Numbers)          Masses                          Geom                  
	       9.000000            18.998403          0.00000000  0.00000000  1.35054879   
	      14.000000            27.976927          0.00000000  0.00000000 -0.91712256   

	 - Coordinate -           - BOHR/RAD -       - ANG/DEG -
	 R(1,2)           =         2.267671           1.200000


	        --- Internal Coordinate Step in ANG or DEG, aJ/ANG or AJ/DEG ---
	-------------------------------------------------------------------------------
	           Coordinate      Previous         Force          Change          New 
	           ----------      --------        ------          ------        ------
	               R(1,2)       1.20000        9.38261        0.13475       1.33475
	-------------------------------------------------------------------------------

	                                 ==> Convergence Check <==                                  
    
	Measures of convergence in internal coordinates in au.
    
	Criteria marked as inactive (o), active & met (*), and active & unmet ( ).

	----------------------------------------------------------------------------------------------
	   Step    Total Energy     Delta E     Max Force     RMS Force      Max Disp      RMS Disp   
	----------------------------------------------------------------------------------------------
	  Convergence Criteria     1.00e-06 *    3.00e-04 *             o    1.20e-03 *             o
	----------------------------------------------------------------------------------------------
	     1    -388.28170858   -3.88e+02      1.14e+00      1.14e+00 o    2.55e-01      2.55e-01 o  ~
	----------------------------------------------------------------------------------------------

Next Geometry in Ang 
	Fragment 1 (Ang)

	    F   0.0000000000   0.0000000000   0.7820566242
	   Si   0.0000000000   0.0000000000  -0.5526973389


    Structure for next step:
    Molecular point group: c2v
    Full point group: C_inf_v

    Geometry (in Angstrom), charge = 0, multiplicity = 6:

    F            0.000000000000     0.000000000000     0.794934571174
    SI           0.000000000000     0.000000000000    -0.539819391971


Scratch directory: /tmp/
gradient() will perform analytic gradient computation.
   => Libint2 <=

    Primary   basis highest AM E, G, H:  6, 6, 3
    Auxiliary basis highest AM E, G, H:  7, 7, 4
    Onebody   basis highest AM E, G, H:  -, -, -
    Solid Harmonics ordering:            Gaussian

*** tstart() called on Joses-MacBook-Pro-2.local
*** at Wed Jul 16 19:28:34 2025

   => Loading Basis Set <=

    Name: CC-PVDZ
    Role: ORBITAL
    Keyword: BASIS
    atoms 1 entry F          line   228 file /Users/joseantoniorodriguesromero/anaconda3/share/psi4/basis/cc-pvdz.gbs 
    atoms 2 entry SI         line   478 file /Users/joseantoniorodriguesromero/anaconda3/share/psi4/basis/cc-pvdz.gbs 


         ---------------------------------------------------------
                                   SCF
               by Justin Turney, Rob Parrish, Andy Simmonett
                          and Daniel G. A. Smith
                              UKS Reference
                        1 Threads,    500 MiB Core
         ---------------------------------------------------------

  ==> Geometry <==

    Molecular point group: c2v
    Full point group: C_inf_v

    Geometry (in Angstrom), charge = 0, multiplicity = 6:

       Center              X                  Y                   Z               Mass       
    ------------   -----------------  -----------------  -----------------  -----------------
         F            0.000000000000     0.000000000000     0.794934571174    18.998403162730
         SI           0.000000000000     0.000000000000    -0.539819391971    27.976926534650

  Running in c2v symmetry.

  Rotational constants: A = ************  B =      0.83627  C =      0.83627 [cm^-1]
  Rotational constants: A = ************  B =  25070.75981  C =  25070.75981 [MHz]
  Nuclear repulsion =   49.954021778898387

  Charge       = 0
  Multiplicity = 6
  Electrons    = 23
  Nalpha       = 14
  Nbeta        = 9

  ==> Algorithm <==

  SCF Algorithm Type is DF.
  DIIS enabled.
  MOM disabled.
  Fractional occupation disabled.
  Guess Type is READ.
  Energy threshold   = 1.00e-08
  Density threshold  = 1.00e-08
  Integral threshold = 1.00e-12

  ==> Primary Basis <==

  Basis Set: CC-PVDZ
    Blend: CC-PVDZ
    Number of shells: 14
    Number of basis functions: 32
    Number of Cartesian functions: 34
    Spherical Harmonics?: true
    Max angular momentum: 2

  ==> DFT Potential <==

   => LibXC <=

    Version 6.2.2
    S. Lehtola, C. Steigemann, M. J.T. Oliveira, and M. A.L. Marques.,  SoftwareX 7, 1–5 (2018) (10.1016/j.softx.2017.11.002)

   => Composite Functional: B3LYP <= 

    B3LYP Hyb-GGA Exchange-Correlation Functional

    P. J. Stephens, F. J. Devlin, C. F. Chabalowski, and M. J. Frisch.,  J. Phys. Chem. 98, 11623 (1994) (10.1021/j100096a001)

    Deriv               =              1
    GGA                 =           TRUE
    Meta                =          FALSE

    Exchange Hybrid     =           TRUE
    MP2 Hybrid          =          FALSE

   => Exchange Functionals <=

    0.0800   Slater exchange
    0.7200         Becke 88

   => Exact (HF) Exchange <=

    0.2000               HF 

   => Correlation Functionals <=

    0.1900   Vosko, Wilk & Nusair (VWN5_RPA)
    0.8100   Lee, Yang & Parr

   => LibXC Density Thresholds  <==

    XC_HYB_GGA_XC_B3LYP:  1.00E-15 

   => Molecular Quadrature <=

    Radial Scheme          =       TREUTLER
    Pruning Scheme         =           NONE
    Nuclear Scheme         =       TREUTLER

    Blocking Scheme        =         OCTREE
    BS radius alpha        =              1
    Pruning alpha          =              1
    Radial Points          =             75
    Spherical Points       =            302
    Total Points           =          42855
    Total Blocks           =            389
    Max Points             =            256
    Max Functions          =             32
    Weights Tolerance      =       1.00E-15

   => Loading Basis Set <=

    Name: (CC-PVDZ AUX)
    Role: JKFIT
    Keyword: DF_BASIS_SCF
    atoms 1 entry F          line   271 file /Users/joseantoniorodriguesromero/anaconda3/share/psi4/basis/cc-pvdz-jkfit.gbs 
    atoms 2 entry SI         line   445 file /Users/joseantoniorodriguesromero/anaconda3/share/psi4/basis/cc-pvdz-jkfit.gbs 

   => Loading Basis Set <=

    Name: CC-PVDZ
    Role: ORBITAL
    Keyword: BASIS
    atoms 1 entry F          line   228 file /Users/joseantoniorodriguesromero/anaconda3/share/psi4/basis/cc-pvdz.gbs 
    atoms 2 entry SI         line   478 file /Users/joseantoniorodriguesromero/anaconda3/share/psi4/basis/cc-pvdz.gbs 

  Reading orbitals from file /tmp/sextet_FSi.default.69115.180.npy, no projection.

  ==> Integral Setup <==

  DFHelper Memory: AOs need 0.002 GiB; user supplied 0.328 GiB. 
  Using in-core AOs.

  ==> MemDFJK: Density-Fitted J/K Matrices <==

    J tasked:                   Yes
    K tasked:                   Yes
    wK tasked:                   No
    OpenMP threads:               1
    Memory [MiB]:               335
    Algorithm:                 Core
    Schwarz Cutoff:           1E-12
    Mask sparsity (%):       0.0000
    Fitting Condition:        1E-10

   => Auxiliary Basis Set <=

  Basis Set: (CC-PVDZ AUX)
    Blend: CC-PVDZ-JKFIT
    Number of shells: 60
    Number of basis functions: 182
    Number of Cartesian functions: 211
    Spherical Harmonics?: true
    Max angular momentum: 3

  Cached 100.0% of DFT collocation blocks in 0.038 [GiB].

  Minimum eigenvalue in the overlap matrix is 1.9594081646E-02.
  Reciprocal condition number of the overlap matrix is 6.7740403127E-03.
    Using symmetric orthogonalization.

  ==> Pre-Iterations <==

  SCF Guess: Orbitals guess was supplied from a previous computation.

   -------------------------------------------------------
    Irrep   Nso     Nmo     Nalpha   Nbeta   Ndocc  Nsocc
   -------------------------------------------------------
     A1        16      16       8       5       5       3
     A2         2       2       0       0       0       0
     B1         7       7       3       2       2       1
     B2         7       7       3       2       2       1
   -------------------------------------------------------
    Total      32      32      14       9       9       5
   -------------------------------------------------------

  ==> Iterations <==

                           Total Energy        Delta E     RMS |[F,P]|

   @DF-UKS iter   0:  -388.53773321402969   -3.88538e+02   3.60735e-02 
   @DF-UKS iter   1:  -388.49759194876611    4.01413e-02   6.19824e-03 ADIIS/DIIS
   @DF-UKS iter   2:  -388.49962214912370   -2.03020e-03   5.04458e-03 ADIIS/DIIS/DAMP=1%
   @DF-UKS iter   3:  -388.50567061942058   -6.04847e-03   4.02753e-04 ADIIS/DIIS/DAMP=1%
   @DF-UKS iter   4:  -388.50262580688656    3.04481e-03   5.88697e-05 DIIS/DAMP=1%
   @DF-UKS iter   5:  -388.50254323662449    8.25703e-05   9.00313e-06 DIIS/DAMP=1%
   @DF-UKS iter   6:  -388.50250949502259    3.37416e-05   1.30720e-06 DIIS/DAMP=1%
   @DF-UKS iter   7:  -388.50251745098808   -7.95597e-06   2.20148e-07 DIIS/DAMP=1%
   @DF-UKS iter   8:  -388.50251783965859   -3.88671e-07   2.76645e-08 DIIS/DAMP=1%
   @DF-UKS iter   9:  -388.50251785829158   -1.86330e-08   2.51967e-09 DIIS/DAMP=1%
   @DF-UKS iter  10:  -388.50251785397359    4.31800e-09   2.32774e-10 DIIS/DAMP=1%
  Energy and wave function converged.


  ==> Post-Iterations <==

   Electrons on quadrature grid:
      Nalpha   =   14.0000055372 ; deviation = 5.537e-06
      Nbeta    =    9.0000054375 ; deviation = 5.438e-06
      Ntotal   =   23.0000109747 ; deviation = 1.097e-05 

   @Spin Contamination Metric:   1.370218505E-03
   @S^2 Expected:                8.750000000E+00
   @S^2 Observed:                8.751370219E+00
   @S   Expected:                2.500000000E+00
   @S   Observed:                2.500000000E+00

    Orbital Energies [Eh]
    ---------------------

    Alpha Occupied:                                                       

       1A1   -66.267767     2A1   -25.050418     3A1    -5.420409  
       4A1    -3.790428     1B2    -3.772680     1B1    -3.772680  
       5A1    -1.581501     6A1    -0.931700     2B2    -0.774245  
       2B1    -0.774245     7A1    -0.434725     3B2    -0.205562  
       3B1    -0.205562     8A1    -0.079323  

    Alpha Virtual:                                                        

       9A1     0.221194     4B1     0.253184     4B2     0.253184  
       1A2     0.281500    10A1     0.281501    11A1     0.298626  
       5B2     0.373897     5B1     0.373897    12A1     0.671577  
      13A1     0.999615     6B2     1.048401     6B1     1.048401  
      14A1     2.052749    15A1     3.236492     2A2     3.236531  
       7B2     3.266181     7B1     3.266181    16A1     3.554888  

    Beta Occupied:                                                        

       1A1   -66.253346     2A1   -25.008214     3A1    -5.401669  
       4A1    -3.771772     1B1    -3.751347     1B2    -3.751347  
       5A1    -1.478214     2B2    -0.719376     2B1    -0.719376  

    Beta Virtual:                                                         

       6A1    -0.617672     7A1    -0.208457     3B2    -0.027572  
       3B1    -0.027572     8A1     0.049107     9A1     0.301490  
       4B1     0.323578     4B2     0.323578    10A1     0.407334  
      11A1     0.414975     1A2     0.415007     5B2     0.491100  
       5B1     0.491100    12A1     0.748765     6B2     1.084399  
       6B1     1.084399    13A1     1.118254    14A1     2.125596  
      15A1     3.268323     2A2     3.268366     7B2     3.374885  
       7B1     3.374885    16A1     3.679285  

    Final Occupation by Irrep:
             A1    A2    B1    B2 
    DOCC [     5,    0,    2,    2 ]
    SOCC [     3,    0,    1,    1 ]
    NA   [     8,    0,    3,    3 ]
    NB   [     5,    0,    2,    2 ]

  @DF-UKS Final Energy:  -388.50251785397359

   => Energetics <=

    Nuclear Repulsion Energy =             49.9540217788983867
    One-Electron Energy =                -634.9429857013360561
    Two-Electron Energy =                 221.7818948145675790
    DFT Exchange-Correlation Energy =     -25.2954487461035740
    Empirical Dispersion Energy =           0.0000000000000000
    VV10 Nonlocal Energy =                  0.0000000000000000
    Total Energy =                       -388.5025178539735862

  UHF NO Occupations:
  HONO-2 :    3 B2 1.0000000
  HONO-1 :    7 A1 1.0000000
  HONO-0 :    8 A1 1.0000000
  LUNO+0 :    9 A1 0.0003194
  LUNO+1 :    4 B1 0.0001826
  LUNO+2 :    4 B2 0.0001826
  LUNO+3 :   10 A1 0.0000003


Computation Completed


Properties will be evaluated at   0.000000,   0.000000,   0.000000 [a0]

Properties computed using the SCF density matrix


 Multipole Moments:

 ------------------------------------------------------------------------------------
     Multipole            Electronic (a.u.)      Nuclear  (a.u.)        Total (a.u.)
 ------------------------------------------------------------------------------------

 L = 1.  Multiply by 2.5417464519 to convert [e a0] to [Debye]
 Dipole X            :          0.0000000            0.0000000            0.0000000
 Dipole Y            :          0.0000000            0.0000000            0.0000000
 Dipole Z            :          1.8851799           -0.7616737            1.1235062
 Magnitude           :                                                    1.1235062

 ------------------------------------------------------------------------------------

*** tstop() called on Joses-MacBook-Pro-2.local at Wed Jul 16 19:28:35 2025
Module time:
	user time   =       4.05 seconds =       0.07 minutes
	system time =       3.15 seconds =       0.05 minutes
	total time  =          1 seconds =       0.02 minutes
Total time:
	user time   =       9.91 seconds =       0.17 minutes
	system time =       9.38 seconds =       0.16 minutes
	total time  =          2 seconds =       0.03 minutes

*** tstart() called on Joses-MacBook-Pro-2.local
*** at Wed Jul 16 19:28:35 2025


         ------------------------------------------------------------
                                   SCF GRAD                          
                          Rob Parrish, Justin Turney,                
                       Andy Simmonett, and Alex Sokolov              
         ------------------------------------------------------------

  ==> Geometry <==

    Molecular point group: c2v
    Full point group: C_inf_v

    Geometry (in Angstrom), charge = 0, multiplicity = 6:

       Center              X                  Y                   Z               Mass       
    ------------   -----------------  -----------------  -----------------  -----------------
         F            0.000000000000     0.000000000000     0.794934571174    18.998403162730
         SI           0.000000000000     0.000000000000    -0.539819391971    27.976926534650

  Nuclear repulsion =   49.954021778898387

  ==> Basis Set <==

  Basis Set: CC-PVDZ
    Blend: CC-PVDZ
    Number of shells: 14
    Number of basis functions: 32
    Number of Cartesian functions: 34
    Spherical Harmonics?: true
    Max angular momentum: 2

  ==> DFJKGrad: Density-Fitted SCF Gradients <==

    Gradient:                    1
    J tasked:                  Yes
    K tasked:                  Yes
    wK tasked:                  No
    OpenMP threads:              1
    Integrals threads:           1
    Memory [MiB]:              375
    Schwarz Cutoff:          1E-12
    Fitting Condition:       1E-10

   => Auxiliary Basis Set <=

  Basis Set: (CC-PVDZ AUX)
    Blend: CC-PVDZ-JKFIT
    Number of shells: 60
    Number of basis functions: 182
    Number of Cartesian functions: 211
    Spherical Harmonics?: true
    Max angular momentum: 3

  ==> DFT Potential <==

   => LibXC <=

    Version 6.2.2
    S. Lehtola, C. Steigemann, M. J.T. Oliveira, and M. A.L. Marques.,  SoftwareX 7, 1–5 (2018) (10.1016/j.softx.2017.11.002)

   => Composite Functional: B3LYP <= 

    B3LYP Hyb-GGA Exchange-Correlation Functional

    P. J. Stephens, F. J. Devlin, C. F. Chabalowski, and M. J. Frisch.,  J. Phys. Chem. 98, 11623 (1994) (10.1021/j100096a001)

    Deriv               =              1
    GGA                 =           TRUE
    Meta                =          FALSE

    Exchange Hybrid     =           TRUE
    MP2 Hybrid          =          FALSE

   => Exchange Functionals <=

    0.0800   Slater exchange
    0.7200         Becke 88

   => Exact (HF) Exchange <=

    0.2000               HF 

   => Correlation Functionals <=

    0.1900   Vosko, Wilk & Nusair (VWN5_RPA)
    0.8100   Lee, Yang & Parr

   => LibXC Density Thresholds  <==

    XC_HYB_GGA_XC_B3LYP:  1.00E-15 

   => Molecular Quadrature <=

    Radial Scheme          =       TREUTLER
    Pruning Scheme         =           NONE
    Nuclear Scheme         =       TREUTLER

    Blocking Scheme        =         OCTREE
    BS radius alpha        =              1
    Pruning alpha          =              1
    Radial Points          =             75
    Spherical Points       =            302
    Total Points           =          42855
    Total Blocks           =            389
    Max Points             =            256
    Max Functions          =             32
    Weights Tolerance      =       1.00E-15


  -Total Gradient:
     Atom            X                  Y                   Z
    ------   -----------------  -----------------  -----------------
       1        0.000000000000     0.000000000000    -0.651787739141
       2        0.000000000000     0.000000000000     0.651662076999


*** tstop() called on Joses-MacBook-Pro-2.local at Wed Jul 16 19:28:35 2025
Module time:
	user time   =       1.07 seconds =       0.02 minutes
	system time =       1.52 seconds =       0.03 minutes
	total time  =          0 seconds =       0.00 minutes
Total time:
	user time   =      10.98 seconds =       0.18 minutes
	system time =      10.90 seconds =       0.18 minutes
	total time  =          2 seconds =       0.03 minutes

    			-----------------------------------------

    			 OPTKING 3.0: for geometry optimizations 

    			     By R.A. King, Bethel University     

    			        with contributions from          

    			    A.V. Copan, J. Cayton, A. Heide      

    			-----------------------------------------

    
	                            ===> Fragment 1 <== 

	 Z (Atomic Numbers)          Masses                          Geom                  
	       9.000000            18.998403          0.00000000  0.00000000  1.50220863   
	      14.000000            27.976927          0.00000000  0.00000000 -1.02011081   

	 - Coordinate -           - BOHR/RAD -       - ANG/DEG -
	 R(1,2)           =         2.522319           1.334754


	        --- Internal Coordinate Step in ANG or DEG, aJ/ANG or AJ/DEG ---
	-------------------------------------------------------------------------------
	           Coordinate      Previous         Force          Change          New 
	           ----------      --------        ------          ------        ------
	               R(1,2)       1.33475        5.36938        0.15142       1.48618
	-------------------------------------------------------------------------------

	                                 ==> Convergence Check <==                                  
    
	Measures of convergence in internal coordinates in au.
    
	Criteria marked as inactive (o), active & met (*), and active & unmet ( ).

	----------------------------------------------------------------------------------------------
	   Step    Total Energy     Delta E     Max Force     RMS Force      Max Disp      RMS Disp   
	----------------------------------------------------------------------------------------------
	  Convergence Criteria     1.00e-06 *    3.00e-04 *             o    1.20e-03 *             o
	----------------------------------------------------------------------------------------------
	     2    -388.50251785   -2.21e-01      6.52e-01      6.52e-01 o    2.86e-01      2.86e-01 o  ~
	----------------------------------------------------------------------------------------------

Next Geometry in Ang 
	Fragment 1 (Ang)

	    F   0.0000000000   0.0000000000   0.8706454806
	   Si   0.0000000000   0.0000000000  -0.6155303014


    Structure for next step:
    Molecular point group: c2v
    Full point group: C_inf_v

    Geometry (in Angstrom), charge = 0, multiplicity = 6:

    F            0.000000000000     0.000000000000     0.885116314028
    SI           0.000000000000     0.000000000000    -0.601059468022


Scratch directory: /tmp/
gradient() will perform analytic gradient computation.
   => Libint2 <=

    Primary   basis highest AM E, G, H:  6, 6, 3
    Auxiliary basis highest AM E, G, H:  7, 7, 4
    Onebody   basis highest AM E, G, H:  -, -, -
    Solid Harmonics ordering:            Gaussian

*** tstart() called on Joses-MacBook-Pro-2.local
*** at Wed Jul 16 19:28:35 2025

   => Loading Basis Set <=

    Name: CC-PVDZ
    Role: ORBITAL
    Keyword: BASIS
    atoms 1 entry F          line   228 file /Users/joseantoniorodriguesromero/anaconda3/share/psi4/basis/cc-pvdz.gbs 
    atoms 2 entry SI         line   478 file /Users/joseantoniorodriguesromero/anaconda3/share/psi4/basis/cc-pvdz.gbs 


         ---------------------------------------------------------
                                   SCF
               by Justin Turney, Rob Parrish, Andy Simmonett
                          and Daniel G. A. Smith
                              UKS Reference
                        1 Threads,    500 MiB Core
         ---------------------------------------------------------

  ==> Geometry <==

    Molecular point group: c2v
    Full point group: C_inf_v

    Geometry (in Angstrom), charge = 0, multiplicity = 6:

       Center              X                  Y                   Z               Mass       
    ------------   -----------------  -----------------  -----------------  -----------------
         F            0.000000000000     0.000000000000     0.885116314028    18.998403162730
         SI           0.000000000000     0.000000000000    -0.601059468022    27.976926534650

  Running in c2v symmetry.

  Rotational constants: A = ************  B =      0.67454  C =      0.67454 [cm^-1]
  Rotational constants: A = ************  B =  20222.25462  C =  20222.25462 [MHz]
  Nuclear repulsion =   44.864362176900855

  Charge       = 0
  Multiplicity = 6
  Electrons    = 23
  Nalpha       = 14
  Nbeta        = 9

  ==> Algorithm <==

  SCF Algorithm Type is DF.
  DIIS enabled.
  MOM disabled.
  Fractional occupation disabled.
  Guess Type is READ.
  Energy threshold   = 1.00e-08
  Density threshold  = 1.00e-08
  Integral threshold = 1.00e-12

  ==> Primary Basis <==

  Basis Set: CC-PVDZ
    Blend: CC-PVDZ
    Number of shells: 14
    Number of basis functions: 32
    Number of Cartesian functions: 34
    Spherical Harmonics?: true
    Max angular momentum: 2

  ==> DFT Potential <==

   => LibXC <=

    Version 6.2.2
    S. Lehtola, C. Steigemann, M. J.T. Oliveira, and M. A.L. Marques.,  SoftwareX 7, 1–5 (2018) (10.1016/j.softx.2017.11.002)

   => Composite Functional: B3LYP <= 

    B3LYP Hyb-GGA Exchange-Correlation Functional

    P. J. Stephens, F. J. Devlin, C. F. Chabalowski, and M. J. Frisch.,  J. Phys. Chem. 98, 11623 (1994) (10.1021/j100096a001)

    Deriv               =              1
    GGA                 =           TRUE
    Meta                =          FALSE

    Exchange Hybrid     =           TRUE
    MP2 Hybrid          =          FALSE

   => Exchange Functionals <=

    0.0800   Slater exchange
    0.7200         Becke 88

   => Exact (HF) Exchange <=

    0.2000               HF 

   => Correlation Functionals <=

    0.1900   Vosko, Wilk & Nusair (VWN5_RPA)
    0.8100   Lee, Yang & Parr

   => LibXC Density Thresholds  <==

    XC_HYB_GGA_XC_B3LYP:  1.00E-15 

   => Molecular Quadrature <=

    Radial Scheme          =       TREUTLER
    Pruning Scheme         =           NONE
    Nuclear Scheme         =       TREUTLER

    Blocking Scheme        =         OCTREE
    BS radius alpha        =              1
    Pruning alpha          =              1
    Radial Points          =             75
    Spherical Points       =            302
    Total Points           =          42869
    Total Blocks           =            390
    Max Points             =            254
    Max Functions          =             32
    Weights Tolerance      =       1.00E-15

   => Loading Basis Set <=

    Name: (CC-PVDZ AUX)
    Role: JKFIT
    Keyword: DF_BASIS_SCF
    atoms 1 entry F          line   271 file /Users/joseantoniorodriguesromero/anaconda3/share/psi4/basis/cc-pvdz-jkfit.gbs 
    atoms 2 entry SI         line   445 file /Users/joseantoniorodriguesromero/anaconda3/share/psi4/basis/cc-pvdz-jkfit.gbs 

   => Loading Basis Set <=

    Name: CC-PVDZ
    Role: ORBITAL
    Keyword: BASIS
    atoms 1 entry F          line   228 file /Users/joseantoniorodriguesromero/anaconda3/share/psi4/basis/cc-pvdz.gbs 
    atoms 2 entry SI         line   478 file /Users/joseantoniorodriguesromero/anaconda3/share/psi4/basis/cc-pvdz.gbs 

  Reading orbitals from file /tmp/sextet_FSi.default.69115.180.npy, no projection.

  ==> Integral Setup <==

  DFHelper Memory: AOs need 0.002 GiB; user supplied 0.328 GiB. 
  Using in-core AOs.

  ==> MemDFJK: Density-Fitted J/K Matrices <==

    J tasked:                   Yes
    K tasked:                   Yes
    wK tasked:                   No
    OpenMP threads:               1
    Memory [MiB]:               335
    Algorithm:                 Core
    Schwarz Cutoff:           1E-12
    Mask sparsity (%):       0.0000
    Fitting Condition:        1E-10

   => Auxiliary Basis Set <=

  Basis Set: (CC-PVDZ AUX)
    Blend: CC-PVDZ-JKFIT
    Number of shells: 60
    Number of basis functions: 182
    Number of Cartesian functions: 211
    Spherical Harmonics?: true
    Max angular momentum: 3

  Cached 100.0% of DFT collocation blocks in 0.038 [GiB].

  Minimum eigenvalue in the overlap matrix is 3.5558316648E-02.
  Reciprocal condition number of the overlap matrix is 1.2627623963E-02.
    Using symmetric orthogonalization.

  ==> Pre-Iterations <==

  SCF Guess: Orbitals guess was supplied from a previous computation.

   -------------------------------------------------------
    Irrep   Nso     Nmo     Nalpha   Nbeta   Ndocc  Nsocc
   -------------------------------------------------------
     A1        16      16       8       5       5       3
     A2         2       2       0       0       0       0
     B1         7       7       3       2       2       1
     B2         7       7       3       2       2       1
   -------------------------------------------------------
    Total      32      32      14       9       9       5
   -------------------------------------------------------

  ==> Iterations <==

                           Total Energy        Delta E     RMS |[F,P]|

   @DF-UKS iter   0:  -388.63846754525281   -3.88638e+02   2.89367e-02 
   @DF-UKS iter   1:  -388.64508778017455   -6.62023e-03   2.91084e-03 ADIIS/DIIS
   @DF-UKS iter   2:  -388.64609221405004   -1.00443e-03   1.81225e-03 ADIIS/DIIS/DAMP=1%
   @DF-UKS iter   3:  -388.64794715973051   -1.85495e-03   2.18325e-04 ADIIS/DIIS/DAMP=1%
   @DF-UKS iter   4:  -388.64650421308505    1.44295e-03   1.02193e-04 ADIIS/DIIS/DAMP=1%
   @DF-UKS iter   5:  -388.64656167042517   -5.74573e-05   9.91110e-06 DIIS/DAMP=1%
   @DF-UKS iter   6:  -388.64654101808253    2.06523e-05   1.48127e-06 DIIS/DAMP=1%
   @DF-UKS iter   7:  -388.64654793824877   -6.92017e-06   1.46914e-07 DIIS/DAMP=1%
   @DF-UKS iter   8:  -388.64654759142280    3.46826e-07   1.47436e-08 DIIS/DAMP=1%
   @DF-UKS iter   9:  -388.64654766427623   -7.28534e-08   1.22642e-09 DIIS/DAMP=1%
   @DF-UKS iter  10:  -388.64654766685635   -2.58012e-09   1.37687e-10 DIIS/DAMP=1%
  Energy and wave function converged.


  ==> Post-Iterations <==

   Electrons on quadrature grid:
      Nalpha   =   14.0000042539 ; deviation = 4.254e-06
      Nbeta    =    9.0000046155 ; deviation = 4.615e-06
      Ntotal   =   23.0000088694 ; deviation = 8.869e-06 

   @Spin Contamination Metric:   1.456526204E-03
   @S^2 Expected:                8.750000000E+00
   @S^2 Observed:                8.751456526E+00
   @S   Expected:                2.500000000E+00
   @S   Observed:                2.500000000E+00

    Orbital Energies [Eh]
    ---------------------

    Alpha Occupied:                                                       

       1A1   -66.246812     2A1   -25.000158     3A1    -5.392238  
       4A1    -3.758533     1B1    -3.747729     1B2    -3.747729  
       5A1    -1.499929     6A1    -0.864797     2B1    -0.702872  
       2B2    -0.702872     7A1    -0.437677     3B1    -0.208303  
       3B2    -0.208303     8A1    -0.087881  

    Alpha Virtual:                                                        

       9A1     0.218498     4B1     0.261018     4B2     0.261018  
      10A1     0.293030     1A2     0.293033    11A1     0.297098  
       5B1     0.354180     5B2     0.354180    12A1     0.578121  
      13A1     1.001786     6B1     1.069908     6B2     1.069908  
      14A1     2.022651    15A1     3.297173     2A2     3.297207  
       7B1     3.300877     7B2     3.300877    16A1     3.550297  

    Beta Occupied:                                                        

       1A1   -66.231766     2A1   -24.959928     3A1    -5.372621  
       4A1    -3.739384     1B1    -3.725654     1B2    -3.725654  
       5A1    -1.395531     2B1    -0.651432     2B2    -0.651432  

    Beta Virtual:                                                         

       6A1    -0.564361     7A1    -0.208232     3B1    -0.029160  
       3B2    -0.029160     8A1     0.052559     9A1     0.296360  
       4B1     0.331961     4B2     0.331961    10A1     0.397265  
      11A1     0.430282     1A2     0.430302     5B1     0.473480  
       5B2     0.473480    12A1     0.675489     6B1     1.103633  
       6B2     1.103633    13A1     1.115131    14A1     2.087537  
      15A1     3.326170     2A2     3.326196     7B1     3.406136  
       7B2     3.406136    16A1     3.678573  

    Final Occupation by Irrep:
             A1    A2    B1    B2 
    DOCC [     5,    0,    2,    2 ]
    SOCC [     3,    0,    1,    1 ]
    NA   [     8,    0,    3,    3 ]
    NB   [     5,    0,    2,    2 ]

  @DF-UKS Final Energy:  -388.64654766685635

   => Energetics <=

    Nuclear Repulsion Energy =             44.8643621769008547
    One-Electron Energy =                -625.9369873292519060
    Two-Electron Energy =                 217.6796235482429722
    DFT Exchange-Correlation Energy =     -25.2535460627482209
    Empirical Dispersion Energy =           0.0000000000000000
    VV10 Nonlocal Energy =                  0.0000000000000000
    Total Energy =                       -388.6465476668563497

  UHF NO Occupations:
  HONO-2 :    8 A1 1.0000000
  HONO-1 :    3 B1 1.0000000
  HONO-0 :    3 B2 1.0000000
  LUNO+0 :    9 A1 0.0003559
  LUNO+1 :    4 B1 0.0001860
  LUNO+2 :    4 B2 0.0001860
  LUNO+3 :   10 A1 0.0000002


Computation Completed


Properties will be evaluated at   0.000000,   0.000000,   0.000000 [a0]

Properties computed using the SCF density matrix


 Multipole Moments:

 ------------------------------------------------------------------------------------
     Multipole            Electronic (a.u.)      Nuclear  (a.u.)        Total (a.u.)
 ------------------------------------------------------------------------------------

 L = 1.  Multiply by 2.5417464519 to convert [e a0] to [Debye]
 Dipole X            :          0.0000000            0.0000000            0.0000000
 Dipole Y            :          0.0000000            0.0000000            0.0000000
 Dipole Z            :          1.9501594           -0.8480821            1.1020772
 Magnitude           :                                                    1.1020772

 ------------------------------------------------------------------------------------

*** tstop() called on Joses-MacBook-Pro-2.local at Wed Jul 16 19:28:36 2025
Module time:
	user time   =       4.82 seconds =       0.08 minutes
	system time =       2.69 seconds =       0.04 minutes
	total time  =          1 seconds =       0.02 minutes
Total time:
	user time   =      15.98 seconds =       0.27 minutes
	system time =      13.71 seconds =       0.23 minutes
	total time  =          3 seconds =       0.05 minutes

*** tstart() called on Joses-MacBook-Pro-2.local
*** at Wed Jul 16 19:28:36 2025


         ------------------------------------------------------------
                                   SCF GRAD                          
                          Rob Parrish, Justin Turney,                
                       Andy Simmonett, and Alex Sokolov              
         ------------------------------------------------------------

  ==> Geometry <==

    Molecular point group: c2v
    Full point group: C_inf_v

    Geometry (in Angstrom), charge = 0, multiplicity = 6:

       Center              X                  Y                   Z               Mass       
    ------------   -----------------  -----------------  -----------------  -----------------
         F            0.000000000000     0.000000000000     0.885116314028    18.998403162730
         SI           0.000000000000     0.000000000000    -0.601059468022    27.976926534650

  Nuclear repulsion =   44.864362176900855

  ==> Basis Set <==

  Basis Set: CC-PVDZ
    Blend: CC-PVDZ
    Number of shells: 14
    Number of basis functions: 32
    Number of Cartesian functions: 34
    Spherical Harmonics?: true
    Max angular momentum: 2

  ==> DFJKGrad: Density-Fitted SCF Gradients <==

    Gradient:                    1
    J tasked:                  Yes
    K tasked:                  Yes
    wK tasked:                  No
    OpenMP threads:              1
    Integrals threads:           1
    Memory [MiB]:              375
    Schwarz Cutoff:          1E-12
    Fitting Condition:       1E-10

   => Auxiliary Basis Set <=

  Basis Set: (CC-PVDZ AUX)
    Blend: CC-PVDZ-JKFIT
    Number of shells: 60
    Number of basis functions: 182
    Number of Cartesian functions: 211
    Spherical Harmonics?: true
    Max angular momentum: 3

  ==> DFT Potential <==

   => LibXC <=

    Version 6.2.2
    S. Lehtola, C. Steigemann, M. J.T. Oliveira, and M. A.L. Marques.,  SoftwareX 7, 1–5 (2018) (10.1016/j.softx.2017.11.002)

   => Composite Functional: B3LYP <= 

    B3LYP Hyb-GGA Exchange-Correlation Functional

    P. J. Stephens, F. J. Devlin, C. F. Chabalowski, and M. J. Frisch.,  J. Phys. Chem. 98, 11623 (1994) (10.1021/j100096a001)

    Deriv               =              1
    GGA                 =           TRUE
    Meta                =          FALSE

    Exchange Hybrid     =           TRUE
    MP2 Hybrid          =          FALSE

   => Exchange Functionals <=

    0.0800   Slater exchange
    0.7200         Becke 88

   => Exact (HF) Exchange <=

    0.2000               HF 

   => Correlation Functionals <=

    0.1900   Vosko, Wilk & Nusair (VWN5_RPA)
    0.8100   Lee, Yang & Parr

   => LibXC Density Thresholds  <==

    XC_HYB_GGA_XC_B3LYP:  1.00E-15 

   => Molecular Quadrature <=

    Radial Scheme          =       TREUTLER
    Pruning Scheme         =           NONE
    Nuclear Scheme         =       TREUTLER

    Blocking Scheme        =         OCTREE
    BS radius alpha        =              1
    Pruning alpha          =              1
    Radial Points          =             75
    Spherical Points       =            302
    Total Points           =          42869
    Total Blocks           =            390
    Max Points             =            254
    Max Functions          =             32
    Weights Tolerance      =       1.00E-15


  -Total Gradient:
     Atom            X                  Y                   Z
    ------   -----------------  -----------------  -----------------
       1        0.000000000000     0.000000000000    -0.388686248380
       2        0.000000000000     0.000000000000     0.388588130361


*** tstop() called on Joses-MacBook-Pro-2.local at Wed Jul 16 19:28:36 2025
Module time:
	user time   =       0.87 seconds =       0.01 minutes
	system time =       1.56 seconds =       0.03 minutes
	total time  =          0 seconds =       0.00 minutes
Total time:
	user time   =      16.85 seconds =       0.28 minutes
	system time =      15.27 seconds =       0.25 minutes
	total time  =          3 seconds =       0.05 minutes

    			-----------------------------------------

    			 OPTKING 3.0: for geometry optimizations 

    			     By R.A. King, Bethel University     

    			        with contributions from          

    			    A.V. Copan, J. Cayton, A. Heide      

    			-----------------------------------------

    
	                            ===> Fragment 1 <== 

	 Z (Atomic Numbers)          Masses                          Geom                  
	       9.000000            18.998403          0.00000000  0.00000000  1.67262742   
	      14.000000            27.976927          0.00000000  0.00000000 -1.13583778   

	 - Coordinate -           - BOHR/RAD -       - ANG/DEG -
	 R(1,2)           =         2.808465           1.486176


	        --- Internal Coordinate Step in ANG or DEG, aJ/ANG or AJ/DEG ---
	-------------------------------------------------------------------------------
	           Coordinate      Previous         Force          Change          New 
	           ----------      --------        ------          ------        ------
	               R(1,2)       1.48618        3.20187        0.17515       1.66132
	-------------------------------------------------------------------------------

	                                 ==> Convergence Check <==                                  
    
	Measures of convergence in internal coordinates in au.
    
	Criteria marked as inactive (o), active & met (*), and active & unmet ( ).

	----------------------------------------------------------------------------------------------
	   Step    Total Energy     Delta E     Max Force     RMS Force      Max Disp      RMS Disp   
	----------------------------------------------------------------------------------------------
	  Convergence Criteria     1.00e-06 *    3.00e-04 *             o    1.20e-03 *             o
	----------------------------------------------------------------------------------------------
	     3    -388.64654767   -1.44e-01      3.89e-01      3.89e-01 o    3.31e-01      3.31e-01 o  ~
	----------------------------------------------------------------------------------------------

Next Geometry in Ang 
	Fragment 1 (Ang)

	    F   0.0000000000   0.0000000000   0.9726909035
	   Si   0.0000000000   0.0000000000  -0.6886340575


    Structure for next step:
    Molecular point group: c2v
    Full point group: C_inf_v

    Geometry (in Angstrom), charge = 0, multiplicity = 6:

    F            0.000000000000     0.000000000000     0.989429274496
    SI           0.000000000000     0.000000000000    -0.671895686418


Scratch directory: /tmp/
gradient() will perform analytic gradient computation.
   => Libint2 <=

    Primary   basis highest AM E, G, H:  6, 6, 3
    Auxiliary basis highest AM E, G, H:  7, 7, 4
    Onebody   basis highest AM E, G, H:  -, -, -
    Solid Harmonics ordering:            Gaussian

*** tstart() called on Joses-MacBook-Pro-2.local
*** at Wed Jul 16 19:28:36 2025

   => Loading Basis Set <=

    Name: CC-PVDZ
    Role: ORBITAL
    Keyword: BASIS
    atoms 1 entry F          line   228 file /Users/joseantoniorodriguesromero/anaconda3/share/psi4/basis/cc-pvdz.gbs 
    atoms 2 entry SI         line   478 file /Users/joseantoniorodriguesromero/anaconda3/share/psi4/basis/cc-pvdz.gbs 


         ---------------------------------------------------------
                                   SCF
               by Justin Turney, Rob Parrish, Andy Simmonett
                          and Daniel G. A. Smith
                              UKS Reference
                        1 Threads,    500 MiB Core
         ---------------------------------------------------------

  ==> Geometry <==

    Molecular point group: c2v
    Full point group: C_inf_v

    Geometry (in Angstrom), charge = 0, multiplicity = 6:

       Center              X                  Y                   Z               Mass       
    ------------   -----------------  -----------------  -----------------  -----------------
         F            0.000000000000     0.000000000000     0.989429274496    18.998403162730
         SI           0.000000000000     0.000000000000    -0.671895686418    27.976926534650

  Running in c2v symmetry.

  Rotational constants: A = ************  B =      0.53981  C =      0.53981 [cm^-1]
  Rotational constants: A = ************  B =  16183.06408  C =  16183.06408 [MHz]
  Nuclear repulsion =   40.134428912529359

  Charge       = 0
  Multiplicity = 6
  Electrons    = 23
  Nalpha       = 14
  Nbeta        = 9

  ==> Algorithm <==

  SCF Algorithm Type is DF.
  DIIS enabled.
  MOM disabled.
  Fractional occupation disabled.
  Guess Type is READ.
  Energy threshold   = 1.00e-08
  Density threshold  = 1.00e-08
  Integral threshold = 1.00e-12

  ==> Primary Basis <==

  Basis Set: CC-PVDZ
    Blend: CC-PVDZ
    Number of shells: 14
    Number of basis functions: 32
    Number of Cartesian functions: 34
    Spherical Harmonics?: true
    Max angular momentum: 2

  ==> DFT Potential <==

   => LibXC <=

    Version 6.2.2
    S. Lehtola, C. Steigemann, M. J.T. Oliveira, and M. A.L. Marques.,  SoftwareX 7, 1–5 (2018) (10.1016/j.softx.2017.11.002)

   => Composite Functional: B3LYP <= 

    B3LYP Hyb-GGA Exchange-Correlation Functional

    P. J. Stephens, F. J. Devlin, C. F. Chabalowski, and M. J. Frisch.,  J. Phys. Chem. 98, 11623 (1994) (10.1021/j100096a001)

    Deriv               =              1
    GGA                 =           TRUE
    Meta                =          FALSE

    Exchange Hybrid     =           TRUE
    MP2 Hybrid          =          FALSE

   => Exchange Functionals <=

    0.0800   Slater exchange
    0.7200         Becke 88

   => Exact (HF) Exchange <=

    0.2000               HF 

   => Correlation Functionals <=

    0.1900   Vosko, Wilk & Nusair (VWN5_RPA)
    0.8100   Lee, Yang & Parr

   => LibXC Density Thresholds  <==

    XC_HYB_GGA_XC_B3LYP:  1.00E-15 

   => Molecular Quadrature <=

    Radial Scheme          =       TREUTLER
    Pruning Scheme         =           NONE
    Nuclear Scheme         =       TREUTLER

    Blocking Scheme        =         OCTREE
    BS radius alpha        =              1
    Pruning alpha          =              1
    Radial Points          =             75
    Spherical Points       =            302
    Total Points           =          42913
    Total Blocks           =            390
    Max Points             =            256
    Max Functions          =             32
    Weights Tolerance      =       1.00E-15

   => Loading Basis Set <=

    Name: (CC-PVDZ AUX)
    Role: JKFIT
    Keyword: DF_BASIS_SCF
    atoms 1 entry F          line   271 file /Users/joseantoniorodriguesromero/anaconda3/share/psi4/basis/cc-pvdz-jkfit.gbs 
    atoms 2 entry SI         line   445 file /Users/joseantoniorodriguesromero/anaconda3/share/psi4/basis/cc-pvdz-jkfit.gbs 

   => Loading Basis Set <=

    Name: CC-PVDZ
    Role: ORBITAL
    Keyword: BASIS
    atoms 1 entry F          line   228 file /Users/joseantoniorodriguesromero/anaconda3/share/psi4/basis/cc-pvdz.gbs 
    atoms 2 entry SI         line   478 file /Users/joseantoniorodriguesromero/anaconda3/share/psi4/basis/cc-pvdz.gbs 

  Reading orbitals from file /tmp/sextet_FSi.default.69115.180.npy, no projection.

  ==> Integral Setup <==

  DFHelper Memory: AOs need 0.002 GiB; user supplied 0.328 GiB. 
  Using in-core AOs.

  ==> MemDFJK: Density-Fitted J/K Matrices <==

    J tasked:                   Yes
    K tasked:                   Yes
    wK tasked:                   No
    OpenMP threads:               1
    Memory [MiB]:               335
    Algorithm:                 Core
    Schwarz Cutoff:           1E-12
    Mask sparsity (%):       0.0000
    Fitting Condition:        1E-10

   => Auxiliary Basis Set <=

  Basis Set: (CC-PVDZ AUX)
    Blend: CC-PVDZ-JKFIT
    Number of shells: 60
    Number of basis functions: 182
    Number of Cartesian functions: 211
    Spherical Harmonics?: true
    Max angular momentum: 3

  Cached 100.0% of DFT collocation blocks in 0.038 [GiB].

  Minimum eigenvalue in the overlap matrix is 5.7567475986E-02.
  Reciprocal condition number of the overlap matrix is 2.1279553085E-02.
    Using symmetric orthogonalization.

  ==> Pre-Iterations <==

  SCF Guess: Orbitals guess was supplied from a previous computation.

   -------------------------------------------------------
    Irrep   Nso     Nmo     Nalpha   Nbeta   Ndocc  Nsocc
   -------------------------------------------------------
     A1        16      16       8       5       5       3
     A2         2       2       0       0       0       0
     B1         7       7       3       2       2       1
     B2         7       7       3       2       2       1
   -------------------------------------------------------
    Total      32      32      14       9       9       5
   -------------------------------------------------------

  ==> Iterations <==

                           Total Energy        Delta E     RMS |[F,P]|

   @DF-UKS iter   0:  -388.71843986821546   -3.88718e+02   2.51793e-02 
   @DF-UKS iter   1:  -388.74806826261965   -2.96284e-02   2.16017e-03 ADIIS/DIIS
   @DF-UKS iter   2:  -388.74881885447905   -7.50592e-04   1.31741e-03 ADIIS/DIIS/DAMP=1%
   @DF-UKS iter   3:  -388.74921264899507   -3.93795e-04   2.84638e-04 ADIIS/DIIS/DAMP=1%
   @DF-UKS iter   4:  -388.74929296720899   -8.03182e-05   8.58482e-05 DIIS/DAMP=1%
   @DF-UKS iter   5:  -388.74905410807554    2.38859e-04   1.45879e-05 DIIS/DAMP=1%
   @DF-UKS iter   6:  -388.74910482097636   -5.07129e-05   2.15837e-06 DIIS/DAMP=1%
   @DF-UKS iter   7:  -388.74910507904508   -2.58069e-07   2.57578e-07 DIIS/DAMP=1%
   @DF-UKS iter   8:  -388.74910488563279    1.93412e-07   2.24154e-08 DIIS/DAMP=1%
   @DF-UKS iter   9:  -388.74910508830283   -2.02670e-07   3.75638e-09 DIIS/DAMP=1%
   @DF-UKS iter  10:  -388.74910507799905    1.03038e-08   2.09002e-10 DIIS/DAMP=1%
   @DF-UKS iter  11:  -388.74910508096792   -2.96887e-09   1.68583e-11 DIIS/DAMP=1%
  Energy and wave function converged.


  ==> Post-Iterations <==

   Electrons on quadrature grid:
      Nalpha   =   13.9999920682 ; deviation = -7.932e-06
      Nbeta    =    8.9999932779 ; deviation = -6.722e-06
      Ntotal   =   22.9999853462 ; deviation = -1.465e-05 

   @Spin Contamination Metric:   1.531250115E-03
   @S^2 Expected:                8.750000000E+00
   @S^2 Observed:                8.751531250E+00
   @S   Expected:                2.500000000E+00
   @S   Observed:                2.500000000E+00

    Orbital Energies [Eh]
    ---------------------

    Alpha Occupied:                                                       

       1A1   -66.220816     2A1   -24.940203     3A1    -5.365625  
       4A1    -3.729590     1B2    -3.722874     1B1    -3.722874  
       5A1    -1.415881     6A1    -0.787549     2B1    -0.630956  
       2B2    -0.630956     7A1    -0.444589     3B1    -0.209618  
       3B2    -0.209618     8A1    -0.108038  

    Alpha Virtual:                                                        

       9A1     0.215574     4B1     0.268854     4B2     0.268854  
      10A1     0.291575     1A2     0.302847    11A1     0.302848  
       5B1     0.338589     5B2     0.338589    12A1     0.494714  
      13A1     1.037474     6B1     1.089497     6B2     1.089497  
      14A1     1.986443     7B2     3.336467     7B1     3.336467  
       2A2     3.360877    15A1     3.360962    16A1     3.499739  

    Beta Occupied:                                                        

       1A1   -66.205011     2A1   -24.901759     3A1    -5.344951  
       4A1    -3.708652     1B2    -3.700205     1B1    -3.700205  
       5A1    -1.311880     2B1    -0.583842     2B2    -0.583842  

    Beta Virtual:                                                         

       6A1    -0.497045     7A1    -0.210500     3B1    -0.029787  
       3B2    -0.029787     8A1     0.050769     9A1     0.286972  
       4B1     0.342443     4B2     0.342443    10A1     0.380812  
      11A1     0.442829     1A2     0.442843     5B1     0.460511  
       5B2     0.460511    12A1     0.612937     6B1     1.120439  
       6B2     1.120439    13A1     1.145836    14A1     2.047828  
       2A2     3.386797    15A1     3.386887     7B2     3.439098  
       7B1     3.439098    16A1     3.632185  

    Final Occupation by Irrep:
             A1    A2    B1    B2 
    DOCC [     5,    0,    2,    2 ]
    SOCC [     3,    0,    1,    1 ]
    NA   [     8,    0,    3,    3 ]
    NB   [     5,    0,    2,    2 ]

  @DF-UKS Final Energy:  -388.74910508096792

   => Energetics <=

    Nuclear Repulsion Energy =             40.1344289125293585
    One-Electron Energy =                -617.5743303405048437
    Two-Electron Energy =                 213.9262241085523328
    DFT Exchange-Correlation Energy =     -25.2354277615448375
    Empirical Dispersion Energy =           0.0000000000000000
    VV10 Nonlocal Energy =                  0.0000000000000000
    Total Energy =                       -388.7491050809679223

  UHF NO Occupations:
  HONO-2 :    3 B1 1.0000000
  HONO-1 :    7 A1 1.0000000
  HONO-0 :    8 A1 1.0000000
  LUNO+0 :    9 A1 0.0003859
  LUNO+1 :    4 B2 0.0001897
  LUNO+2 :    4 B1 0.0001897
  LUNO+3 :   10 A1 0.0000002


Computation Completed


Properties will be evaluated at   0.000000,   0.000000,   0.000000 [a0]

Properties computed using the SCF density matrix


 Multipole Moments:

 ------------------------------------------------------------------------------------
     Multipole            Electronic (a.u.)      Nuclear  (a.u.)        Total (a.u.)
 ------------------------------------------------------------------------------------

 L = 1.  Multiply by 2.5417464519 to convert [e a0] to [Debye]
 Dipole X            :          0.0000000            0.0000000            0.0000000
 Dipole Y            :          0.0000000            0.0000000            0.0000000
 Dipole Z            :          1.9374833           -0.9480305            0.9894528
 Magnitude           :                                                    0.9894528

 ------------------------------------------------------------------------------------

*** tstop() called on Joses-MacBook-Pro-2.local at Wed Jul 16 19:28:37 2025
Module time:
	user time   =       3.66 seconds =       0.06 minutes
	system time =       4.07 seconds =       0.07 minutes
	total time  =          1 seconds =       0.02 minutes
Total time:
	user time   =      20.55 seconds =       0.34 minutes
	system time =      19.55 seconds =       0.33 minutes
	total time  =          4 seconds =       0.07 minutes

*** tstart() called on Joses-MacBook-Pro-2.local
*** at Wed Jul 16 19:28:37 2025


         ------------------------------------------------------------
                                   SCF GRAD                          
                          Rob Parrish, Justin Turney,                
                       Andy Simmonett, and Alex Sokolov              
         ------------------------------------------------------------

  ==> Geometry <==

    Molecular point group: c2v
    Full point group: C_inf_v

    Geometry (in Angstrom), charge = 0, multiplicity = 6:

       Center              X                  Y                   Z               Mass       
    ------------   -----------------  -----------------  -----------------  -----------------
         F            0.000000000000     0.000000000000     0.989429274496    18.998403162730
         SI           0.000000000000     0.000000000000    -0.671895686418    27.976926534650

  Nuclear repulsion =   40.134428912529359

  ==> Basis Set <==

  Basis Set: CC-PVDZ
    Blend: CC-PVDZ
    Number of shells: 14
    Number of basis functions: 32
    Number of Cartesian functions: 34
    Spherical Harmonics?: true
    Max angular momentum: 2

  ==> DFJKGrad: Density-Fitted SCF Gradients <==

    Gradient:                    1
    J tasked:                  Yes
    K tasked:                  Yes
    wK tasked:                  No
    OpenMP threads:              1
    Integrals threads:           1
    Memory [MiB]:              375
    Schwarz Cutoff:          1E-12
    Fitting Condition:       1E-10

   => Auxiliary Basis Set <=

  Basis Set: (CC-PVDZ AUX)
    Blend: CC-PVDZ-JKFIT
    Number of shells: 60
    Number of basis functions: 182
    Number of Cartesian functions: 211
    Spherical Harmonics?: true
    Max angular momentum: 3

  ==> DFT Potential <==

   => LibXC <=

    Version 6.2.2
    S. Lehtola, C. Steigemann, M. J.T. Oliveira, and M. A.L. Marques.,  SoftwareX 7, 1–5 (2018) (10.1016/j.softx.2017.11.002)

   => Composite Functional: B3LYP <= 

    B3LYP Hyb-GGA Exchange-Correlation Functional

    P. J. Stephens, F. J. Devlin, C. F. Chabalowski, and M. J. Frisch.,  J. Phys. Chem. 98, 11623 (1994) (10.1021/j100096a001)

    Deriv               =              1
    GGA                 =           TRUE
    Meta                =          FALSE

    Exchange Hybrid     =           TRUE
    MP2 Hybrid          =          FALSE

   => Exchange Functionals <=

    0.0800   Slater exchange
    0.7200         Becke 88

   => Exact (HF) Exchange <=

    0.2000               HF 

   => Correlation Functionals <=

    0.1900   Vosko, Wilk & Nusair (VWN5_RPA)
    0.8100   Lee, Yang & Parr

   => LibXC Density Thresholds  <==

    XC_HYB_GGA_XC_B3LYP:  1.00E-15 

   => Molecular Quadrature <=

    Radial Scheme          =       TREUTLER
    Pruning Scheme         =           NONE
    Nuclear Scheme         =       TREUTLER

    Blocking Scheme        =         OCTREE
    BS radius alpha        =              1
    Pruning alpha          =              1
    Radial Points          =             75
    Spherical Points       =            302
    Total Points           =          42913
    Total Blocks           =            390
    Max Points             =            256
    Max Functions          =             32
    Weights Tolerance      =       1.00E-15


  -Total Gradient:
     Atom            X                  Y                   Z
    ------   -----------------  -----------------  -----------------
       1        0.000000000000     0.000000000000    -0.248498357193
       2        0.000000000000     0.000000000000     0.248384228577


*** tstop() called on Joses-MacBook-Pro-2.local at Wed Jul 16 19:28:37 2025
Module time:
	user time   =       0.71 seconds =       0.01 minutes
	system time =       1.76 seconds =       0.03 minutes
	total time  =          0 seconds =       0.00 minutes
Total time:
	user time   =      21.27 seconds =       0.35 minutes
	system time =      21.31 seconds =       0.36 minutes
	total time  =          4 seconds =       0.07 minutes

    			-----------------------------------------

    			 OPTKING 3.0: for geometry optimizations 

    			     By R.A. King, Bethel University     

    			        with contributions from          

    			    A.V. Copan, J. Cayton, A. Heide      

    			-----------------------------------------

    
	                            ===> Fragment 1 <== 

	 Z (Atomic Numbers)          Masses                          Geom                  
	       9.000000            18.998403          0.00000000  0.00000000  1.86975035   
	      14.000000            27.976927          0.00000000  0.00000000 -1.26969883   

	 - Coordinate -           - BOHR/RAD -       - ANG/DEG -
	 R(1,2)           =         3.139449           1.661325


	        --- Internal Coordinate Step in ANG or DEG, aJ/ANG or AJ/DEG ---
	-------------------------------------------------------------------------------
	           Coordinate      Previous         Force          Change          New 
	           ----------      --------        ------          ------        ------
	               R(1,2)       1.66132        2.04684        0.24425       1.90558
	-------------------------------------------------------------------------------

	                                 ==> Convergence Check <==                                  
    
	Measures of convergence in internal coordinates in au.
    
	Criteria marked as inactive (o), active & met (*), and active & unmet ( ).

	----------------------------------------------------------------------------------------------
	   Step    Total Energy     Delta E     Max Force     RMS Force      Max Disp      RMS Disp   
	----------------------------------------------------------------------------------------------
	  Convergence Criteria     1.00e-06 *    3.00e-04 *             o    1.20e-03 *             o
	----------------------------------------------------------------------------------------------
	     4    -388.74910508   -1.03e-01      2.48e-01      2.48e-01 o    4.62e-01      4.62e-01 o  ~
	----------------------------------------------------------------------------------------------

Next Geometry in Ang 
	Fragment 1 (Ang)

	    F   0.0000000000   0.0000000000   1.1115566680
	   Si   0.0000000000   0.0000000000  -0.7940230799


    Structure for next step:
    Molecular point group: c2v
    Full point group: C_inf_v

    Geometry (in Angstrom), charge = 0, multiplicity = 6:

    F            0.000000000000     0.000000000000     1.134899211063
    SI           0.000000000000     0.000000000000    -0.770680536840


Scratch directory: /tmp/
gradient() will perform analytic gradient computation.
   => Libint2 <=

    Primary   basis highest AM E, G, H:  6, 6, 3
    Auxiliary basis highest AM E, G, H:  7, 7, 4
    Onebody   basis highest AM E, G, H:  -, -, -
    Solid Harmonics ordering:            Gaussian

*** tstart() called on Joses-MacBook-Pro-2.local
*** at Wed Jul 16 19:28:37 2025

   => Loading Basis Set <=

    Name: CC-PVDZ
    Role: ORBITAL
    Keyword: BASIS
    atoms 1 entry F          line   228 file /Users/joseantoniorodriguesromero/anaconda3/share/psi4/basis/cc-pvdz.gbs 
    atoms 2 entry SI         line   478 file /Users/joseantoniorodriguesromero/anaconda3/share/psi4/basis/cc-pvdz.gbs 


         ---------------------------------------------------------
                                   SCF
               by Justin Turney, Rob Parrish, Andy Simmonett
                          and Daniel G. A. Smith
                              UKS Reference
                        1 Threads,    500 MiB Core
         ---------------------------------------------------------

  ==> Geometry <==

    Molecular point group: c2v
    Full point group: C_inf_v

    Geometry (in Angstrom), charge = 0, multiplicity = 6:

       Center              X                  Y                   Z               Mass       
    ------------   -----------------  -----------------  -----------------  -----------------
         F            0.000000000000     0.000000000000     1.134899211063    18.998403162730
         SI           0.000000000000     0.000000000000    -0.770680536840    27.976926534650

  Running in c2v symmetry.

  Rotational constants: A = ************  B =      0.41029  C =      0.41029 [cm^-1]
  Rotational constants: A = ************  B =  12300.29924  C =  12300.29924 [MHz]
  Nuclear repulsion =   34.990048890785381

  Charge       = 0
  Multiplicity = 6
  Electrons    = 23
  Nalpha       = 14
  Nbeta        = 9

  ==> Algorithm <==

  SCF Algorithm Type is DF.
  DIIS enabled.
  MOM disabled.
  Fractional occupation disabled.
  Guess Type is READ.
  Energy threshold   = 1.00e-08
  Density threshold  = 1.00e-08
  Integral threshold = 1.00e-12

  ==> Primary Basis <==

  Basis Set: CC-PVDZ
    Blend: CC-PVDZ
    Number of shells: 14
    Number of basis functions: 32
    Number of Cartesian functions: 34
    Spherical Harmonics?: true
    Max angular momentum: 2

  ==> DFT Potential <==

   => LibXC <=

    Version 6.2.2
    S. Lehtola, C. Steigemann, M. J.T. Oliveira, and M. A.L. Marques.,  SoftwareX 7, 1–5 (2018) (10.1016/j.softx.2017.11.002)

   => Composite Functional: B3LYP <= 

    B3LYP Hyb-GGA Exchange-Correlation Functional

    P. J. Stephens, F. J. Devlin, C. F. Chabalowski, and M. J. Frisch.,  J. Phys. Chem. 98, 11623 (1994) (10.1021/j100096a001)

    Deriv               =              1
    GGA                 =           TRUE
    Meta                =          FALSE

    Exchange Hybrid     =           TRUE
[...]
	-------------------------------------------------------------------------------

	                                 ==> Convergence Check <==                                  
    
	Measures of convergence in internal coordinates in au.
    
	Criteria marked as inactive (o), active & met (*), and active & unmet ( ).

	----------------------------------------------------------------------------------------------
	   Step    Total Energy     Delta E     Max Force     RMS Force      Max Disp      RMS Disp   
	----------------------------------------------------------------------------------------------
	  Convergence Criteria     1.00e-06 *    3.00e-04 *             o    1.20e-03 *             o
	----------------------------------------------------------------------------------------------
	    21    -388.94928958   -3.05e-06      1.35e-05 *    1.35e-05 o    6.18e-01      6.18e-01 o  ~
	----------------------------------------------------------------------------------------------

Next Geometry in Ang 
	Fragment 1 (Ang)

	    F   0.0000000000   0.0000000000   2.9879335943
	   Si   0.0000000000   0.0000000000  -2.0814712386


    Structure for next step:
    Molecular point group: c2v
    Full point group: C_inf_v

    Geometry (in Angstrom), charge = 0, multiplicity = 6:

    F            0.000000000000     0.000000000000     3.019167028709
    SI           0.000000000000     0.000000000000    -2.050237804213


Scratch directory: /tmp/
gradient() will perform analytic gradient computation.
   => Libint2 <=

    Primary   basis highest AM E, G, H:  6, 6, 3
    Auxiliary basis highest AM E, G, H:  7, 7, 4
    Onebody   basis highest AM E, G, H:  -, -, -
    Solid Harmonics ordering:            Gaussian

*** tstart() called on Joses-MacBook-Pro-2.local
*** at Wed Jul 16 19:28:52 2025

   => Loading Basis Set <=

    Name: CC-PVDZ
    Role: ORBITAL
    Keyword: BASIS
    atoms 1 entry F          line   228 file /Users/joseantoniorodriguesromero/anaconda3/share/psi4/basis/cc-pvdz.gbs 
    atoms 2 entry SI         line   478 file /Users/joseantoniorodriguesromero/anaconda3/share/psi4/basis/cc-pvdz.gbs 


         ---------------------------------------------------------
                                   SCF
               by Justin Turney, Rob Parrish, Andy Simmonett
                          and Daniel G. A. Smith
                              UKS Reference
                        1 Threads,    500 MiB Core
         ---------------------------------------------------------

  ==> Geometry <==

    Molecular point group: c2v
    Full point group: C_inf_v

    Geometry (in Angstrom), charge = 0, multiplicity = 6:

       Center              X                  Y                   Z               Mass       
    ------------   -----------------  -----------------  -----------------  -----------------
         F            0.000000000000     0.000000000000     3.019167028709    18.998403162730
         SI           0.000000000000     0.000000000000    -2.050237804213    27.976926534650

  Running in c2v symmetry.

  Rotational constants: A = ************  B =      0.05797  C =      0.05797 [cm^-1]
  Rotational constants: A = ************  B =   1738.02486  C =   1738.02486 [MHz]
  Nuclear repulsion =   13.152693608409919

  Charge       = 0
  Multiplicity = 6
  Electrons    = 23
  Nalpha       = 14
  Nbeta        = 9

  ==> Algorithm <==

  SCF Algorithm Type is DF.
  DIIS enabled.
  MOM disabled.
  Fractional occupation disabled.
  Guess Type is READ.
  Energy threshold   = 1.00e-08
  Density threshold  = 1.00e-08
  Integral threshold = 1.00e-12

  ==> Primary Basis <==

  Basis Set: CC-PVDZ
    Blend: CC-PVDZ
    Number of shells: 14
    Number of basis functions: 32
    Number of Cartesian functions: 34
    Spherical Harmonics?: true
    Max angular momentum: 2

  ==> DFT Potential <==

   => LibXC <=

    Version 6.2.2
    S. Lehtola, C. Steigemann, M. J.T. Oliveira, and M. A.L. Marques.,  SoftwareX 7, 1–5 (2018) (10.1016/j.softx.2017.11.002)

   => Composite Functional: B3LYP <= 

    B3LYP Hyb-GGA Exchange-Correlation Functional

    P. J. Stephens, F. J. Devlin, C. F. Chabalowski, and M. J. Frisch.,  J. Phys. Chem. 98, 11623 (1994) (10.1021/j100096a001)

    Deriv               =              1
    GGA                 =           TRUE
    Meta                =          FALSE

    Exchange Hybrid     =           TRUE
    MP2 Hybrid          =          FALSE

   => Exchange Functionals <=

    0.0800   Slater exchange
    0.7200         Becke 88

   => Exact (HF) Exchange <=

    0.2000               HF 

   => Correlation Functionals <=

    0.1900   Vosko, Wilk & Nusair (VWN5_RPA)
    0.8100   Lee, Yang & Parr

   => LibXC Density Thresholds  <==

    XC_HYB_GGA_XC_B3LYP:  1.00E-15 

   => Molecular Quadrature <=

    Radial Scheme          =       TREUTLER
    Pruning Scheme         =           NONE
    Nuclear Scheme         =       TREUTLER

    Blocking Scheme        =         OCTREE
    BS radius alpha        =              1
    Pruning alpha          =              1
    Radial Points          =             75
    Spherical Points       =            302
    Total Points           =          43106
    Total Blocks           =            442
    Max Points             =            256
    Max Functions          =             32
    Weights Tolerance      =       1.00E-15

   => Loading Basis Set <=

    Name: (CC-PVDZ AUX)
    Role: JKFIT
    Keyword: DF_BASIS_SCF
    atoms 1 entry F          line   271 file /Users/joseantoniorodriguesromero/anaconda3/share/psi4/basis/cc-pvdz-jkfit.gbs 
    atoms 2 entry SI         line   445 file /Users/joseantoniorodriguesromero/anaconda3/share/psi4/basis/cc-pvdz-jkfit.gbs 

   => Loading Basis Set <=

    Name: CC-PVDZ
    Role: ORBITAL
    Keyword: BASIS
    atoms 1 entry F          line   228 file /Users/joseantoniorodriguesromero/anaconda3/share/psi4/basis/cc-pvdz.gbs 
    atoms 2 entry SI         line   478 file /Users/joseantoniorodriguesromero/anaconda3/share/psi4/basis/cc-pvdz.gbs 

  Reading orbitals from file /tmp/sextet_FSi.default.69115.180.npy, no projection.

  ==> Integral Setup <==

  DFHelper Memory: AOs need 0.002 GiB; user supplied 0.337 GiB. 
  Using in-core AOs.

  ==> MemDFJK: Density-Fitted J/K Matrices <==

    J tasked:                   Yes
    K tasked:                   Yes
    wK tasked:                   No
    OpenMP threads:               1
    Memory [MiB]:               344
    Algorithm:                 Core
    Schwarz Cutoff:           1E-12
    Mask sparsity (%):       1.3672
    Fitting Condition:        1E-10

   => Auxiliary Basis Set <=

  Basis Set: (CC-PVDZ AUX)
    Blend: CC-PVDZ-JKFIT
    Number of shells: 60
    Number of basis functions: 182
    Number of Cartesian functions: 211
    Spherical Harmonics?: true
    Max angular momentum: 3

  Cached 100.0% of DFT collocation blocks in 0.030 [GiB].

  Minimum eigenvalue in the overlap matrix is 1.1972392179E-01.
  Reciprocal condition number of the overlap matrix is 7.0161305901E-02.
    Using symmetric orthogonalization.

  ==> Pre-Iterations <==

  SCF Guess: Orbitals guess was supplied from a previous computation.

   -------------------------------------------------------
    Irrep   Nso     Nmo     Nalpha   Nbeta   Ndocc  Nsocc
   -------------------------------------------------------
     A1        16      16       8       5       5       3
     A2         2       2       0       0       0       0
     B1         7       7       3       2       2       1
     B2         7       7       3       2       2       1
   -------------------------------------------------------
    Total      32      32      14       9       9       5
   -------------------------------------------------------

  ==> Iterations <==

                           Total Energy        Delta E     RMS |[F,P]|

   @DF-UKS iter   0:  -388.94921158766687   -3.88949e+02   2.19244e-04 
   @DF-UKS iter   1:  -388.94929397016972   -8.23825e-05   5.77702e-06 DIIS
   @DF-UKS iter   2:  -388.94929397809028   -7.92056e-09   3.53126e-06 DIIS/DAMP=1%
   @DF-UKS iter   3:  -388.94929252938789    1.44870e-06   6.80549e-07 DIIS/DAMP=1%
   @DF-UKS iter   4:  -388.94929433346135   -1.80407e-06   7.16717e-08 DIIS/DAMP=1%
   @DF-UKS iter   5:  -388.94929394133055    3.92131e-07   8.13103e-09 DIIS/DAMP=1%
   @DF-UKS iter   6:  -388.94929398047793   -3.91474e-08   1.11721e-09 DIIS/DAMP=1%
   @DF-UKS iter   7:  -388.94929397968349    7.94444e-10   1.51972e-10 DIIS/DAMP=1%
  Energy and wave function converged.


  ==> Post-Iterations <==

   Electrons on quadrature grid:
      Nalpha   =   14.0000007043 ; deviation = 7.043e-07
      Nbeta    =    9.0000102296 ; deviation = 1.023e-05
      Ntotal   =   23.0000109340 ; deviation = 1.093e-05 

   @Spin Contamination Metric:   8.323287281E-04
   @S^2 Expected:                8.750000000E+00
   @S^2 Observed:                8.750832329E+00
   @S   Expected:                2.500000000E+00
   @S   Observed:                2.500000000E+00

    Orbital Energies [Eh]
    ---------------------

    Alpha Occupied:                                                       

       1A1   -66.209955     2A1   -24.780748     3A1    -5.354090  
       4A1    -3.713993     1B2    -3.713985     1B1    -3.713985  
       5A1    -1.210796     6A1    -0.538132     7A1    -0.507526  
       2B1    -0.448834     2B2    -0.448834     8A1    -0.225385  
       3B2    -0.225193     3B1    -0.225193  

    Alpha Virtual:                                                        

       9A1     0.217494    10A1     0.277321     4B2     0.277730  
       4B1     0.277730    11A1     0.303088     5B2     0.303159  
       5B1     0.303159     1A2     0.303267    12A1     0.303267  
      13A1     1.036849     6B1     1.091617     6B2     1.091617  
      14A1     1.423956    15A1     3.439616     7B1     3.461575  
       7B2     3.461575     2A2     3.531009    16A1     3.531052  

    Beta Occupied:                                                        

       1A1   -66.193872     2A1   -24.750099     3A1    -5.333068  
       4A1    -3.691437     1B2    -3.691422     1B1    -3.691422  
       5A1    -1.119947     2B1    -0.417481     2B2    -0.417481  

    Beta Virtual:                                                         

       6A1    -0.278655     7A1    -0.244066     8A1    -0.038142  
       3B2    -0.038001     3B1    -0.038001     9A1     0.293184  
      10A1     0.354094     4B2     0.354260     4B1     0.354260  
      11A1     0.446670     5B1     0.446732     5B2     0.446732  
       1A2     0.446837    12A1     0.446838     6B1     1.109602  
       6B2     1.109602    13A1     1.148236    14A1     1.471216  
       2A2     3.546159    15A1     3.546199     7B1     3.556650  
       7B2     3.556650    16A1     3.576115  

    Final Occupation by Irrep:
             A1    A2    B1    B2 
    DOCC [     5,    0,    2,    2 ]
    SOCC [     3,    0,    1,    1 ]
    NA   [     8,    0,    3,    3 ]
    NB   [     5,    0,    2,    2 ]

  @DF-UKS Final Energy:  -388.94929397968349

   => Energetics <=

    Nuclear Repulsion Energy =             13.1526936084099191
    One-Electron Energy =                -565.6006278675313297
    Two-Electron Energy =                 188.6832785653900544
    DFT Exchange-Correlation Energy =     -25.1846382859521363
    Empirical Dispersion Energy =           0.0000000000000000
    VV10 Nonlocal Energy =                  0.0000000000000000
    Total Energy =                       -388.9492939796834889

  UHF NO Occupations:
  HONO-2 :    3 B1 1.0000000
  HONO-1 :    7 A1 1.0000000
  HONO-0 :    8 A1 1.0000000
  LUNO+0 :    9 A1 0.0003066
  LUNO+1 :    4 B2 0.0000546
  LUNO+2 :    4 B1 0.0000546
  LUNO+3 :   10 A1 0.0000001


Computation Completed


Properties will be evaluated at   0.000000,   0.000000,   0.000000 [a0]

Properties computed using the SCF density matrix


 Multipole Moments:

 ------------------------------------------------------------------------------------
     Multipole            Electronic (a.u.)      Nuclear  (a.u.)        Total (a.u.)
 ------------------------------------------------------------------------------------

 L = 1.  Multiply by 2.5417464519 to convert [e a0] to [Debye]
 Dipole X            :          0.0000000            0.0000000            0.0000000
 Dipole Y            :          0.0000000            0.0000000            0.0000000
 Dipole Z            :          2.8896127           -2.8928419           -0.0032292
 Magnitude           :                                                    0.0032292

 ------------------------------------------------------------------------------------

*** tstop() called on Joses-MacBook-Pro-2.local at Wed Jul 16 19:28:52 2025
Module time:
	user time   =       3.53 seconds =       0.06 minutes
	system time =       2.37 seconds =       0.04 minutes
	total time  =          0 seconds =       0.00 minutes
Total time:
	user time   =     102.95 seconds =       1.72 minutes
	system time =      99.29 seconds =       1.65 minutes
	total time  =         19 seconds =       0.32 minutes

*** tstart() called on Joses-MacBook-Pro-2.local
*** at Wed Jul 16 19:28:52 2025


         ------------------------------------------------------------
                                   SCF GRAD                          
                          Rob Parrish, Justin Turney,                
                       Andy Simmonett, and Alex Sokolov              
         ------------------------------------------------------------

  ==> Geometry <==

    Molecular point group: c2v
    Full point group: C_inf_v

    Geometry (in Angstrom), charge = 0, multiplicity = 6:

       Center              X                  Y                   Z               Mass       
    ------------   -----------------  -----------------  -----------------  -----------------
         F            0.000000000000     0.000000000000     3.019167028709    18.998403162730
         SI           0.000000000000     0.000000000000    -2.050237804213    27.976926534650

  Nuclear repulsion =   13.152693608409919

  ==> Basis Set <==

  Basis Set: CC-PVDZ
    Blend: CC-PVDZ
    Number of shells: 14
    Number of basis functions: 32
    Number of Cartesian functions: 34
    Spherical Harmonics?: true
    Max angular momentum: 2

  ==> DFJKGrad: Density-Fitted SCF Gradients <==

    Gradient:                    1
    J tasked:                  Yes
    K tasked:                  Yes
    wK tasked:                  No
    OpenMP threads:              1
    Integrals threads:           1
    Memory [MiB]:              375
    Schwarz Cutoff:          1E-12
    Fitting Condition:       1E-10

   => Auxiliary Basis Set <=

  Basis Set: (CC-PVDZ AUX)
    Blend: CC-PVDZ-JKFIT
    Number of shells: 60
    Number of basis functions: 182
    Number of Cartesian functions: 211
    Spherical Harmonics?: true
    Max angular momentum: 3

  ==> DFT Potential <==

   => LibXC <=

    Version 6.2.2
    S. Lehtola, C. Steigemann, M. J.T. Oliveira, and M. A.L. Marques.,  SoftwareX 7, 1–5 (2018) (10.1016/j.softx.2017.11.002)

   => Composite Functional: B3LYP <= 

    B3LYP Hyb-GGA Exchange-Correlation Functional

    P. J. Stephens, F. J. Devlin, C. F. Chabalowski, and M. J. Frisch.,  J. Phys. Chem. 98, 11623 (1994) (10.1021/j100096a001)

    Deriv               =              1
    GGA                 =           TRUE
    Meta                =          FALSE

    Exchange Hybrid     =           TRUE
    MP2 Hybrid          =          FALSE

   => Exchange Functionals <=

    0.0800   Slater exchange
    0.7200         Becke 88

   => Exact (HF) Exchange <=

    0.2000               HF 

   => Correlation Functionals <=

    0.1900   Vosko, Wilk & Nusair (VWN5_RPA)
    0.8100   Lee, Yang & Parr

   => LibXC Density Thresholds  <==

    XC_HYB_GGA_XC_B3LYP:  1.00E-15 

   => Molecular Quadrature <=

    Radial Scheme          =       TREUTLER
    Pruning Scheme         =           NONE
    Nuclear Scheme         =       TREUTLER

    Blocking Scheme        =         OCTREE
    BS radius alpha        =              1
    Pruning alpha          =              1
    Radial Points          =             75
    Spherical Points       =            302
    Total Points           =          43106
    Total Blocks           =            442
    Max Points             =            256
    Max Functions          =             32
    Weights Tolerance      =       1.00E-15


  -Total Gradient:
     Atom            X                  Y                   Z
    ------   -----------------  -----------------  -----------------
       1        0.000000000000     0.000000000000    -0.000019471231
       2       -0.000000000000     0.000000000000     0.000015300396


*** tstop() called on Joses-MacBook-Pro-2.local at Wed Jul 16 19:28:53 2025
Module time:
	user time   =       0.91 seconds =       0.02 minutes
	system time =       1.36 seconds =       0.02 minutes
	total time  =          1 seconds =       0.02 minutes
Total time:
	user time   =     103.87 seconds =       1.73 minutes
	system time =     100.65 seconds =       1.68 minutes
	total time  =         20 seconds =       0.33 minutes

    			-----------------------------------------

    			 OPTKING 3.0: for geometry optimizations 

    			     By R.A. King, Bethel University     

    			        with contributions from          

    			    A.V. Copan, J. Cayton, A. Heide      

    			-----------------------------------------

    
	                            ===> Fragment 1 <== 

	 Z (Atomic Numbers)          Masses                          Geom                  
	       9.000000            18.998403          0.00000000  0.00000000  5.70539881   
	      14.000000            27.976927          0.00000000  0.00000000 -3.87438794   

	 - Coordinate -           - BOHR/RAD -       - ANG/DEG -
	 R(1,2)           =         9.579787           5.069405


	        --- Internal Coordinate Step in ANG or DEG, aJ/ANG or AJ/DEG ---
	-------------------------------------------------------------------------------
	           Coordinate      Previous         Force          Change          New 
	           ----------      --------        ------          ------        ------
	               R(1,2)       5.06940        0.00014        0.00006       5.06946
	-------------------------------------------------------------------------------

	                                 ==> Convergence Check <==                                  
    
	Measures of convergence in internal coordinates in au.
    
	Criteria marked as inactive (o), active & met (*), and active & unmet ( ).

	----------------------------------------------------------------------------------------------
	   Step    Total Energy     Delta E     Max Force     RMS Force      Max Disp      RMS Disp   
	----------------------------------------------------------------------------------------------
	  Convergence Criteria     1.00e-06 *    3.00e-04 *             o    1.20e-03 *             o
	----------------------------------------------------------------------------------------------
	    22    -388.94929398   -4.40e-06      1.74e-05 *    1.74e-05 o    1.12e-04 *    1.12e-04 o  ~
	----------------------------------------------------------------------------------------------

Next Geometry in Ang 
	Fragment 1 (Ang)

	    F   0.0000000000   0.0000000000   3.0191965647
	   Si   0.0000000000   0.0000000000  -2.0502673402


    Final optimized geometry and variables:
    Molecular point group: c2v
    Full point group: C_inf_v

    Geometry (in Angstrom), charge = 0, multiplicity = 6:

    F            0.000000000000     0.000000000000     3.019167028709
    SI           0.000000000000     0.000000000000    -2.050237804213


    Psi4 stopped on: Wednesday, 16 July 2025 07:28PM
    Psi4 wall time for execution: 0:00:20.43

*** Psi4 exiting successfully. Buy a developer a beer!
