
    -----------------------------------------------------------------------
          Psi4: An Open-Source Ab Initio Electronic Structure Package
                               Psi4 1.9.1 release

                         Git: Rev {} zzzzzzz 


    D. G. A. Smith, L. A. Burns, A. C. Simmonett, R. M. Parrish,
    M. C. Schieber, R. Galvelis, P. Kraus, H. Kruse, R. Di Remigio,
    A. Alenaizan, A. M. James, S. Lehtola, J. P. Misiewicz, M. Scheurer,
    R. A. Shaw, J. B. Schriber, Y. Xie, Z. L. Glick, D. A. Sirianni,
    J. S. O'Brien, J. M. Waldrop, A. Kumar, E. G. Hohenstein,
    B. P. Pritchard, B. R. Brooks, H. F. Schaefer III, A. Yu. Sokolov,
    K. Patkowski, A. E. DePrince III, U. Bozkaya, R. A. King,
    F. A. Evangelista, J. M. Turney, T. D. Crawford, C. D. Sherrill,
    J. Chem. Phys. 152(18) 184108 (2020). https://doi.org/10.1063/5.0006002

                            Additional Code Authors
    E. T. Seidl, C. L. Janssen, E. F. Valeev, M. L. Leininger,
    J. F. Gonthier, R. M. Richard, H. R. McAlexander, M. Saitow, X. Wang,
    P. Verma, M. H. Lechner, A. Jiang, S. Behnle, A. G. Heide,
    M. F. Herbst, and D. L. Poole

             Previous Authors, Complete List of Code Contributors,
                       and Citations for Specific Modules
    https://github.com/psi4/psi4/blob/master/codemeta.json
    https://github.com/psi4/psi4/graphs/contributors
    http://psicode.org/psi4manual/master/introduction.html#citing-psifour

    -----------------------------------------------------------------------


    Psi4 started on: Wednesday, 16 July 2025 07:37PM

    Process ID: 69195
    Host:       Joses-MacBook-Pro-2.local
    PSIDATADIR: /Users/joseantoniorodriguesromero/anaconda3/share/psi4
    Memory:     500.0 MiB
    Threads:    1
    
  ==> Input File <==

--------------------------------------------------------------------------
molecule { 
0 6
Ne   0.00000        0.60000        0.00000
Cl   0.00000       -0.60000        0.00000
}

set { 
basis              cc-pvdz
reference          uks
maxiter            500
geom_maxiter       500
DAMPING_PERCENTAGE 1
guess              SAP
}

optimize('b3lyp')
--------------------------------------------------------------------------

Scratch directory: /tmp/
gradient() will perform analytic gradient computation.
   => Libint2 <=

    Primary   basis highest AM E, G, H:  6, 6, 3
    Auxiliary basis highest AM E, G, H:  7, 7, 4
    Onebody   basis highest AM E, G, H:  -, -, -
    Solid Harmonics ordering:            Gaussian

*** tstart() called on Joses-MacBook-Pro-2.local
*** at Wed Jul 16 19:37:51 2025

   => Loading Basis Set <=

    Name: CC-PVDZ
    Role: ORBITAL
    Keyword: BASIS
    atoms 1 entry NE         line   258 file /Users/joseantoniorodriguesromero/anaconda3/share/psi4/basis/cc-pvdz.gbs 
    atoms 2 entry CL         line   658 file /Users/joseantoniorodriguesromero/anaconda3/share/psi4/basis/cc-pvdz.gbs 


         ---------------------------------------------------------
                                   SCF
               by Justin Turney, Rob Parrish, Andy Simmonett
                          and Daniel G. A. Smith
                              UKS Reference
                        1 Threads,    500 MiB Core
         ---------------------------------------------------------

  ==> Geometry <==

    Molecular point group: c2v
    Full point group: C_inf_v

    Geometry (in Angstrom), charge = 0, multiplicity = 6:

       Center              X                  Y                   Z               Mass       
    ------------   -----------------  -----------------  -----------------  -----------------
         NE           0.000000000000     0.000000000000     0.763494107147    19.992440176200
         CL           0.000000000000     0.000000000000    -0.436505892853    34.968852682000

  Running in c2v symmetry.

  Rotational constants: A = ************  B =      0.92033  C =      0.92033 [cm^-1]
  Rotational constants: A = ************  B =  27590.81052  C =  27590.81052 [MHz]
  Nuclear repulsion =   74.966771511583346

  Charge       = 0
  Multiplicity = 6
  Electrons    = 27
  Nalpha       = 16
  Nbeta        = 11

  ==> Algorithm <==

  SCF Algorithm Type is DF.
  DIIS enabled.
  MOM disabled.
  Fractional occupation disabled.
  Guess Type is SAP.
  Energy threshold   = 1.00e-08
  Density threshold  = 1.00e-08
  Integral threshold = 1.00e-12

  ==> Primary Basis <==

  Basis Set: CC-PVDZ
    Blend: CC-PVDZ
    Number of shells: 14
    Number of basis functions: 32
    Number of Cartesian functions: 34
    Spherical Harmonics?: true
    Max angular momentum: 2

  ==> DFT Potential <==

   => LibXC <=

    Version 6.2.2
    S. Lehtola, C. Steigemann, M. J.T. Oliveira, and M. A.L. Marques.,  SoftwareX 7, 1–5 (2018) (10.1016/j.softx.2017.11.002)

   => Composite Functional: B3LYP <= 

    B3LYP Hyb-GGA Exchange-Correlation Functional

    P. J. Stephens, F. J. Devlin, C. F. Chabalowski, and M. J. Frisch.,  J. Phys. Chem. 98, 11623 (1994) (10.1021/j100096a001)

    Deriv               =              1
    GGA                 =           TRUE
    Meta                =          FALSE

    Exchange Hybrid     =           TRUE
    MP2 Hybrid          =          FALSE

   => Exchange Functionals <=

    0.0800   Slater exchange
    0.7200         Becke 88

   => Exact (HF) Exchange <=

    0.2000               HF 

   => Correlation Functionals <=

    0.1900   Vosko, Wilk & Nusair (VWN5_RPA)
    0.8100   Lee, Yang & Parr

   => LibXC Density Thresholds  <==

    XC_HYB_GGA_XC_B3LYP:  1.00E-15 

   => Molecular Quadrature <=

    Radial Scheme          =       TREUTLER
    Pruning Scheme         =           NONE
    Nuclear Scheme         =       TREUTLER

    Blocking Scheme        =         OCTREE
    BS radius alpha        =              1
    Pruning alpha          =              1
    Radial Points          =             75
    Spherical Points       =            302
    Total Points           =          41726
    Total Blocks           =            368
    Max Points             =            256
    Max Functions          =             32
    Weights Tolerance      =       1.00E-15

   => Loading Basis Set <=

    Name: (CC-PVDZ AUX)
    Role: JKFIT
    Keyword: DF_BASIS_SCF
    atoms 1 entry NE         line   321 file /Users/joseantoniorodriguesromero/anaconda3/share/psi4/basis/cc-pvdz-jkfit.gbs 
    atoms 2 entry CL         line   667 file /Users/joseantoniorodriguesromero/anaconda3/share/psi4/basis/cc-pvdz-jkfit.gbs 

  ==> Integral Setup <==

  DFHelper Memory: AOs need 0.002 GiB; user supplied 0.329 GiB. 
  Using in-core AOs.

  ==> MemDFJK: Density-Fitted J/K Matrices <==

    J tasked:                   Yes
    K tasked:                   Yes
    wK tasked:                   No
    OpenMP threads:               1
    Memory [MiB]:               336
    Algorithm:                 Core
    Schwarz Cutoff:           1E-12
    Mask sparsity (%):       0.0000
    Fitting Condition:        1E-10

   => Auxiliary Basis Set <=

  Basis Set: (CC-PVDZ AUX)
    Blend: CC-PVDZ-JKFIT
    Number of shells: 60
    Number of basis functions: 182
    Number of Cartesian functions: 211
    Spherical Harmonics?: true
    Max angular momentum: 3

  Cached 100.0% of DFT collocation blocks in 0.037 [GiB].

  Minimum eigenvalue in the overlap matrix is 3.7483671914E-02.
  Reciprocal condition number of the overlap matrix is 1.3148206936E-02.
    Using symmetric orthogonalization.

  ==> Pre-Iterations <==

  SCF Guess: Superposition of Atomic Potentials (doi:10.1021/acs.jctc.8b01089).

  ==> SAP guess <==

   => Molecular Quadrature <=

    Radial Scheme          =       TREUTLER
    Pruning Scheme         =           NONE
    Nuclear Scheme         =       TREUTLER

    Blocking Scheme        =         OCTREE
    BS radius alpha        =              1
    Pruning alpha          =              1
    Radial Points          =             75
    Spherical Points       =            302
    Total Points           =          41726
    Total Blocks           =            368
    Max Points             =            256
    Max Functions          =             32
    Weights Tolerance      =       1.00E-15

   -------------------------------------------------------
    Irrep   Nso     Nmo     Nalpha   Nbeta   Ndocc  Nsocc
   -------------------------------------------------------
     A1        16      16       8       7       7       1
     A2         2       2       0       0       0       0
     B1         7       7       4       2       2       2
     B2         7       7       4       2       2       2
   -------------------------------------------------------
    Total      32      32      16      11      11       5
   -------------------------------------------------------

  ==> Iterations <==

                           Total Energy        Delta E     RMS |[F,P]|

   @DF-UKS iter   1:  -586.94769757550307   -5.86948e+02   1.79278e-02 ADIIS/DIIS
   @DF-UKS iter   2:  -586.97149612543353   -2.37985e-02   1.17509e-02 ADIIS/DIIS/DAMP=1%
   @DF-UKS iter   3:  -586.98583599333358   -1.43399e-02   3.75948e-03 ADIIS/DIIS/DAMP=1%
   @DF-UKS iter   4:  -586.98159660859073    4.23938e-03   7.39336e-04 ADIIS/DIIS/DAMP=1%
   @DF-UKS iter   5:  -586.98390464001682   -2.30803e-03   3.19486e-05 DIIS/DAMP=1%
   @DF-UKS iter   6:  -586.98359272769062    3.11912e-04   8.38225e-06 DIIS/DAMP=1%
   @DF-UKS iter   7:  -586.98359743098592   -4.70330e-06   7.42238e-07 DIIS/DAMP=1%
   @DF-UKS iter   8:  -586.98359460725749    2.82373e-06   1.56044e-07 DIIS/DAMP=1%
   @DF-UKS iter   9:  -586.98359460912695   -1.86947e-09   2.79592e-08 DIIS/DAMP=1%
   @DF-UKS iter  10:  -586.98359469241541   -8.32885e-08   2.85777e-09 DIIS/DAMP=1%
   @DF-UKS iter  11:  -586.98359468630952    6.10589e-09   3.56916e-10 DIIS/DAMP=1%
  Energy and wave function converged.


  ==> Post-Iterations <==

   Electrons on quadrature grid:
      Nalpha   =   16.0000053412 ; deviation = 5.341e-06
      Nbeta    =   11.0000046979 ; deviation = 4.698e-06
      Ntotal   =   27.0000100391 ; deviation = 1.004e-05 

   @Spin Contamination Metric:   8.972902482E-04
   @S^2 Expected:                8.750000000E+00
   @S^2 Observed:                8.750897290E+00
   @S   Expected:                2.500000000E+00
   @S   Observed:                2.500000000E+00

    Orbital Energies [Eh]
    ---------------------

    Alpha Occupied:                                                       

       1A1  -101.672629     2A1   -31.394625     3A1    -9.625790  
       4A1    -7.391152     1B2    -7.380974     1B1    -7.380974  
       5A1    -2.049751     6A1    -1.204604     2B2    -1.036966  
       2B1    -1.036966     7A1    -0.806753     3B1    -0.459319  
       3B2    -0.459319     8A1    -0.182471     4B1     0.324675  
       4B2     0.324675  

    Alpha Virtual:                                                        

       9A1     0.415396    10A1     0.500316    11A1     0.538655  
       1A2     0.538656     5B2     0.607804     5B1     0.607804  
      12A1     0.889558     6B2     1.212287     6B1     1.212287  
      13A1     1.304986    14A1     2.323319    15A1     4.277896  
       2A2     4.277945     7B2     4.446513     7B1     4.446513  
      16A1     5.071306  

    Beta Occupied:                                                        

       1A1  -101.643020     2A1   -31.378918     3A1    -9.596640  
       4A1    -7.364425     1B2    -7.330071     1B1    -7.330071  
       5A1    -2.008051     6A1    -1.154813     2B2    -0.995534  
       2B1    -0.995534     7A1    -0.666042  

    Beta Virtual:                                                         

       3B1    -0.234166     3B2    -0.234166     8A1    -0.004329  
       4B1     0.503704     4B2     0.503704     9A1     0.516953  
      10A1     0.584219     1A2     0.684436    11A1     0.684436  
       5B2     0.709374     5B1     0.709374    12A1     0.937841  
       6B2     1.239464     6B1     1.239464    13A1     1.374962  
      14A1     2.347265    15A1     4.299826     2A2     4.299876  
       7B2     4.473391     7B1     4.473391    16A1     5.101242  

    Final Occupation by Irrep:
             A1    A2    B1    B2 
    DOCC [     7,    0,    2,    2 ]
    SOCC [     1,    0,    2,    2 ]
    NA   [     8,    0,    4,    4 ]
    NB   [     7,    0,    2,    2 ]

  @DF-UKS Final Energy:  -586.98359468630952

   => Energetics <=

    Nuclear Repulsion Energy =             74.9667715115833460
    One-Electron Energy =                -958.5118889090958874
    Two-Electron Energy =                 329.5734197877740712
    DFT Exchange-Correlation Energy =     -33.0118970765709605
    Empirical Dispersion Energy =           0.0000000000000000
    VV10 Nonlocal Energy =                  0.0000000000000000
    Total Energy =                       -586.9835946863092886

  UHF NO Occupations:
  HONO-2 :    3 B1 1.0000000
  HONO-1 :    4 B1 1.0000000
  HONO-0 :    8 A1 1.0000000
  LUNO+0 :    9 A1 0.0003502
  LUNO+1 :    5 B1 0.0000397
  LUNO+2 :    5 B2 0.0000397
  LUNO+3 :   10 A1 0.0000120


Computation Completed


Properties will be evaluated at   0.000000,   0.000000,   0.000000 [a0]

Properties computed using the SCF density matrix


 Multipole Moments:

 ------------------------------------------------------------------------------------
     Multipole            Electronic (a.u.)      Nuclear  (a.u.)        Total (a.u.)
 ------------------------------------------------------------------------------------

 L = 1.  Multiply by 2.5417464519 to convert [e a0] to [Debye]
 Dipole X            :          0.0000000            0.0000000            0.0000000
 Dipole Y            :          0.0000000            0.0000000            0.0000000
 Dipole Z            :          1.3088150            0.4050456            1.7138606
 Magnitude           :                                                    1.7138606

 ------------------------------------------------------------------------------------

*** tstop() called on Joses-MacBook-Pro-2.local at Wed Jul 16 19:37:52 2025
Module time:
	user time   =       5.04 seconds =       0.08 minutes
	system time =       4.27 seconds =       0.07 minutes
	total time  =          1 seconds =       0.02 minutes
Total time:
	user time   =       5.04 seconds =       0.08 minutes
	system time =       4.27 seconds =       0.07 minutes
	total time  =          1 seconds =       0.02 minutes

*** tstart() called on Joses-MacBook-Pro-2.local
*** at Wed Jul 16 19:37:52 2025


         ------------------------------------------------------------
                                   SCF GRAD                          
                          Rob Parrish, Justin Turney,                
                       Andy Simmonett, and Alex Sokolov              
         ------------------------------------------------------------

  ==> Geometry <==

    Molecular point group: c2v
    Full point group: C_inf_v

    Geometry (in Angstrom), charge = 0, multiplicity = 6:

       Center              X                  Y                   Z               Mass       
    ------------   -----------------  -----------------  -----------------  -----------------
         NE           0.000000000000     0.000000000000     0.763494107147    19.992440176200
         CL           0.000000000000     0.000000000000    -0.436505892853    34.968852682000

  Nuclear repulsion =   74.966771511583346

  ==> Basis Set <==

  Basis Set: CC-PVDZ
    Blend: CC-PVDZ
    Number of shells: 14
    Number of basis functions: 32
    Number of Cartesian functions: 34
    Spherical Harmonics?: true
    Max angular momentum: 2

  ==> DFJKGrad: Density-Fitted SCF Gradients <==

    Gradient:                    1
    J tasked:                  Yes
    K tasked:                  Yes
    wK tasked:                  No
    OpenMP threads:              1
    Integrals threads:           1
    Memory [MiB]:              375
    Schwarz Cutoff:          1E-12
    Fitting Condition:       1E-10

   => Auxiliary Basis Set <=

  Basis Set: (CC-PVDZ AUX)
    Blend: CC-PVDZ-JKFIT
    Number of shells: 60
    Number of basis functions: 182
    Number of Cartesian functions: 211
    Spherical Harmonics?: true
    Max angular momentum: 3

  ==> DFT Potential <==

   => LibXC <=

    Version 6.2.2
    S. Lehtola, C. Steigemann, M. J.T. Oliveira, and M. A.L. Marques.,  SoftwareX 7, 1–5 (2018) (10.1016/j.softx.2017.11.002)

   => Composite Functional: B3LYP <= 

    B3LYP Hyb-GGA Exchange-Correlation Functional

    P. J. Stephens, F. J. Devlin, C. F. Chabalowski, and M. J. Frisch.,  J. Phys. Chem. 98, 11623 (1994) (10.1021/j100096a001)

    Deriv               =              1
    GGA                 =           TRUE
    Meta                =          FALSE

    Exchange Hybrid     =           TRUE
    MP2 Hybrid          =          FALSE

   => Exchange Functionals <=

    0.0800   Slater exchange
    0.7200         Becke 88

   => Exact (HF) Exchange <=

    0.2000               HF 

   => Correlation Functionals <=

    0.1900   Vosko, Wilk & Nusair (VWN5_RPA)
    0.8100   Lee, Yang & Parr

   => LibXC Density Thresholds  <==

    XC_HYB_GGA_XC_B3LYP:  1.00E-15 

   => Molecular Quadrature <=

    Radial Scheme          =       TREUTLER
    Pruning Scheme         =           NONE
    Nuclear Scheme         =       TREUTLER

    Blocking Scheme        =         OCTREE
    BS radius alpha        =              1
    Pruning alpha          =              1
    Radial Points          =             75
    Spherical Points       =            302
    Total Points           =          41726
    Total Blocks           =            368
    Max Points             =            256
    Max Functions          =             32
    Weights Tolerance      =       1.00E-15


  -Total Gradient:
     Atom            X                  Y                   Z
    ------   -----------------  -----------------  -----------------
       1        0.000000000000    -0.000000000000    -1.201633465874
       2       -0.000000000000     0.000000000000     1.201577210933


*** tstop() called on Joses-MacBook-Pro-2.local at Wed Jul 16 19:37:52 2025
Module time:
	user time   =       0.70 seconds =       0.01 minutes
	system time =       1.66 seconds =       0.03 minutes
	total time  =          0 seconds =       0.00 minutes
Total time:
	user time   =       5.74 seconds =       0.10 minutes
	system time =       5.93 seconds =       0.10 minutes
	total time  =          1 seconds =       0.02 minutes

    			-----------------------------------------

    			 OPTKING 3.0: for geometry optimizations 

    			     By R.A. King, Bethel University     

    			        with contributions from          

    			    A.V. Copan, J. Cayton, A. Heide      

    			-----------------------------------------

    
	                            ===> Fragment 1 <== 

	 Z (Atomic Numbers)          Masses                          Geom                  
	      10.000000            19.992440          0.00000000  0.00000000  1.44279476   
	      17.000000            34.968853          0.00000000  0.00000000 -0.82487659   

	 - Coordinate -           - BOHR/RAD -       - ANG/DEG -
	 R(1,2)           =         2.267671           1.200000


	        --- Internal Coordinate Step in ANG or DEG, aJ/ANG or AJ/DEG ---
	-------------------------------------------------------------------------------
	           Coordinate      Previous         Force          Change          New 
	           ----------      --------        ------          ------        ------
	               R(1,2)       1.20000        9.89969        0.14121       1.34121
	-------------------------------------------------------------------------------

	                                 ==> Convergence Check <==                                  
    
	Measures of convergence in internal coordinates in au.
    
	Criteria marked as inactive (o), active & met (*), and active & unmet ( ).

	----------------------------------------------------------------------------------------------
	   Step    Total Energy     Delta E     Max Force     RMS Force      Max Disp      RMS Disp   
	----------------------------------------------------------------------------------------------
	  Convergence Criteria     1.00e-06 *    3.00e-04 *             o    1.20e-03 *             o
	----------------------------------------------------------------------------------------------
	     1    -586.98359469   -5.87e+02      1.20e+00      1.20e+00 o    2.67e-01      2.67e-01 o  ~
	----------------------------------------------------------------------------------------------

Next Geometry in Ang 
	Fragment 1 (Ang)

	   Ne   0.0000000000   0.0000000000   0.8341004160
	   Cl   0.0000000000   0.0000000000  -0.5071122017


    Structure for next step:
    Molecular point group: c2v
    Full point group: C_inf_v

    Geometry (in Angstrom), charge = 0, multiplicity = 6:

    NE           0.000000000000     0.000000000000     0.853339941700
    CL           0.000000000000     0.000000000000    -0.487872675994


Scratch directory: /tmp/
gradient() will perform analytic gradient computation.
   => Libint2 <=

    Primary   basis highest AM E, G, H:  6, 6, 3
    Auxiliary basis highest AM E, G, H:  7, 7, 4
    Onebody   basis highest AM E, G, H:  -, -, -
    Solid Harmonics ordering:            Gaussian

*** tstart() called on Joses-MacBook-Pro-2.local
*** at Wed Jul 16 19:37:52 2025

   => Loading Basis Set <=

    Name: CC-PVDZ
    Role: ORBITAL
    Keyword: BASIS
    atoms 1 entry NE         line   258 file /Users/joseantoniorodriguesromero/anaconda3/share/psi4/basis/cc-pvdz.gbs 
    atoms 2 entry CL         line   658 file /Users/joseantoniorodriguesromero/anaconda3/share/psi4/basis/cc-pvdz.gbs 


         ---------------------------------------------------------
                                   SCF
               by Justin Turney, Rob Parrish, Andy Simmonett
                          and Daniel G. A. Smith
                              UKS Reference
                        1 Threads,    500 MiB Core
         ---------------------------------------------------------

  ==> Geometry <==

    Molecular point group: c2v
    Full point group: C_inf_v

    Geometry (in Angstrom), charge = 0, multiplicity = 6:

       Center              X                  Y                   Z               Mass       
    ------------   -----------------  -----------------  -----------------  -----------------
         NE           0.000000000000     0.000000000000     0.853339941700    19.992440176200
         CL           0.000000000000     0.000000000000    -0.487872675994    34.968852682000

  Running in c2v symmetry.

  Rotational constants: A = ************  B =      0.73673  C =      0.73673 [cm^-1]
  Rotational constants: A = ************  B =  22086.74362  C =  22086.74362 [MHz]
  Nuclear repulsion =   67.073724648191288

  Charge       = 0
  Multiplicity = 6
  Electrons    = 27
  Nalpha       = 16
  Nbeta        = 11

  ==> Algorithm <==

  SCF Algorithm Type is DF.
  DIIS enabled.
  MOM disabled.
  Fractional occupation disabled.
  Guess Type is READ.
  Energy threshold   = 1.00e-08
  Density threshold  = 1.00e-08
  Integral threshold = 1.00e-12

  ==> Primary Basis <==

  Basis Set: CC-PVDZ
    Blend: CC-PVDZ
    Number of shells: 14
    Number of basis functions: 32
    Number of Cartesian functions: 34
    Spherical Harmonics?: true
    Max angular momentum: 2

  ==> DFT Potential <==

   => LibXC <=

    Version 6.2.2
    S. Lehtola, C. Steigemann, M. J.T. Oliveira, and M. A.L. Marques.,  SoftwareX 7, 1–5 (2018) (10.1016/j.softx.2017.11.002)

   => Composite Functional: B3LYP <= 

    B3LYP Hyb-GGA Exchange-Correlation Functional

    P. J. Stephens, F. J. Devlin, C. F. Chabalowski, and M. J. Frisch.,  J. Phys. Chem. 98, 11623 (1994) (10.1021/j100096a001)

    Deriv               =              1
    GGA                 =           TRUE
    Meta                =          FALSE

    Exchange Hybrid     =           TRUE
    MP2 Hybrid          =          FALSE

   => Exchange Functionals <=

    0.0800   Slater exchange
    0.7200         Becke 88

   => Exact (HF) Exchange <=

    0.2000               HF 

   => Correlation Functionals <=

    0.1900   Vosko, Wilk & Nusair (VWN5_RPA)
    0.8100   Lee, Yang & Parr

   => LibXC Density Thresholds  <==

    XC_HYB_GGA_XC_B3LYP:  1.00E-15 

   => Molecular Quadrature <=

    Radial Scheme          =       TREUTLER
    Pruning Scheme         =           NONE
    Nuclear Scheme         =       TREUTLER

    Blocking Scheme        =         OCTREE
    BS radius alpha        =              1
    Pruning alpha          =              1
    Radial Points          =             75
    Spherical Points       =            302
    Total Points           =          41760
    Total Blocks           =            372
    Max Points             =            255
    Max Functions          =             32
    Weights Tolerance      =       1.00E-15

   => Loading Basis Set <=

    Name: (CC-PVDZ AUX)
    Role: JKFIT
    Keyword: DF_BASIS_SCF
    atoms 1 entry NE         line   321 file /Users/joseantoniorodriguesromero/anaconda3/share/psi4/basis/cc-pvdz-jkfit.gbs 
    atoms 2 entry CL         line   667 file /Users/joseantoniorodriguesromero/anaconda3/share/psi4/basis/cc-pvdz-jkfit.gbs 

   => Loading Basis Set <=

    Name: CC-PVDZ
    Role: ORBITAL
    Keyword: BASIS
    atoms 1 entry NE         line   258 file /Users/joseantoniorodriguesromero/anaconda3/share/psi4/basis/cc-pvdz.gbs 
    atoms 2 entry CL         line   658 file /Users/joseantoniorodriguesromero/anaconda3/share/psi4/basis/cc-pvdz.gbs 

  Reading orbitals from file /tmp/sextet_NeCl.default.69195.180.npy, no projection.

  ==> Integral Setup <==

  DFHelper Memory: AOs need 0.002 GiB; user supplied 0.329 GiB. 
  Using in-core AOs.

  ==> MemDFJK: Density-Fitted J/K Matrices <==

    J tasked:                   Yes
    K tasked:                   Yes
    wK tasked:                   No
    OpenMP threads:               1
    Memory [MiB]:               336
    Algorithm:                 Core
    Schwarz Cutoff:           1E-12
    Mask sparsity (%):       0.0000
    Fitting Condition:        1E-10

   => Auxiliary Basis Set <=

  Basis Set: (CC-PVDZ AUX)
    Blend: CC-PVDZ-JKFIT
    Number of shells: 60
    Number of basis functions: 182
    Number of Cartesian functions: 211
    Spherical Harmonics?: true
    Max angular momentum: 3

  Cached 100.0% of DFT collocation blocks in 0.037 [GiB].

  Minimum eigenvalue in the overlap matrix is 4.8701497292E-02.
  Reciprocal condition number of the overlap matrix is 1.7879439165E-02.
    Using symmetric orthogonalization.

  ==> Pre-Iterations <==

  SCF Guess: Orbitals guess was supplied from a previous computation.

   -------------------------------------------------------
    Irrep   Nso     Nmo     Nalpha   Nbeta   Ndocc  Nsocc
   -------------------------------------------------------
     A1        16      16       8       7       7       1
     A2         2       2       0       0       0       0
     B1         7       7       4       2       2       2
     B2         7       7       4       2       2       2
   -------------------------------------------------------
    Total      32      32      16      11      11       5
   -------------------------------------------------------

  ==> Iterations <==

                           Total Energy        Delta E     RMS |[F,P]|

   @DF-UKS iter   0:  -587.17172304004987   -5.87172e+02   5.48087e-02 
   @DF-UKS iter   1:  -587.22692805253700   -5.52050e-02   4.46903e-03 ADIIS/DIIS
   @DF-UKS iter   2:  -587.22773991779331   -8.11865e-04   4.88967e-03 ADIIS/DIIS/DAMP=1%
   @DF-UKS iter   3:  -587.22865089243999   -9.10975e-04   4.76766e-04 ADIIS/DIIS/DAMP=1%
   @DF-UKS iter   4:  -587.23063183917316   -1.98095e-03   4.17189e-05 DIIS/DAMP=1%
   @DF-UKS iter   5:  -587.23032648833862    3.05351e-04   9.94554e-06 DIIS/DAMP=1%
   @DF-UKS iter   6:  -587.23033848430555   -1.19960e-05   3.55699e-06 DIIS/DAMP=1%
   @DF-UKS iter   7:  -587.23034249966418   -4.01536e-06   7.02500e-07 DIIS/DAMP=1%
   @DF-UKS iter   8:  -587.23034133337717    1.16629e-06   1.40202e-07 DIIS/DAMP=1%
   @DF-UKS iter   9:  -587.23034138644857   -5.30714e-08   9.54166e-09 DIIS/DAMP=1%
   @DF-UKS iter  10:  -587.23034144897031   -6.25217e-08   1.24140e-09 DIIS/DAMP=1%
   @DF-UKS iter  11:  -587.23034144713245    1.83786e-09   1.23653e-10 DIIS/DAMP=1%
  Energy and wave function converged.


  ==> Post-Iterations <==

   Electrons on quadrature grid:
      Nalpha   =   16.0000030220 ; deviation = 3.022e-06
      Nbeta    =   11.0000029705 ; deviation = 2.970e-06
      Ntotal   =   27.0000059925 ; deviation = 5.992e-06 

   @Spin Contamination Metric:   9.805915402E-04
   @S^2 Expected:                8.750000000E+00
   @S^2 Observed:                8.750980592E+00
   @S   Expected:                2.500000000E+00
   @S   Observed:                2.500000000E+00

    Orbital Energies [Eh]
    ---------------------

    Alpha Occupied:                                                       

       1A1  -101.635137     2A1   -31.303424     3A1    -9.586076  
       4A1    -7.349672     1B1    -7.344138     1B2    -7.344138  
       5A1    -1.883209     6A1    -1.114968     2B1    -0.915778  
       2B2    -0.915778     7A1    -0.804560     3B1    -0.463438  
       3B2    -0.463438     8A1    -0.245170     4B1     0.344066  
       4B2     0.344066  

    Alpha Virtual:                                                        

       9A1     0.396887    10A1     0.495102     1A2     0.560034  
      11A1     0.560034     5B1     0.576434     5B2     0.576434  
      12A1     0.845015     6B2     1.266188     6B1     1.266188  
      13A1     1.270943    14A1     2.378623     2A2     4.376794  
      15A1     4.376798     7B1     4.454489     7B2     4.454489  
      16A1     4.886523  

    Beta Occupied:                                                        

       1A1  -101.603818     2A1   -31.288373     3A1    -9.555363  
       4A1    -7.317824     1B1    -7.292239     1B2    -7.292239  
       5A1    -1.845440     6A1    -1.043178     2B1    -0.882483  
       2B2    -0.882483     7A1    -0.669895  

    Beta Virtual:                                                         

       3B1    -0.236507     3B2    -0.236507     8A1    -0.053369  
       9A1     0.483741     4B1     0.528662     4B2     0.528662  
      10A1     0.584270     5B1     0.684054     5B2     0.684054  
       1A2     0.706802    11A1     0.706802    12A1     0.932651  
       6B2     1.289451     6B1     1.289451    13A1     1.312556  
      14A1     2.404769     2A2     4.394874    15A1     4.394879  
       7B1     4.478932     7B2     4.478932    16A1     4.916767  

    Final Occupation by Irrep:
             A1    A2    B1    B2 
    DOCC [     7,    0,    2,    2 ]
    SOCC [     1,    0,    2,    2 ]
    NA   [     8,    0,    4,    4 ]
    NB   [     7,    0,    2,    2 ]

  @DF-UKS Final Energy:  -587.23034144713245

   => Energetics <=

    Nuclear Repulsion Energy =             67.0737246481912877
    One-Electron Energy =                -944.7947950858994091
    Two-Electron Energy =                 323.4508806485181935
    DFT Exchange-Correlation Energy =     -32.9601516579426033
    Empirical Dispersion Energy =           0.0000000000000000
    VV10 Nonlocal Energy =                  0.0000000000000000
    Total Energy =                       -587.2303414471325596

  UHF NO Occupations:
  HONO-2 :    4 B2 1.0000000
  HONO-1 :    4 B1 1.0000000
  HONO-0 :    8 A1 1.0000000
  LUNO+0 :    9 A1 0.0003606
  LUNO+1 :    5 B1 0.0000464
  LUNO+2 :    5 B2 0.0000464
  LUNO+3 :   10 A1 0.0000308


Computation Completed


Properties will be evaluated at   0.000000,   0.000000,   0.000000 [a0]

Properties computed using the SCF density matrix


 Multipole Moments:

 ------------------------------------------------------------------------------------
     Multipole            Electronic (a.u.)      Nuclear  (a.u.)        Total (a.u.)
 ------------------------------------------------------------------------------------

 L = 1.  Multiply by 2.5417464519 to convert [e a0] to [Debye]
 Dipole X            :          0.0000000            0.0000000            0.0000000
 Dipole Y            :          0.0000000            0.0000000            0.0000000
 Dipole Z            :          1.0817130            0.4527102            1.5344232
 Magnitude           :                                                    1.5344232

 ------------------------------------------------------------------------------------

*** tstop() called on Joses-MacBook-Pro-2.local at Wed Jul 16 19:37:53 2025
Module time:
	user time   =       4.56 seconds =       0.08 minutes
	system time =       3.63 seconds =       0.06 minutes
	total time  =          1 seconds =       0.02 minutes
Total time:
	user time   =      10.34 seconds =       0.17 minutes
	system time =       9.78 seconds =       0.16 minutes
	total time  =          2 seconds =       0.03 minutes

*** tstart() called on Joses-MacBook-Pro-2.local
*** at Wed Jul 16 19:37:53 2025


         ------------------------------------------------------------
                                   SCF GRAD                          
                          Rob Parrish, Justin Turney,                
                       Andy Simmonett, and Alex Sokolov              
         ------------------------------------------------------------

  ==> Geometry <==

    Molecular point group: c2v
    Full point group: C_inf_v

    Geometry (in Angstrom), charge = 0, multiplicity = 6:

       Center              X                  Y                   Z               Mass       
    ------------   -----------------  -----------------  -----------------  -----------------
         NE           0.000000000000     0.000000000000     0.853339941700    19.992440176200
         CL           0.000000000000     0.000000000000    -0.487872675994    34.968852682000

  Nuclear repulsion =   67.073724648191288

  ==> Basis Set <==

  Basis Set: CC-PVDZ
    Blend: CC-PVDZ
    Number of shells: 14
    Number of basis functions: 32
    Number of Cartesian functions: 34
    Spherical Harmonics?: true
    Max angular momentum: 2

  ==> DFJKGrad: Density-Fitted SCF Gradients <==

    Gradient:                    1
    J tasked:                  Yes
    K tasked:                  Yes
    wK tasked:                  No
    OpenMP threads:              1
    Integrals threads:           1
    Memory [MiB]:              375
    Schwarz Cutoff:          1E-12
    Fitting Condition:       1E-10

   => Auxiliary Basis Set <=

  Basis Set: (CC-PVDZ AUX)
    Blend: CC-PVDZ-JKFIT
    Number of shells: 60
    Number of basis functions: 182
    Number of Cartesian functions: 211
    Spherical Harmonics?: true
    Max angular momentum: 3

  ==> DFT Potential <==

   => LibXC <=

    Version 6.2.2
    S. Lehtola, C. Steigemann, M. J.T. Oliveira, and M. A.L. Marques.,  SoftwareX 7, 1–5 (2018) (10.1016/j.softx.2017.11.002)

   => Composite Functional: B3LYP <= 

    B3LYP Hyb-GGA Exchange-Correlation Functional

    P. J. Stephens, F. J. Devlin, C. F. Chabalowski, and M. J. Frisch.,  J. Phys. Chem. 98, 11623 (1994) (10.1021/j100096a001)

    Deriv               =              1
    GGA                 =           TRUE
    Meta                =          FALSE

    Exchange Hybrid     =           TRUE
    MP2 Hybrid          =          FALSE

   => Exchange Functionals <=

    0.0800   Slater exchange
    0.7200         Becke 88

   => Exact (HF) Exchange <=

    0.2000               HF 

   => Correlation Functionals <=

    0.1900   Vosko, Wilk & Nusair (VWN5_RPA)
    0.8100   Lee, Yang & Parr

   => LibXC Density Thresholds  <==

    XC_HYB_GGA_XC_B3LYP:  1.00E-15 

   => Molecular Quadrature <=

    Radial Scheme          =       TREUTLER
    Pruning Scheme         =           NONE
    Nuclear Scheme         =       TREUTLER

    Blocking Scheme        =         OCTREE
    BS radius alpha        =              1
    Pruning alpha          =              1
    Radial Points          =             75
    Spherical Points       =            302
    Total Points           =          41760
    Total Blocks           =            372
    Max Points             =            255
    Max Functions          =             32
    Weights Tolerance      =       1.00E-15


  -Total Gradient:
     Atom            X                  Y                   Z
    ------   -----------------  -----------------  -----------------
       1        0.000000000000     0.000000000000    -0.698675251402
       2        0.000000000000    -0.000000000000     0.698579312542


*** tstop() called on Joses-MacBook-Pro-2.local at Wed Jul 16 19:37:53 2025
Module time:
	user time   =       0.81 seconds =       0.01 minutes
	system time =       1.77 seconds =       0.03 minutes
	total time  =          0 seconds =       0.00 minutes
Total time:
	user time   =      11.15 seconds =       0.19 minutes
	system time =      11.55 seconds =       0.19 minutes
	total time  =          2 seconds =       0.03 minutes

    			-----------------------------------------

    			 OPTKING 3.0: for geometry optimizations 

    			     By R.A. King, Bethel University     

    			        with contributions from          

    			    A.V. Copan, J. Cayton, A. Heide      

    			-----------------------------------------

    
	                            ===> Fragment 1 <== 

	 Z (Atomic Numbers)          Masses                          Geom                  
	      10.000000            19.992440          0.00000000  0.00000000  1.61257878   
	      17.000000            34.968853          0.00000000  0.00000000 -0.92194574   

	 - Coordinate -           - BOHR/RAD -       - ANG/DEG -
	 R(1,2)           =         2.534525           1.341213


	        --- Internal Coordinate Step in ANG or DEG, aJ/ANG or AJ/DEG ---
	-------------------------------------------------------------------------------
	           Coordinate      Previous         Force          Change          New 
	           ----------      --------        ------          ------        ------
	               R(1,2)       1.34121        5.75580        0.16053       1.50174
	-------------------------------------------------------------------------------

	                                 ==> Convergence Check <==                                  
    
	Measures of convergence in internal coordinates in au.
    
	Criteria marked as inactive (o), active & met (*), and active & unmet ( ).

	----------------------------------------------------------------------------------------------
	   Step    Total Energy     Delta E     Max Force     RMS Force      Max Disp      RMS Disp   
	----------------------------------------------------------------------------------------------
	  Convergence Criteria     1.00e-06 *    3.00e-04 *             o    1.20e-03 *             o
	----------------------------------------------------------------------------------------------
	     2    -587.23034145   -2.47e-01      6.99e-01      6.99e-01 o    3.03e-01      3.03e-01 o  ~
	----------------------------------------------------------------------------------------------

Next Geometry in Ang 
	Fragment 1 (Ang)

	   Ne   0.0000000000   0.0000000000   0.9336029742
	   Cl   0.0000000000   0.0000000000  -0.5681357085


    Structure for next step:
    Molecular point group: c2v
    Full point group: C_inf_v

    Geometry (in Angstrom), charge = 0, multiplicity = 6:

    NE           0.000000000000     0.000000000000     0.955473862204
    CL           0.000000000000     0.000000000000    -0.546264820403


Scratch directory: /tmp/
gradient() will perform analytic gradient computation.
   => Libint2 <=

    Primary   basis highest AM E, G, H:  6, 6, 3
    Auxiliary basis highest AM E, G, H:  7, 7, 4
    Onebody   basis highest AM E, G, H:  -, -, -
    Solid Harmonics ordering:            Gaussian

*** tstart() called on Joses-MacBook-Pro-2.local
*** at Wed Jul 16 19:37:53 2025

   => Loading Basis Set <=

    Name: CC-PVDZ
    Role: ORBITAL
    Keyword: BASIS
    atoms 1 entry NE         line   258 file /Users/joseantoniorodriguesromero/anaconda3/share/psi4/basis/cc-pvdz.gbs 
    atoms 2 entry CL         line   658 file /Users/joseantoniorodriguesromero/anaconda3/share/psi4/basis/cc-pvdz.gbs 


         ---------------------------------------------------------
                                   SCF
               by Justin Turney, Rob Parrish, Andy Simmonett
                          and Daniel G. A. Smith
                              UKS Reference
                        1 Threads,    500 MiB Core
         ---------------------------------------------------------

  ==> Geometry <==

    Molecular point group: c2v
    Full point group: C_inf_v

    Geometry (in Angstrom), charge = 0, multiplicity = 6:

       Center              X                  Y                   Z               Mass       
    ------------   -----------------  -----------------  -----------------  -----------------
         NE           0.000000000000     0.000000000000     0.955473862204    19.992440176200
         CL           0.000000000000     0.000000000000    -0.546264820403    34.968852682000

  Running in c2v symmetry.

  Rotational constants: A = ************  B =      0.58765  C =      0.58765 [cm^-1]
  Rotational constants: A = ************  B =  17617.25398  C =  17617.25398 [MHz]
  Nuclear repulsion =   59.903981202446758

  Charge       = 0
  Multiplicity = 6
  Electrons    = 27
  Nalpha       = 16
  Nbeta        = 11

  ==> Algorithm <==

  SCF Algorithm Type is DF.
  DIIS enabled.
  MOM disabled.
  Fractional occupation disabled.
  Guess Type is READ.
  Energy threshold   = 1.00e-08
  Density threshold  = 1.00e-08
  Integral threshold = 1.00e-12

  ==> Primary Basis <==

  Basis Set: CC-PVDZ
    Blend: CC-PVDZ
    Number of shells: 14
    Number of basis functions: 32
    Number of Cartesian functions: 34
    Spherical Harmonics?: true
    Max angular momentum: 2

  ==> DFT Potential <==

   => LibXC <=

    Version 6.2.2
    S. Lehtola, C. Steigemann, M. J.T. Oliveira, and M. A.L. Marques.,  SoftwareX 7, 1–5 (2018) (10.1016/j.softx.2017.11.002)

   => Composite Functional: B3LYP <= 

    B3LYP Hyb-GGA Exchange-Correlation Functional

    P. J. Stephens, F. J. Devlin, C. F. Chabalowski, and M. J. Frisch.,  J. Phys. Chem. 98, 11623 (1994) (10.1021/j100096a001)

    Deriv               =              1
    GGA                 =           TRUE
    Meta                =          FALSE

    Exchange Hybrid     =           TRUE
    MP2 Hybrid          =          FALSE

   => Exchange Functionals <=

    0.0800   Slater exchange
    0.7200         Becke 88

   => Exact (HF) Exchange <=

    0.2000               HF 

   => Correlation Functionals <=

    0.1900   Vosko, Wilk & Nusair (VWN5_RPA)
    0.8100   Lee, Yang & Parr

   => LibXC Density Thresholds  <==

    XC_HYB_GGA_XC_B3LYP:  1.00E-15 

   => Molecular Quadrature <=

    Radial Scheme          =       TREUTLER
    Pruning Scheme         =           NONE
    Nuclear Scheme         =       TREUTLER

    Blocking Scheme        =         OCTREE
    BS radius alpha        =              1
    Pruning alpha          =              1
    Radial Points          =             75
    Spherical Points       =            302
    Total Points           =          41800
    Total Blocks           =            373
    Max Points             =            256
    Max Functions          =             32
    Weights Tolerance      =       1.00E-15

   => Loading Basis Set <=

    Name: (CC-PVDZ AUX)
    Role: JKFIT
    Keyword: DF_BASIS_SCF
    atoms 1 entry NE         line   321 file /Users/joseantoniorodriguesromero/anaconda3/share/psi4/basis/cc-pvdz-jkfit.gbs 
    atoms 2 entry CL         line   667 file /Users/joseantoniorodriguesromero/anaconda3/share/psi4/basis/cc-pvdz-jkfit.gbs 

   => Loading Basis Set <=

    Name: CC-PVDZ
    Role: ORBITAL
    Keyword: BASIS
    atoms 1 entry NE         line   258 file /Users/joseantoniorodriguesromero/anaconda3/share/psi4/basis/cc-pvdz.gbs 
    atoms 2 entry CL         line   658 file /Users/joseantoniorodriguesromero/anaconda3/share/psi4/basis/cc-pvdz.gbs 

  Reading orbitals from file /tmp/sextet_NeCl.default.69195.180.npy, no projection.

  ==> Integral Setup <==

  DFHelper Memory: AOs need 0.002 GiB; user supplied 0.329 GiB. 
  Using in-core AOs.

  ==> MemDFJK: Density-Fitted J/K Matrices <==

    J tasked:                   Yes
    K tasked:                   Yes
    wK tasked:                   No
    OpenMP threads:               1
    Memory [MiB]:               337
    Algorithm:                 Core
    Schwarz Cutoff:           1E-12
    Mask sparsity (%):       0.0000
    Fitting Condition:        1E-10

   => Auxiliary Basis Set <=

  Basis Set: (CC-PVDZ AUX)
    Blend: CC-PVDZ-JKFIT
    Number of shells: 60
    Number of basis functions: 182
    Number of Cartesian functions: 211
    Spherical Harmonics?: true
    Max angular momentum: 3

  Cached 100.0% of DFT collocation blocks in 0.037 [GiB].

  Minimum eigenvalue in the overlap matrix is 6.0072042455E-02.
  Reciprocal condition number of the overlap matrix is 2.3406590373E-02.
    Using symmetric orthogonalization.

  ==> Pre-Iterations <==

  SCF Guess: Orbitals guess was supplied from a previous computation.

   -------------------------------------------------------
    Irrep   Nso     Nmo     Nalpha   Nbeta   Ndocc  Nsocc
   -------------------------------------------------------
     A1        16      16       8       7       7       1
     A2         2       2       0       0       0       0
     B1         7       7       4       2       2       2
     B2         7       7       4       2       2       2
   -------------------------------------------------------
    Total      32      32      16      11      11       5
   -------------------------------------------------------

  ==> Iterations <==

                           Total Energy        Delta E     RMS |[F,P]|

   @DF-UKS iter   0:  -587.35615389987026   -5.87356e+02   4.61143e-02 
   @DF-UKS iter   1:  -587.38669247056055   -3.05386e-02   3.66183e-03 ADIIS/DIIS
   @DF-UKS iter   2:  -587.38745413265281   -7.61662e-04   4.03634e-03 ADIIS/DIIS/DAMP=1%
   @DF-UKS iter   3:  -587.38792163727044   -4.67505e-04   4.41270e-04 ADIIS/DIIS/DAMP=1%
   @DF-UKS iter   4:  -587.38959251670485   -1.67088e-03   5.62880e-05 DIIS/DAMP=1%
   @DF-UKS iter   5:  -587.38931412848910    2.78388e-04   2.51493e-05 DIIS/DAMP=1%
   @DF-UKS iter   6:  -587.38931109926034    3.02923e-06   7.63727e-06 DIIS/DAMP=1%
   @DF-UKS iter   7:  -587.38931684339116   -5.74413e-06   1.71257e-06 DIIS/DAMP=1%
   @DF-UKS iter   8:  -587.38931366805741    3.17533e-06   2.27064e-07 DIIS/DAMP=1%
   @DF-UKS iter   9:  -587.38931357444403    9.36134e-08   2.67345e-08 DIIS/DAMP=1%
   @DF-UKS iter  10:  -587.38931366421320   -8.97692e-08   2.18362e-09 DIIS/DAMP=1%
   @DF-UKS iter  11:  -587.38931366162149    2.59172e-09   2.17075e-10 DIIS/DAMP=1%
  Energy and wave function converged.


  ==> Post-Iterations <==

   Electrons on quadrature grid:
      Nalpha   =   15.9999911703 ; deviation = -8.830e-06
      Nbeta    =   10.9999920540 ; deviation = -7.946e-06
      Ntotal   =   26.9999832243 ; deviation = -1.678e-05 

   @Spin Contamination Metric:   1.095137172E-03
   @S^2 Expected:                8.750000000E+00
   @S^2 Observed:                8.751095137E+00
   @S   Expected:                2.500000000E+00
   @S   Observed:                2.500000000E+00

    Orbital Energies [Eh]
    ---------------------

    Alpha Occupied:                                                       

       1A1  -101.618460     2A1   -31.227172     3A1    -9.571786  
       4A1    -7.333905     1B1    -7.331131     1B2    -7.331131  
       5A1    -1.753210     6A1    -1.045595     2B2    -0.817682  
       2B1    -0.817682     7A1    -0.799044     3B2    -0.473928  
       3B1    -0.473928     8A1    -0.322664     4B1     0.355452  
       4B2     0.355452  

    Alpha Virtual:                                                        

       9A1     0.390158    10A1     0.483998     5B2     0.549465  
       5B1     0.549465    11A1     0.565225     1A2     0.565226  
      12A1     0.773937     6B1     1.295923     6B2     1.295923  
      13A1     1.310604    14A1     2.366162     2A2     4.462185  
      15A1     4.462309     7B1     4.481435     7B2     4.481435  
      16A1     4.717804  

    Beta Occupied:                                                        

       1A1  -101.585589     2A1   -31.214044     3A1    -9.539789  
       4A1    -7.298366     1B1    -7.277750     1B2    -7.277750  
       5A1    -1.722730     6A1    -0.944278     2B2    -0.792856  
       2B1    -0.792856     7A1    -0.680583  

    Beta Virtual:                                                         

       3B2    -0.245834     3B1    -0.245834     8A1    -0.124203  
       9A1     0.470268     4B1     0.540470     4B2     0.540470  
      10A1     0.579309     5B2     0.665341     5B1     0.665341  
       1A2     0.711792    11A1     0.711792    12A1     0.882006  
       6B1     1.315736     6B2     1.315736    13A1     1.334969  
      14A1     2.395368     2A2     4.475997    15A1     4.476123  
       7B1     4.503557     7B2     4.503557    16A1     4.745740  

    Final Occupation by Irrep:
             A1    A2    B1    B2 
    DOCC [     7,    0,    2,    2 ]
    SOCC [     1,    0,    2,    2 ]
    NA   [     8,    0,    4,    4 ]
    NB   [     7,    0,    2,    2 ]

  @DF-UKS Final Energy:  -587.38931366162149

   => Energetics <=

    Nuclear Repulsion Energy =             59.9039812024467579
    One-Electron Energy =                -931.8235457232565295
    Two-Electron Energy =                 317.4456741606775267
    DFT Exchange-Correlation Energy =     -32.9154233014891773
    Empirical Dispersion Energy =           0.0000000000000000
    VV10 Nonlocal Energy =                  0.0000000000000000
    Total Energy =                       -587.3893136616214861

  UHF NO Occupations:
  HONO-2 :    4 B2 1.0000000
  HONO-1 :    8 A1 1.0000000
  HONO-0 :    4 B1 1.0000000
  LUNO+0 :    9 A1 0.0003987
  LUNO+1 :   10 A1 0.0000660
  LUNO+2 :    5 B2 0.0000385
  LUNO+3 :    5 B1 0.0000385


Computation Completed


Properties will be evaluated at   0.000000,   0.000000,   0.000000 [a0]

Properties computed using the SCF density matrix


 Multipole Moments:

 ------------------------------------------------------------------------------------
     Multipole            Electronic (a.u.)      Nuclear  (a.u.)        Total (a.u.)
 ------------------------------------------------------------------------------------

 L = 1.  Multiply by 2.5417464519 to convert [e a0] to [Debye]
 Dipole X            :          0.0000000            0.0000000            0.0000000
 Dipole Y            :          0.0000000            0.0000000            0.0000000
 Dipole Z            :          0.7591011            0.5068939            1.2659950
 Magnitude           :                                                    1.2659950

 ------------------------------------------------------------------------------------

*** tstop() called on Joses-MacBook-Pro-2.local at Wed Jul 16 19:37:54 2025
Module time:
	user time   =       4.75 seconds =       0.08 minutes
	system time =       2.85 seconds =       0.05 minutes
	total time  =          1 seconds =       0.02 minutes
Total time:
	user time   =      15.96 seconds =       0.27 minutes
	system time =      14.70 seconds =       0.25 minutes
	total time  =          3 seconds =       0.05 minutes

*** tstart() called on Joses-MacBook-Pro-2.local
*** at Wed Jul 16 19:37:54 2025


         ------------------------------------------------------------
                                   SCF GRAD                          
                          Rob Parrish, Justin Turney,                
                       Andy Simmonett, and Alex Sokolov              
         ------------------------------------------------------------

  ==> Geometry <==

    Molecular point group: c2v
    Full point group: C_inf_v

    Geometry (in Angstrom), charge = 0, multiplicity = 6:

       Center              X                  Y                   Z               Mass       
    ------------   -----------------  -----------------  -----------------  -----------------
         NE           0.000000000000     0.000000000000     0.955473862204    19.992440176200
         CL           0.000000000000     0.000000000000    -0.546264820403    34.968852682000

  Nuclear repulsion =   59.903981202446758

  ==> Basis Set <==

  Basis Set: CC-PVDZ
    Blend: CC-PVDZ
    Number of shells: 14
    Number of basis functions: 32
    Number of Cartesian functions: 34
    Spherical Harmonics?: true
    Max angular momentum: 2

  ==> DFJKGrad: Density-Fitted SCF Gradients <==

    Gradient:                    1
    J tasked:                  Yes
    K tasked:                  Yes
    wK tasked:                  No
    OpenMP threads:              1
    Integrals threads:           1
    Memory [MiB]:              375
    Schwarz Cutoff:          1E-12
    Fitting Condition:       1E-10

   => Auxiliary Basis Set <=

  Basis Set: (CC-PVDZ AUX)
    Blend: CC-PVDZ-JKFIT
    Number of shells: 60
    Number of basis functions: 182
    Number of Cartesian functions: 211
    Spherical Harmonics?: true
    Max angular momentum: 3

  ==> DFT Potential <==

   => LibXC <=

    Version 6.2.2
    S. Lehtola, C. Steigemann, M. J.T. Oliveira, and M. A.L. Marques.,  SoftwareX 7, 1–5 (2018) (10.1016/j.softx.2017.11.002)

   => Composite Functional: B3LYP <= 

    B3LYP Hyb-GGA Exchange-Correlation Functional

    P. J. Stephens, F. J. Devlin, C. F. Chabalowski, and M. J. Frisch.,  J. Phys. Chem. 98, 11623 (1994) (10.1021/j100096a001)

    Deriv               =              1
    GGA                 =           TRUE
    Meta                =          FALSE

    Exchange Hybrid     =           TRUE
    MP2 Hybrid          =          FALSE

   => Exchange Functionals <=

    0.0800   Slater exchange
    0.7200         Becke 88

   => Exact (HF) Exchange <=

    0.2000               HF 

   => Correlation Functionals <=

    0.1900   Vosko, Wilk & Nusair (VWN5_RPA)
    0.8100   Lee, Yang & Parr

   => LibXC Density Thresholds  <==

    XC_HYB_GGA_XC_B3LYP:  1.00E-15 

   => Molecular Quadrature <=

    Radial Scheme          =       TREUTLER
    Pruning Scheme         =           NONE
    Nuclear Scheme         =       TREUTLER

    Blocking Scheme        =         OCTREE
    BS radius alpha        =              1
    Pruning alpha          =              1
    Radial Points          =             75
    Spherical Points       =            302
    Total Points           =          41800
    Total Blocks           =            373
    Max Points             =            256
    Max Functions          =             32
    Weights Tolerance      =       1.00E-15


  -Total Gradient:
     Atom            X                  Y                   Z
    ------   -----------------  -----------------  -----------------
       1       -0.000000000000    -0.000000000000    -0.381618836247
       2        0.000000000000    -0.000000000000     0.381499687213


*** tstop() called on Joses-MacBook-Pro-2.local at Wed Jul 16 19:37:54 2025
Module time:
	user time   =       1.17 seconds =       0.02 minutes
	system time =       1.58 seconds =       0.03 minutes
	total time  =          0 seconds =       0.00 minutes
Total time:
	user time   =      17.14 seconds =       0.29 minutes
	system time =      16.28 seconds =       0.27 minutes
	total time  =          3 seconds =       0.05 minutes

    			-----------------------------------------

    			 OPTKING 3.0: for geometry optimizations 

    			     By R.A. King, Bethel University     

    			        with contributions from          

    			    A.V. Copan, J. Cayton, A. Heide      

    			-----------------------------------------

    
	                            ===> Fragment 1 <== 

	 Z (Atomic Numbers)          Masses                          Geom                  
	      10.000000            19.992440          0.00000000  0.00000000  1.80558392   
	      17.000000            34.968853          0.00000000  0.00000000 -1.03229090   

	 - Coordinate -           - BOHR/RAD -       - ANG/DEG -
	 R(1,2)           =         2.837875           1.501739


	        --- Internal Coordinate Step in ANG or DEG, aJ/ANG or AJ/DEG ---
	-------------------------------------------------------------------------------
	           Coordinate      Previous         Force          Change          New 
	           ----------      --------        ------          ------        ------
	               R(1,2)       1.50174        3.14356        0.17258       1.67431
	-------------------------------------------------------------------------------

	                                 ==> Convergence Check <==                                  
    
	Measures of convergence in internal coordinates in au.
    
	Criteria marked as inactive (o), active & met (*), and active & unmet ( ).

	----------------------------------------------------------------------------------------------
	   Step    Total Energy     Delta E     Max Force     RMS Force      Max Disp      RMS Disp   
	----------------------------------------------------------------------------------------------
	  Convergence Criteria     1.00e-06 *    3.00e-04 *             o    1.20e-03 *             o
	----------------------------------------------------------------------------------------------
	     3    -587.38931366   -1.59e-01      3.82e-01      3.82e-01 o    3.26e-01      3.26e-01 o  ~
	----------------------------------------------------------------------------------------------

Next Geometry in Ang 
	Fragment 1 (Ang)

	   Ne   0.0000000000   0.0000000000   1.0417620163
	   Cl   0.0000000000   0.0000000000  -0.6325529745


    Structure for next step:
    Molecular point group: c2v
    Full point group: C_inf_v

    Geometry (in Angstrom), charge = 0, multiplicity = 6:

    NE           0.000000000000     0.000000000000     1.065274690849
    CL           0.000000000000     0.000000000000    -0.609040299998


Scratch directory: /tmp/
gradient() will perform analytic gradient computation.
   => Libint2 <=

    Primary   basis highest AM E, G, H:  6, 6, 3
    Auxiliary basis highest AM E, G, H:  7, 7, 4
    Onebody   basis highest AM E, G, H:  -, -, -
    Solid Harmonics ordering:            Gaussian

*** tstart() called on Joses-MacBook-Pro-2.local
*** at Wed Jul 16 19:37:54 2025

   => Loading Basis Set <=

    Name: CC-PVDZ
    Role: ORBITAL
    Keyword: BASIS
    atoms 1 entry NE         line   258 file /Users/joseantoniorodriguesromero/anaconda3/share/psi4/basis/cc-pvdz.gbs 
    atoms 2 entry CL         line   658 file /Users/joseantoniorodriguesromero/anaconda3/share/psi4/basis/cc-pvdz.gbs 


         ---------------------------------------------------------
                                   SCF
               by Justin Turney, Rob Parrish, Andy Simmonett
                          and Daniel G. A. Smith
                              UKS Reference
                        1 Threads,    500 MiB Core
         ---------------------------------------------------------

  ==> Geometry <==

    Molecular point group: c2v
    Full point group: C_inf_v

    Geometry (in Angstrom), charge = 0, multiplicity = 6:

       Center              X                  Y                   Z               Mass       
    ------------   -----------------  -----------------  -----------------  -----------------
         NE           0.000000000000     0.000000000000     1.065274690849    19.992440176200
         CL           0.000000000000     0.000000000000    -0.609040299998    34.968852682000

  Running in c2v symmetry.

  Rotational constants: A = ************  B =      0.47275  C =      0.47275 [cm^-1]
  Rotational constants: A = ************  B =  14172.70082  C =  14172.70082 [MHz]
  Nuclear repulsion =   53.729511057179494

  Charge       = 0
  Multiplicity = 6
  Electrons    = 27
  Nalpha       = 16
  Nbeta        = 11

  ==> Algorithm <==

  SCF Algorithm Type is DF.
  DIIS enabled.
  MOM disabled.
  Fractional occupation disabled.
  Guess Type is READ.
  Energy threshold   = 1.00e-08
  Density threshold  = 1.00e-08
  Integral threshold = 1.00e-12

  ==> Primary Basis <==

  Basis Set: CC-PVDZ
    Blend: CC-PVDZ
    Number of shells: 14
    Number of basis functions: 32
    Number of Cartesian functions: 34
    Spherical Harmonics?: true
    Max angular momentum: 2

  ==> DFT Potential <==

   => LibXC <=

    Version 6.2.2
    S. Lehtola, C. Steigemann, M. J.T. Oliveira, and M. A.L. Marques.,  SoftwareX 7, 1–5 (2018) (10.1016/j.softx.2017.11.002)

   => Composite Functional: B3LYP <= 

    B3LYP Hyb-GGA Exchange-Correlation Functional

    P. J. Stephens, F. J. Devlin, C. F. Chabalowski, and M. J. Frisch.,  J. Phys. Chem. 98, 11623 (1994) (10.1021/j100096a001)

    Deriv               =              1
    GGA                 =           TRUE
    Meta                =          FALSE

    Exchange Hybrid     =           TRUE
    MP2 Hybrid          =          FALSE

   => Exchange Functionals <=

    0.0800   Slater exchange
    0.7200         Becke 88

   => Exact (HF) Exchange <=

    0.2000               HF 

   => Correlation Functionals <=

    0.1900   Vosko, Wilk & Nusair (VWN5_RPA)
    0.8100   Lee, Yang & Parr

   => LibXC Density Thresholds  <==

    XC_HYB_GGA_XC_B3LYP:  1.00E-15 

   => Molecular Quadrature <=

    Radial Scheme          =       TREUTLER
    Pruning Scheme         =           NONE
    Nuclear Scheme         =       TREUTLER

    Blocking Scheme        =         OCTREE
    BS radius alpha        =              1
    Pruning alpha          =              1
    Radial Points          =             75
    Spherical Points       =            302
    Total Points           =          41851
    Total Blocks           =            372
    Max Points             =            256
    Max Functions          =             32
    Weights Tolerance      =       1.00E-15

   => Loading Basis Set <=

    Name: (CC-PVDZ AUX)
    Role: JKFIT
    Keyword: DF_BASIS_SCF
    atoms 1 entry NE         line   321 file /Users/joseantoniorodriguesromero/anaconda3/share/psi4/basis/cc-pvdz-jkfit.gbs 
    atoms 2 entry CL         line   667 file /Users/joseantoniorodriguesromero/anaconda3/share/psi4/basis/cc-pvdz-jkfit.gbs 

   => Loading Basis Set <=

    Name: CC-PVDZ
    Role: ORBITAL
    Keyword: BASIS
    atoms 1 entry NE         line   258 file /Users/joseantoniorodriguesromero/anaconda3/share/psi4/basis/cc-pvdz.gbs 
    atoms 2 entry CL         line   658 file /Users/joseantoniorodriguesromero/anaconda3/share/psi4/basis/cc-pvdz.gbs 

  Reading orbitals from file /tmp/sextet_NeCl.default.69195.180.npy, no projection.

  ==> Integral Setup <==

  DFHelper Memory: AOs need 0.002 GiB; user supplied 0.329 GiB. 
  Using in-core AOs.

  ==> MemDFJK: Density-Fitted J/K Matrices <==

    J tasked:                   Yes
    K tasked:                   Yes
    wK tasked:                   No
    OpenMP threads:               1
    Memory [MiB]:               337
    Algorithm:                 Core
    Schwarz Cutoff:           1E-12
    Mask sparsity (%):       0.0000
    Fitting Condition:        1E-10

   => Auxiliary Basis Set <=

  Basis Set: (CC-PVDZ AUX)
    Blend: CC-PVDZ-JKFIT
    Number of shells: 60
    Number of basis functions: 182
    Number of Cartesian functions: 211
    Spherical Harmonics?: true
    Max angular momentum: 3

  Cached 100.0% of DFT collocation blocks in 0.037 [GiB].

  Minimum eigenvalue in the overlap matrix is 7.0899324838E-02.
  Reciprocal condition number of the overlap matrix is 2.9586127917E-02.
    Using symmetric orthogonalization.

  ==> Pre-Iterations <==

  SCF Guess: Orbitals guess was supplied from a previous computation.

   -------------------------------------------------------
    Irrep   Nso     Nmo     Nalpha   Nbeta   Ndocc  Nsocc
   -------------------------------------------------------
     A1        16      16       8       7       7       1
     A2         2       2       0       0       0       0
     B1         7       7       4       2       2       2
     B2         7       7       4       2       2       2
   -------------------------------------------------------
    Total      32      32      16      11      11       5
   -------------------------------------------------------

  ==> Iterations <==

                           Total Energy        Delta E     RMS |[F,P]|

   @DF-UKS iter   0:  -587.46398896193000   -5.87464e+02   3.21139e-02 
   @DF-UKS iter   1:  -587.47997368966458   -1.59847e-02   2.49062e-03 ADIIS/DIIS
   @DF-UKS iter   2:  -587.48082503638591   -8.51347e-04   2.36315e-03 ADIIS/DIIS/DAMP=1%
   @DF-UKS iter   3:  -587.48068353311044    1.41503e-04   4.86159e-04 ADIIS/DIIS/DAMP=1%
   @DF-UKS iter   4:  -587.48184372095318   -1.16019e-03   1.09332e-04 ADIIS/DIIS/DAMP=1%
   @DF-UKS iter   5:  -587.48159209540279    2.51626e-04   5.30830e-05 DIIS/DAMP=1%
   @DF-UKS iter   6:  -587.48159148656623    6.08837e-07   1.23904e-05 DIIS/DAMP=1%
   @DF-UKS iter   7:  -587.48159800415272   -6.51759e-06   2.51142e-06 DIIS/DAMP=1%
   @DF-UKS iter   8:  -587.48159225449899    5.74965e-06   2.62495e-07 DIIS/DAMP=1%
   @DF-UKS iter   9:  -587.48159252542177   -2.70923e-07   3.53434e-08 DIIS/DAMP=1%
   @DF-UKS iter  10:  -587.48159264024503   -1.14823e-07   4.38191e-09 DIIS/DAMP=1%
   @DF-UKS iter  11:  -587.48159263476157    5.48346e-09   4.74007e-10 DIIS/DAMP=1%
  Energy and wave function converged.


  ==> Post-Iterations <==

   Electrons on quadrature grid:
      Nalpha   =   15.9999898373 ; deviation = -1.016e-05
      Nbeta    =   10.9999900380 ; deviation = -9.962e-06
      Ntotal   =   26.9999798752 ; deviation = -2.012e-05 

   @Spin Contamination Metric:   1.236013716E-03
   @S^2 Expected:                8.750000000E+00
   @S^2 Observed:                8.751236014E+00
   @S   Expected:                2.500000000E+00
   @S   Observed:                2.500000000E+00

    Orbital Energies [Eh]
    ---------------------

    Alpha Occupied:                                                       

       1A1  -101.623111     2A1   -31.167483     3A1    -9.579644  
       4A1    -7.341243     1B1    -7.339344     1B2    -7.339344  
       5A1    -1.661460     6A1    -1.014625     7A1    -0.774634  
       2B2    -0.744383     2B1    -0.744383     3B1    -0.489887  
       3B2    -0.489887     8A1    -0.392192     4B2     0.356156  
       4B1     0.356156  

    Alpha Virtual:                                                        

       9A1     0.393055    10A1     0.471271     5B2     0.530118  
       5B1     0.530118    11A1     0.557496     1A2     0.557497  
      12A1     0.694921     6B2     1.305304     6B1     1.305304  
      13A1     1.356710    14A1     2.285079     7B1     4.523020  
       7B2     4.523020     2A2     4.529485    15A1     4.529566  
      16A1     4.624941  

    Beta Occupied:                                                        

       1A1  -101.589065     2A1   -31.156702     3A1    -9.546707  
       4A1    -7.303769     1B1    -7.284384     1B2    -7.284384  
       5A1    -1.637831     6A1    -0.878563     2B1    -0.725964  
       2B2    -0.725964     7A1    -0.684821  

    Beta Virtual:                                                         

       3B2    -0.260659     3B1    -0.260659     8A1    -0.195328  
       9A1     0.472543     4B2     0.538118     4B1     0.538118  
      10A1     0.573714     5B2     0.653665     5B1     0.653665  
      11A1     0.703381     1A2     0.703382    12A1     0.807570  
       6B2     1.321337     6B1     1.321337    13A1     1.374968  
      14A1     2.315383     2A2     4.539836    15A1     4.539916  
       7B1     4.542670     7B2     4.542670    16A1     4.648958  

    Final Occupation by Irrep:
             A1    A2    B1    B2 
    DOCC [     7,    0,    2,    2 ]
    SOCC [     1,    0,    2,    2 ]
    NA   [     8,    0,    4,    4 ]
    NB   [     7,    0,    2,    2 ]

  @DF-UKS Final Energy:  -587.48159263476157

   => Energetics <=

    Nuclear Repulsion Energy =             53.7295110571794936
    One-Electron Energy =                -920.2119642922124285
    Two-Electron Energy =                 311.8752149496077095
    DFT Exchange-Correlation Energy =     -32.8743543493362580
    Empirical Dispersion Energy =           0.0000000000000000
    VV10 Nonlocal Energy =                  0.0000000000000000
    Total Energy =                       -587.4815926347614550

  UHF NO Occupations:
  HONO-2 :    4 B1 1.0000000
  HONO-1 :    4 B2 1.0000000
  HONO-0 :    8 A1 1.0000000
  LUNO+0 :    9 A1 0.0004431
  LUNO+1 :   10 A1 0.0001180
  LUNO+2 :    5 B2 0.0000258
  LUNO+3 :    5 B1 0.0000258


Computation Completed


Properties will be evaluated at   0.000000,   0.000000,   0.000000 [a0]

Properties computed using the SCF density matrix


 Multipole Moments:

 ------------------------------------------------------------------------------------
     Multipole            Electronic (a.u.)      Nuclear  (a.u.)        Total (a.u.)
 ------------------------------------------------------------------------------------

 L = 1.  Multiply by 2.5417464519 to convert [e a0] to [Debye]
 Dipole X            :          0.0000000            0.0000000            0.0000000
 Dipole Y            :          0.0000000            0.0000000            0.0000000
 Dipole Z            :          0.4090400            0.5651449            0.9741849
 Magnitude           :                                                    0.9741849

 ------------------------------------------------------------------------------------

*** tstop() called on Joses-MacBook-Pro-2.local at Wed Jul 16 19:37:55 2025
Module time:
	user time   =       4.18 seconds =       0.07 minutes
	system time =       4.13 seconds =       0.07 minutes
	total time  =          1 seconds =       0.02 minutes
Total time:
	user time   =      21.35 seconds =       0.36 minutes
	system time =      20.61 seconds =       0.34 minutes
	total time  =          4 seconds =       0.07 minutes

*** tstart() called on Joses-MacBook-Pro-2.local
*** at Wed Jul 16 19:37:55 2025


         ------------------------------------------------------------
                                   SCF GRAD                          
                          Rob Parrish, Justin Turney,                
                       Andy Simmonett, and Alex Sokolov              
         ------------------------------------------------------------

  ==> Geometry <==

    Molecular point group: c2v
    Full point group: C_inf_v

    Geometry (in Angstrom), charge = 0, multiplicity = 6:

       Center              X                  Y                   Z               Mass       
    ------------   -----------------  -----------------  -----------------  -----------------
         NE           0.000000000000     0.000000000000     1.065274690849    19.992440176200
         CL           0.000000000000     0.000000000000    -0.609040299998    34.968852682000

  Nuclear repulsion =   53.729511057179494

  ==> Basis Set <==

  Basis Set: CC-PVDZ
    Blend: CC-PVDZ
    Number of shells: 14
    Number of basis functions: 32
    Number of Cartesian functions: 34
    Spherical Harmonics?: true
    Max angular momentum: 2

  ==> DFJKGrad: Density-Fitted SCF Gradients <==

    Gradient:                    1
    J tasked:                  Yes
    K tasked:                  Yes
    wK tasked:                  No
    OpenMP threads:              1
    Integrals threads:           1
    Memory [MiB]:              375
    Schwarz Cutoff:          1E-12
    Fitting Condition:       1E-10

   => Auxiliary Basis Set <=

  Basis Set: (CC-PVDZ AUX)
    Blend: CC-PVDZ-JKFIT
    Number of shells: 60
    Number of basis functions: 182
    Number of Cartesian functions: 211
    Spherical Harmonics?: true
    Max angular momentum: 3

  ==> DFT Potential <==

   => LibXC <=

    Version 6.2.2
    S. Lehtola, C. Steigemann, M. J.T. Oliveira, and M. A.L. Marques.,  SoftwareX 7, 1–5 (2018) (10.1016/j.softx.2017.11.002)

   => Composite Functional: B3LYP <= 

    B3LYP Hyb-GGA Exchange-Correlation Functional

    P. J. Stephens, F. J. Devlin, C. F. Chabalowski, and M. J. Frisch.,  J. Phys. Chem. 98, 11623 (1994) (10.1021/j100096a001)

    Deriv               =              1
    GGA                 =           TRUE
    Meta                =          FALSE

    Exchange Hybrid     =           TRUE
    MP2 Hybrid          =          FALSE

   => Exchange Functionals <=

    0.0800   Slater exchange
    0.7200         Becke 88

   => Exact (HF) Exchange <=

    0.2000               HF 

   => Correlation Functionals <=

    0.1900   Vosko, Wilk & Nusair (VWN5_RPA)
    0.8100   Lee, Yang & Parr

   => LibXC Density Thresholds  <==

    XC_HYB_GGA_XC_B3LYP:  1.00E-15 

   => Molecular Quadrature <=

    Radial Scheme          =       TREUTLER
    Pruning Scheme         =           NONE
    Nuclear Scheme         =       TREUTLER

    Blocking Scheme        =         OCTREE
    BS radius alpha        =              1
    Pruning alpha          =              1
    Radial Points          =             75
    Spherical Points       =            302
    Total Points           =          41851
    Total Blocks           =            372
    Max Points             =            256
    Max Functions          =             32
    Weights Tolerance      =       1.00E-15


  -Total Gradient:
     Atom            X                  Y                   Z
    ------   -----------------  -----------------  -----------------
       1        0.000000000000     0.000000000000    -0.205123915130
       2       -0.000000000000    -0.000000000000     0.205034846811


*** tstop() called on Joses-MacBook-Pro-2.local at Wed Jul 16 19:37:55 2025
Module time:
	user time   =       0.88 seconds =       0.01 minutes
	system time =       1.41 seconds =       0.02 minutes
	total time  =          0 seconds =       0.00 minutes
Total time:
	user time   =      22.23 seconds =       0.37 minutes
	system time =      22.02 seconds =       0.37 minutes
	total time  =          4 seconds =       0.07 minutes

    			-----------------------------------------

    			 OPTKING 3.0: for geometry optimizations 

    			     By R.A. King, Bethel University     

    			        with contributions from          

    			    A.V. Copan, J. Cayton, A. Heide      

    			-----------------------------------------

    
	                            ===> Fragment 1 <== 

	 Z (Atomic Numbers)          Masses                          Geom                  
	      10.000000            19.992440          0.00000000  0.00000000  2.01307741   
	      17.000000            34.968853          0.00000000  0.00000000 -1.15091937   

	 - Coordinate -           - BOHR/RAD -       - ANG/DEG -
	 R(1,2)           =         3.163997           1.674315


	        --- Internal Coordinate Step in ANG or DEG, aJ/ANG or AJ/DEG ---
	-------------------------------------------------------------------------------
	           Coordinate      Previous         Force          Change          New 
	           ----------      --------        ------          ------        ------
	               R(1,2)       1.67431        1.68959        0.17788       1.85220
	-------------------------------------------------------------------------------

	                                 ==> Convergence Check <==                                  
    
	Measures of convergence in internal coordinates in au.
    
	Criteria marked as inactive (o), active & met (*), and active & unmet ( ).

	----------------------------------------------------------------------------------------------
	   Step    Total Energy     Delta E     Max Force     RMS Force      Max Disp      RMS Disp   
	----------------------------------------------------------------------------------------------
	  Convergence Criteria     1.00e-06 *    3.00e-04 *             o    1.20e-03 *             o
	----------------------------------------------------------------------------------------------
	     4    -587.48159263   -9.23e-02      2.05e-01      2.05e-01 o    3.36e-01      3.36e-01 o  ~
	----------------------------------------------------------------------------------------------

Next Geometry in Ang 
	Fragment 1 (Ang)

	   Ne   0.0000000000   0.0000000000   1.1542159706
	   Cl   0.0000000000   0.0000000000  -0.6979815798


    Structure for next step:
    Molecular point group: c2v
    Full point group: C_inf_v

    Geometry (in Angstrom), charge = 0, multiplicity = 6:

    NE           0.000000000000     0.000000000000     1.178451595842
    CL           0.000000000000     0.000000000000    -0.673745954569


Scratch directory: /tmp/
gradient() will perform analytic gradient computation.
   => Libint2 <=

    Primary   basis highest AM E, G, H:  6, 6, 3
    Auxiliary basis highest AM E, G, H:  7, 7, 4
    Onebody   basis highest AM E, G, H:  -, -, -
    Solid Harmonics ordering:            Gaussian

*** tstart() called on Joses-MacBook-Pro-2.local
*** at Wed Jul 16 19:37:55 2025

   => Loading Basis Set <=

    Name: CC-PVDZ
    Role: ORBITAL
    Keyword: BASIS
    atoms 1 entry NE         line   258 file /Users/joseantoniorodriguesromero/anaconda3/share/psi4/basis/cc-pvdz.gbs 
    atoms 2 entry CL         line   658 file /Users/joseantoniorodriguesromero/anaconda3/share/psi4/basis/cc-pvdz.gbs 


         ---------------------------------------------------------
                                   SCF
               by Justin Turney, Rob Parrish, Andy Simmonett
                          and Daniel G. A. Smith
                              UKS Reference
                        1 Threads,    500 MiB Core
         ---------------------------------------------------------

  ==> Geometry <==

    Molecular point group: c2v
    Full point group: C_inf_v

    Geometry (in Angstrom), charge = 0, multiplicity = 6:

       Center              X                  Y                   Z               Mass       
    ------------   -----------------  -----------------  -----------------  -----------------
         NE           0.000000000000     0.000000000000     1.178451595842    19.992440176200
         CL           0.000000000000     0.000000000000    -0.673745954569    34.968852682000

  Running in c2v symmetry.

  Rotational constants: A = ************  B =      0.38631  C =      0.38631 [cm^-1]
  Rotational constants: A = ************  B =  11581.16742  C =  11581.16742 [MHz]
  Nuclear repulsion =   48.569401138613664

  Charge       = 0
  Multiplicity = 6
  Electrons    = 27
  Nalpha       = 16
  Nbeta        = 11

  ==> Algorithm <==

  SCF Algorithm Type is DF.
  DIIS enabled.
  MOM disabled.
  Fractional occupation disabled.
  Guess Type is READ.
  Energy threshold   = 1.00e-08
  Density threshold  = 1.00e-08
  Integral threshold = 1.00e-12

  ==> Primary Basis <==

  Basis Set: CC-PVDZ
    Blend: CC-PVDZ
    Number of shells: 14
    Number of basis functions: 32
    Number of Cartesian functions: 34
    Spherical Harmonics?: true
    Max angular momentum: 2

  ==> DFT Potential <==

   => LibXC <=

    Version 6.2.2
    S. Lehtola, C. Steigemann, M. J.T. Oliveira, and M. A.L. Marques.,  SoftwareX 7, 1–5 (2018) (10.1016/j.softx.2017.11.002)

   => Composite Functional: B3LYP <= 

    B3LYP Hyb-GGA Exchange-Correlation Functional

[...]
	               R(1,2)       2.60681        0.00070        0.00296       2.60977
	-------------------------------------------------------------------------------

	                                 ==> Convergence Check <==                                  
    
	Measures of convergence in internal coordinates in au.
    
	Criteria marked as inactive (o), active & met (*), and active & unmet ( ).

	----------------------------------------------------------------------------------------------
	   Step    Total Energy     Delta E     Max Force     RMS Force      Max Disp      RMS Disp   
	----------------------------------------------------------------------------------------------
	  Convergence Criteria     1.00e-06 *    3.00e-04 *             o    1.20e-03 *             o
	----------------------------------------------------------------------------------------------
	    14    -587.58131500   -1.97e-06      8.52e-05 *    8.52e-05 o    5.60e-03      5.60e-03 o  ~
	----------------------------------------------------------------------------------------------

Next Geometry in Ang 
	Fragment 1 (Ang)

	   Ne   0.0000000000   0.0000000000   1.6600487507
	   Cl   0.0000000000   0.0000000000  -0.9497199470


    Structure for next step:
    Molecular point group: c2v
    Full point group: C_inf_v

    Geometry (in Angstrom), charge = 0, multiplicity = 6:

    NE           0.000000000000     0.000000000000     1.660452518052
    CL           0.000000000000     0.000000000000    -0.949316179586


Scratch directory: /tmp/
gradient() will perform analytic gradient computation.
   => Libint2 <=

    Primary   basis highest AM E, G, H:  6, 6, 3
    Auxiliary basis highest AM E, G, H:  7, 7, 4
    Onebody   basis highest AM E, G, H:  -, -, -
    Solid Harmonics ordering:            Gaussian

*** tstart() called on Joses-MacBook-Pro-2.local
*** at Wed Jul 16 19:38:04 2025

   => Loading Basis Set <=

    Name: CC-PVDZ
    Role: ORBITAL
    Keyword: BASIS
    atoms 1 entry NE         line   258 file /Users/joseantoniorodriguesromero/anaconda3/share/psi4/basis/cc-pvdz.gbs 
    atoms 2 entry CL         line   658 file /Users/joseantoniorodriguesromero/anaconda3/share/psi4/basis/cc-pvdz.gbs 


         ---------------------------------------------------------
                                   SCF
               by Justin Turney, Rob Parrish, Andy Simmonett
                          and Daniel G. A. Smith
                              UKS Reference
                        1 Threads,    500 MiB Core
         ---------------------------------------------------------

  ==> Geometry <==

    Molecular point group: c2v
    Full point group: C_inf_v

    Geometry (in Angstrom), charge = 0, multiplicity = 6:

       Center              X                  Y                   Z               Mass       
    ------------   -----------------  -----------------  -----------------  -----------------
         NE           0.000000000000     0.000000000000     1.660452518052    19.992440176200
         CL           0.000000000000     0.000000000000    -0.949316179586    34.968852682000

  Running in c2v symmetry.

  Rotational constants: A = ************  B =      0.19458  C =      0.19458 [cm^-1]
  Rotational constants: A = ************  B =   5833.41555  C =   5833.41555 [MHz]
  Nuclear repulsion =   34.470535988624810

  Charge       = 0
  Multiplicity = 6
  Electrons    = 27
  Nalpha       = 16
  Nbeta        = 11

  ==> Algorithm <==

  SCF Algorithm Type is DF.
  DIIS enabled.
  MOM disabled.
  Fractional occupation disabled.
  Guess Type is READ.
  Energy threshold   = 1.00e-08
  Density threshold  = 1.00e-08
  Integral threshold = 1.00e-12

  ==> Primary Basis <==

  Basis Set: CC-PVDZ
    Blend: CC-PVDZ
    Number of shells: 14
    Number of basis functions: 32
    Number of Cartesian functions: 34
    Spherical Harmonics?: true
    Max angular momentum: 2

  ==> DFT Potential <==

   => LibXC <=

    Version 6.2.2
    S. Lehtola, C. Steigemann, M. J.T. Oliveira, and M. A.L. Marques.,  SoftwareX 7, 1–5 (2018) (10.1016/j.softx.2017.11.002)

   => Composite Functional: B3LYP <= 

    B3LYP Hyb-GGA Exchange-Correlation Functional

    P. J. Stephens, F. J. Devlin, C. F. Chabalowski, and M. J. Frisch.,  J. Phys. Chem. 98, 11623 (1994) (10.1021/j100096a001)

    Deriv               =              1
    GGA                 =           TRUE
    Meta                =          FALSE

    Exchange Hybrid     =           TRUE
    MP2 Hybrid          =          FALSE

   => Exchange Functionals <=

    0.0800   Slater exchange
    0.7200         Becke 88

   => Exact (HF) Exchange <=

    0.2000               HF 

   => Correlation Functionals <=

    0.1900   Vosko, Wilk & Nusair (VWN5_RPA)
    0.8100   Lee, Yang & Parr

   => LibXC Density Thresholds  <==

    XC_HYB_GGA_XC_B3LYP:  1.00E-15 

   => Molecular Quadrature <=

    Radial Scheme          =       TREUTLER
    Pruning Scheme         =           NONE
    Nuclear Scheme         =       TREUTLER

    Blocking Scheme        =         OCTREE
    BS radius alpha        =              1
    Pruning alpha          =              1
    Radial Points          =             75
    Spherical Points       =            302
    Total Points           =          41972
    Total Blocks           =            379
    Max Points             =            256
    Max Functions          =             32
    Weights Tolerance      =       1.00E-15

   => Loading Basis Set <=

    Name: (CC-PVDZ AUX)
    Role: JKFIT
    Keyword: DF_BASIS_SCF
    atoms 1 entry NE         line   321 file /Users/joseantoniorodriguesromero/anaconda3/share/psi4/basis/cc-pvdz-jkfit.gbs 
    atoms 2 entry CL         line   667 file /Users/joseantoniorodriguesromero/anaconda3/share/psi4/basis/cc-pvdz-jkfit.gbs 

   => Loading Basis Set <=

    Name: CC-PVDZ
    Role: ORBITAL
    Keyword: BASIS
    atoms 1 entry NE         line   258 file /Users/joseantoniorodriguesromero/anaconda3/share/psi4/basis/cc-pvdz.gbs 
    atoms 2 entry CL         line   658 file /Users/joseantoniorodriguesromero/anaconda3/share/psi4/basis/cc-pvdz.gbs 

  Reading orbitals from file /tmp/sextet_NeCl.default.69195.180.npy, no projection.

  ==> Integral Setup <==

  DFHelper Memory: AOs need 0.002 GiB; user supplied 0.332 GiB. 
  Using in-core AOs.

  ==> MemDFJK: Density-Fitted J/K Matrices <==

    J tasked:                   Yes
    K tasked:                   Yes
    wK tasked:                   No
    OpenMP threads:               1
    Memory [MiB]:               340
    Algorithm:                 Core
    Schwarz Cutoff:           1E-12
    Mask sparsity (%):       0.0000
    Fitting Condition:        1E-10

   => Auxiliary Basis Set <=

  Basis Set: (CC-PVDZ AUX)
    Blend: CC-PVDZ-JKFIT
    Number of shells: 60
    Number of basis functions: 182
    Number of Cartesian functions: 211
    Spherical Harmonics?: true
    Max angular momentum: 3

  Cached 100.0% of DFT collocation blocks in 0.034 [GiB].

  Minimum eigenvalue in the overlap matrix is 1.0842712513E-01.
  Reciprocal condition number of the overlap matrix is 6.0403949785E-02.
    Using symmetric orthogonalization.

  ==> Pre-Iterations <==

  SCF Guess: Orbitals guess was supplied from a previous computation.

   -------------------------------------------------------
    Irrep   Nso     Nmo     Nalpha   Nbeta   Ndocc  Nsocc
   -------------------------------------------------------
     A1        16      16       8       7       7       1
     A2         2       2       0       0       0       0
     B1         7       7       4       2       2       2
     B2         7       7       4       2       2       2
   -------------------------------------------------------
    Total      32      32      16      11      11       5
   -------------------------------------------------------

  ==> Iterations <==

                           Total Energy        Delta E     RMS |[F,P]|

   @DF-UKS iter   0:  -587.58119710582957   -5.87581e+02   4.34935e-05 
   @DF-UKS iter   1:  -587.58131511201407   -1.18006e-04   1.07291e-05 DIIS
   @DF-UKS iter   2:  -587.58131511365491   -1.64084e-09   1.05198e-05 DIIS/DAMP=1%
   @DF-UKS iter   3:  -587.58131067556792    4.43809e-06   6.57509e-07 DIIS/DAMP=1%
   @DF-UKS iter   4:  -587.58131533657638   -4.66101e-06   1.88056e-07 DIIS/DAMP=1%
   @DF-UKS iter   5:  -587.58131511994009    2.16636e-07   5.43651e-08 DIIS/DAMP=1%
   @DF-UKS iter   6:  -587.58131511657780    3.36229e-09   8.55894e-09 DIIS/DAMP=1%
  Energy and wave function converged.


  ==> Post-Iterations <==

   Electrons on quadrature grid:
      Nalpha   =   15.9999963145 ; deviation = -3.685e-06
      Nbeta    =   10.9999964110 ; deviation = -3.589e-06
      Ntotal   =   26.9999927255 ; deviation = -7.274e-06 

   @Spin Contamination Metric:   1.076891055E-03
   @S^2 Expected:                8.750000000E+00
   @S^2 Observed:                8.751076891E+00
   @S   Expected:                2.500000000E+00
   @S   Observed:                2.500000000E+00

    Orbital Energies [Eh]
    ---------------------

    Alpha Occupied:                                                       

       1A1  -101.694537     2A1   -31.005809     3A1    -9.644866  
       4A1    -7.407967     1B2    -7.405106     1B1    -7.405106  
       5A1    -1.469195     6A1    -1.032807     7A1    -0.594687  
       2B2    -0.575242     2B1    -0.575242     3B2    -0.536821  
       3B1    -0.536821     8A1    -0.528446     4B1     0.329785  
       4B2     0.329785  

    Alpha Virtual:                                                        

       9A1     0.413970    10A1     0.433273    11A1     0.495832  
       5B1     0.504078     5B2     0.504078    12A1     0.519119  
       1A2     0.519120     6B2     1.335517     6B1     1.335517  
      13A1     1.413851    14A1     1.860903     7B2     4.686909  
       7B1     4.686909    15A1     4.688588     2A2     4.691054  
      16A1     4.691192  

    Beta Occupied:                                                        

       1A1  -101.659653     2A1   -31.004134     3A1    -9.611238  
       4A1    -7.368750     1B2    -7.349060     1B1    -7.349060  
       5A1    -1.465843     6A1    -0.845734     7A1    -0.577617  
       2B2    -0.572839     2B1    -0.572839  

    Beta Virtual:                                                         

       8A1    -0.328825     3B2    -0.302643     3B1    -0.302643  
       9A1     0.493275     4B1     0.508711     4B2     0.508711  
      10A1     0.541992    11A1     0.627031     5B1     0.641498  
       5B2     0.641498     1A2     0.664185    12A1     0.664187  
       6B2     1.336693     6B1     1.336693    13A1     1.421367  
      14A1     1.866753     7B2     4.690405     7B1     4.690405  
       2A2     4.692312    15A1     4.692449    16A1     4.692830  

    Final Occupation by Irrep:
             A1    A2    B1    B2 
    DOCC [     7,    0,    2,    2 ]
    SOCC [     1,    0,    2,    2 ]
    NA   [     8,    0,    4,    4 ]
    NB   [     7,    0,    2,    2 ]

  @DF-UKS Final Energy:  -587.58131511657780

   => Energetics <=

    Nuclear Repulsion Energy =             34.4705359886248104
    One-Electron Energy =                -882.6184422316478049
    Two-Electron Energy =                 293.3696340739097650
    DFT Exchange-Correlation Energy =     -32.8030429474645757
    Empirical Dispersion Energy =           0.0000000000000000
    VV10 Nonlocal Energy =                  0.0000000000000000
    Total Energy =                       -587.5813151165777981

  UHF NO Occupations:
  HONO-2 :    4 B1 1.0000000
  HONO-1 :    8 A1 1.0000000
  HONO-0 :    4 B2 1.0000000
  LUNO+0 :    9 A1 0.0005043
  LUNO+1 :   10 A1 0.0000325
  LUNO+2 :    5 B1 0.0000007
  LUNO+3 :    5 B2 0.0000007


Computation Completed


Properties will be evaluated at   0.000000,   0.000000,   0.000000 [a0]

Properties computed using the SCF density matrix


 Multipole Moments:

 ------------------------------------------------------------------------------------
     Multipole            Electronic (a.u.)      Nuclear  (a.u.)        Total (a.u.)
 ------------------------------------------------------------------------------------

 L = 1.  Multiply by 2.5417464519 to convert [e a0] to [Debye]
 Dipole X            :          0.0000000            0.0000000            0.0000000
 Dipole Y            :          0.0000000            0.0000000            0.0000000
 Dipole Z            :         -0.7352942            0.8808961            0.1456019
 Magnitude           :                                                    0.1456019

 ------------------------------------------------------------------------------------

*** tstop() called on Joses-MacBook-Pro-2.local at Wed Jul 16 19:38:05 2025
Module time:
	user time   =       2.56 seconds =       0.04 minutes
	system time =       2.51 seconds =       0.04 minutes
	total time  =          1 seconds =       0.02 minutes
Total time:
	user time   =      71.32 seconds =       1.19 minutes
	system time =      75.98 seconds =       1.27 minutes
	total time  =         14 seconds =       0.23 minutes

*** tstart() called on Joses-MacBook-Pro-2.local
*** at Wed Jul 16 19:38:05 2025


         ------------------------------------------------------------
                                   SCF GRAD                          
                          Rob Parrish, Justin Turney,                
                       Andy Simmonett, and Alex Sokolov              
         ------------------------------------------------------------

  ==> Geometry <==

    Molecular point group: c2v
    Full point group: C_inf_v

    Geometry (in Angstrom), charge = 0, multiplicity = 6:

       Center              X                  Y                   Z               Mass       
    ------------   -----------------  -----------------  -----------------  -----------------
         NE           0.000000000000     0.000000000000     1.660452518052    19.992440176200
         CL           0.000000000000     0.000000000000    -0.949316179586    34.968852682000

  Nuclear repulsion =   34.470535988624810

  ==> Basis Set <==

  Basis Set: CC-PVDZ
    Blend: CC-PVDZ
    Number of shells: 14
    Number of basis functions: 32
    Number of Cartesian functions: 34
    Spherical Harmonics?: true
    Max angular momentum: 2

  ==> DFJKGrad: Density-Fitted SCF Gradients <==

    Gradient:                    1
    J tasked:                  Yes
    K tasked:                  Yes
    wK tasked:                  No
    OpenMP threads:              1
    Integrals threads:           1
    Memory [MiB]:              375
    Schwarz Cutoff:          1E-12
    Fitting Condition:       1E-10

   => Auxiliary Basis Set <=

  Basis Set: (CC-PVDZ AUX)
    Blend: CC-PVDZ-JKFIT
    Number of shells: 60
    Number of basis functions: 182
    Number of Cartesian functions: 211
    Spherical Harmonics?: true
    Max angular momentum: 3

  ==> DFT Potential <==

   => LibXC <=

    Version 6.2.2
    S. Lehtola, C. Steigemann, M. J.T. Oliveira, and M. A.L. Marques.,  SoftwareX 7, 1–5 (2018) (10.1016/j.softx.2017.11.002)

   => Composite Functional: B3LYP <= 

    B3LYP Hyb-GGA Exchange-Correlation Functional

    P. J. Stephens, F. J. Devlin, C. F. Chabalowski, and M. J. Frisch.,  J. Phys. Chem. 98, 11623 (1994) (10.1021/j100096a001)

    Deriv               =              1
    GGA                 =           TRUE
    Meta                =          FALSE

    Exchange Hybrid     =           TRUE
    MP2 Hybrid          =          FALSE

   => Exchange Functionals <=

    0.0800   Slater exchange
    0.7200         Becke 88

   => Exact (HF) Exchange <=

    0.2000               HF 

   => Correlation Functionals <=

    0.1900   Vosko, Wilk & Nusair (VWN5_RPA)
    0.8100   Lee, Yang & Parr

   => LibXC Density Thresholds  <==

    XC_HYB_GGA_XC_B3LYP:  1.00E-15 

   => Molecular Quadrature <=

    Radial Scheme          =       TREUTLER
    Pruning Scheme         =           NONE
    Nuclear Scheme         =       TREUTLER

    Blocking Scheme        =         OCTREE
    BS radius alpha        =              1
    Pruning alpha          =              1
    Radial Points          =             75
    Spherical Points       =            302
    Total Points           =          41972
    Total Blocks           =            379
    Max Points             =            256
    Max Functions          =             32
    Weights Tolerance      =       1.00E-15


  -Total Gradient:
     Atom            X                  Y                   Z
    ------   -----------------  -----------------  -----------------
       1        0.000000000000     0.000000000000    -0.000023497071
       2        0.000000000000    -0.000000000000     0.000015168512


*** tstop() called on Joses-MacBook-Pro-2.local at Wed Jul 16 19:38:05 2025
Module time:
	user time   =       0.85 seconds =       0.01 minutes
	system time =       1.28 seconds =       0.02 minutes
	total time  =          0 seconds =       0.00 minutes
Total time:
	user time   =      72.17 seconds =       1.20 minutes
	system time =      77.27 seconds =       1.29 minutes
	total time  =         14 seconds =       0.23 minutes

    			-----------------------------------------

    			 OPTKING 3.0: for geometry optimizations 

    			     By R.A. King, Bethel University     

    			        with contributions from          

    			    A.V. Copan, J. Cayton, A. Heide      

    			-----------------------------------------

    
	                            ===> Fragment 1 <== 

	 Z (Atomic Numbers)          Masses                          Geom                  
	      10.000000            19.992440          0.00000000  0.00000000  3.13780050   
	      17.000000            34.968853          0.00000000  0.00000000 -1.79394759   

	 - Coordinate -           - BOHR/RAD -       - ANG/DEG -
	 R(1,2)           =         4.931748           2.609769


	        --- Internal Coordinate Step in ANG or DEG, aJ/ANG or AJ/DEG ---
	-------------------------------------------------------------------------------
	           Coordinate      Previous         Force          Change          New 
	           ----------      --------        ------          ------        ------
	               R(1,2)       2.60977        0.00016        0.00077       2.61054
	-------------------------------------------------------------------------------

	                                 ==> Convergence Check <==                                  
    
	Measures of convergence in internal coordinates in au.
    
	Criteria marked as inactive (o), active & met (*), and active & unmet ( ).

	----------------------------------------------------------------------------------------------
	   Step    Total Energy     Delta E     Max Force     RMS Force      Max Disp      RMS Disp   
	----------------------------------------------------------------------------------------------
	  Convergence Criteria     1.00e-06 *    3.00e-04 *             o    1.20e-03 *             o
	----------------------------------------------------------------------------------------------
	    15    -587.58131512   -1.17e-07 *    1.93e-05 *    1.93e-05 o    1.46e-03      1.46e-03 o  ~
	----------------------------------------------------------------------------------------------

Next Geometry in Ang 
	Fragment 1 (Ang)

	   Ne   0.0000000000   0.0000000000   1.6608392105
	   Cl   0.0000000000   0.0000000000  -0.9497028720


    Final optimized geometry and variables:
    Molecular point group: c2v
    Full point group: C_inf_v

    Geometry (in Angstrom), charge = 0, multiplicity = 6:

    NE           0.000000000000     0.000000000000     1.660452518052
    CL           0.000000000000     0.000000000000    -0.949316179586


    Psi4 stopped on: Wednesday, 16 July 2025 07:38PM
    Psi4 wall time for execution: 0:00:14.94

*** Psi4 exiting successfully. Buy a developer a beer!
