
    -----------------------------------------------------------------------
          Psi4: An Open-Source Ab Initio Electronic Structure Package
                               Psi4 1.9.1 release

                         Git: Rev {} zzzzzzz 


    D. G. A. Smith, L. A. Burns, A. C. Simmonett, R. M. Parrish,
    M. C. Schieber, R. Galvelis, P. Kraus, H. Kruse, R. Di Remigio,
    A. Alenaizan, A. M. James, S. Lehtola, J. P. Misiewicz, M. Scheurer,
    R. A. Shaw, J. B. Schriber, Y. Xie, Z. L. Glick, D. A. Sirianni,
    J. S. O'Brien, J. M. Waldrop, A. Kumar, E. G. Hohenstein,
    B. P. Pritchard, B. R. Brooks, H. F. Schaefer III, A. Yu. Sokolov,
    K. Patkowski, A. E. DePrince III, U. Bozkaya, R. A. King,
    F. A. Evangelista, J. M. Turney, T. D. Crawford, C. D. Sherrill,
    J. Chem. Phys. 152(18) 184108 (2020). https://doi.org/10.1063/5.0006002

                            Additional Code Authors
    E. T. Seidl, C. L. Janssen, E. F. Valeev, M. L. Leininger,
    J. F. Gonthier, R. M. Richard, H. R. McAlexander, M. Saitow, X. Wang,
    P. Verma, M. H. Lechner, A. Jiang, S. Behnle, A. G. Heide,
    M. F. Herbst, and D. L. Poole

             Previous Authors, Complete List of Code Contributors,
                       and Citations for Specific Modules
    https://github.com/psi4/psi4/blob/master/codemeta.json
    https://github.com/psi4/psi4/graphs/contributors
    http://psicode.org/psi4manual/master/introduction.html#citing-psifour

    -----------------------------------------------------------------------


    Psi4 started on: Wednesday, 16 July 2025 07:05PM

    Process ID: 68858
    Host:       Joses-MacBook-Pro-2.local
    PSIDATADIR: /Users/joseantoniorodriguesromero/anaconda3/share/psi4
    Memory:     500.0 MiB
    Threads:    1
    
  ==> Input File <==

--------------------------------------------------------------------------
molecule { 
0 6
C   0.00000        0.60000        0.00000
Cl   0.00000       -0.60000        0.00000
}

set { 
basis              cc-pvdz
reference          uks
maxiter            500
geom_maxiter       500
DAMPING_PERCENTAGE 1
guess              SAP
}

optimize('b3lyp')
--------------------------------------------------------------------------

Scratch directory: /tmp/
gradient() will perform analytic gradient computation.
   => Libint2 <=

    Primary   basis highest AM E, G, H:  6, 6, 3
    Auxiliary basis highest AM E, G, H:  7, 7, 4
    Onebody   basis highest AM E, G, H:  -, -, -
    Solid Harmonics ordering:            Gaussian

*** tstart() called on Joses-MacBook-Pro-2.local
*** at Wed Jul 16 19:05:57 2025

   => Loading Basis Set <=

    Name: CC-PVDZ
    Role: ORBITAL
    Keyword: BASIS
    atoms 1 entry C          line   138 file /Users/joseantoniorodriguesromero/anaconda3/share/psi4/basis/cc-pvdz.gbs 
    atoms 2 entry CL         line   658 file /Users/joseantoniorodriguesromero/anaconda3/share/psi4/basis/cc-pvdz.gbs 


         ---------------------------------------------------------
                                   SCF
               by Justin Turney, Rob Parrish, Andy Simmonett
                          and Daniel G. A. Smith
                              UKS Reference
                        1 Threads,    500 MiB Core
         ---------------------------------------------------------

  ==> Geometry <==

    Molecular point group: c2v
    Full point group: C_inf_v

    Geometry (in Angstrom), charge = 0, multiplicity = 6:

       Center              X                  Y                   Z               Mass       
    ------------   -----------------  -----------------  -----------------  -----------------
         C            0.000000000000     0.000000000000     0.893413843904    12.000000000000
         CL           0.000000000000     0.000000000000    -0.306586156096    34.968852682000

  Running in c2v symmetry.

  Rotational constants: A = ************  B =      1.31033  C =      1.31033 [cm^-1]
  Rotational constants: A = ************  B =  39282.76324  C =  39282.76324 [MHz]
  Nuclear repulsion =   44.980062906950003

  Charge       = 0
  Multiplicity = 6
  Electrons    = 23
  Nalpha       = 14
  Nbeta        = 9

  ==> Algorithm <==

  SCF Algorithm Type is DF.
  DIIS enabled.
  MOM disabled.
  Fractional occupation disabled.
  Guess Type is SAP.
  Energy threshold   = 1.00e-08
  Density threshold  = 1.00e-08
  Integral threshold = 1.00e-12

  ==> Primary Basis <==

  Basis Set: CC-PVDZ
    Blend: CC-PVDZ
    Number of shells: 14
    Number of basis functions: 32
    Number of Cartesian functions: 34
    Spherical Harmonics?: true
    Max angular momentum: 2

  ==> DFT Potential <==

   => LibXC <=

    Version 6.2.2
    S. Lehtola, C. Steigemann, M. J.T. Oliveira, and M. A.L. Marques.,  SoftwareX 7, 1–5 (2018) (10.1016/j.softx.2017.11.002)

   => Composite Functional: B3LYP <= 

    B3LYP Hyb-GGA Exchange-Correlation Functional

    P. J. Stephens, F. J. Devlin, C. F. Chabalowski, and M. J. Frisch.,  J. Phys. Chem. 98, 11623 (1994) (10.1021/j100096a001)

    Deriv               =              1
    GGA                 =           TRUE
    Meta                =          FALSE

    Exchange Hybrid     =           TRUE
    MP2 Hybrid          =          FALSE

   => Exchange Functionals <=

    0.0800   Slater exchange
    0.7200         Becke 88

   => Exact (HF) Exchange <=

    0.2000               HF 

   => Correlation Functionals <=

    0.1900   Vosko, Wilk & Nusair (VWN5_RPA)
    0.8100   Lee, Yang & Parr

   => LibXC Density Thresholds  <==

    XC_HYB_GGA_XC_B3LYP:  1.00E-15 

   => Molecular Quadrature <=

    Radial Scheme          =       TREUTLER
    Pruning Scheme         =           NONE
    Nuclear Scheme         =       TREUTLER

    Blocking Scheme        =         OCTREE
    BS radius alpha        =              1
    Pruning alpha          =              1
    Radial Points          =             75
    Spherical Points       =            302
    Total Points           =          41025
    Total Blocks           =            368
    Max Points             =            256
    Max Functions          =             32
    Weights Tolerance      =       1.00E-15

   => Loading Basis Set <=

    Name: (CC-PVDZ AUX)
    Role: JKFIT
    Keyword: DF_BASIS_SCF
    atoms 1 entry C          line   121 file /Users/joseantoniorodriguesromero/anaconda3/share/psi4/basis/cc-pvdz-jkfit.gbs 
    atoms 2 entry CL         line   667 file /Users/joseantoniorodriguesromero/anaconda3/share/psi4/basis/cc-pvdz-jkfit.gbs 

  ==> Integral Setup <==

  DFHelper Memory: AOs need 0.002 GiB; user supplied 0.328 GiB. 
  Using in-core AOs.

  ==> MemDFJK: Density-Fitted J/K Matrices <==

    J tasked:                   Yes
    K tasked:                   Yes
    wK tasked:                   No
    OpenMP threads:               1
    Memory [MiB]:               336
    Algorithm:                 Core
    Schwarz Cutoff:           1E-12
    Mask sparsity (%):       0.0000
    Fitting Condition:        1E-10

   => Auxiliary Basis Set <=

  Basis Set: (CC-PVDZ AUX)
    Blend: CC-PVDZ-JKFIT
    Number of shells: 60
    Number of basis functions: 182
    Number of Cartesian functions: 211
    Spherical Harmonics?: true
    Max angular momentum: 3

  Cached 100.0% of DFT collocation blocks in 0.038 [GiB].

  Minimum eigenvalue in the overlap matrix is 6.0566684810E-03.
  Reciprocal condition number of the overlap matrix is 1.9252325080E-03.
    Using symmetric orthogonalization.

  ==> Pre-Iterations <==

  SCF Guess: Superposition of Atomic Potentials (doi:10.1021/acs.jctc.8b01089).

  ==> SAP guess <==

   => Molecular Quadrature <=

    Radial Scheme          =       TREUTLER
    Pruning Scheme         =           NONE
    Nuclear Scheme         =       TREUTLER

    Blocking Scheme        =         OCTREE
    BS radius alpha        =              1
    Pruning alpha          =              1
    Radial Points          =             75
    Spherical Points       =            302
    Total Points           =          41025
    Total Blocks           =            368
    Max Points             =            256
    Max Functions          =             32
    Weights Tolerance      =       1.00E-15

   -------------------------------------------------------
    Irrep   Nso     Nmo     Nalpha   Nbeta   Ndocc  Nsocc
   -------------------------------------------------------
     A1        16      16       8       5       5       3
     A2         2       2       0       0       0       0
     B1         7       7       3       2       2       1
     B2         7       7       3       2       2       1
   -------------------------------------------------------
    Total      32      32      14       9       9       5
   -------------------------------------------------------

  ==> Iterations <==

                           Total Energy        Delta E     RMS |[F,P]|

    Occupation by irrep:
             A1    A2    B1    B2 
    DOCC [     6,    0,    2,    1 ]
    SOCC [     2,    0,    1,    2 ]
    NA   [     8,    0,    3,    3 ]
    NB   [     6,    0,    2,    1 ]

   @DF-UKS iter   1:  -496.64701897100997   -4.96647e+02   4.72992e-02 DIIS/ADIIS
   @DF-UKS iter   2:  -496.55103286114399    9.59861e-02   5.45388e-02 DIIS/ADIIS/DAMP=1%
   @DF-UKS iter   3:  -497.12912297067601   -5.78090e-01   6.90946e-03 DIIS/ADIIS/DAMP=1%
   @DF-UKS iter   4:  -497.15772598688932   -2.86030e-02   1.26800e-03 DIIS/ADIIS/DAMP=1%
   @DF-UKS iter   5:  -497.15802552368802   -2.99537e-04   3.55128e-04 DIIS/ADIIS/DAMP=1%
   @DF-UKS iter   6:  -497.15931056562556   -1.28504e-03   1.12076e-04 DIIS/ADIIS/DAMP=1%
   @DF-UKS iter   7:  -497.15887089409409    4.39672e-04   3.03126e-05 DIIS/DAMP=1%
   @DF-UKS iter   8:  -497.15895811718133   -8.72231e-05   1.34940e-05 DIIS/DAMP=1%
   @DF-UKS iter   9:  -497.15894303405975    1.50831e-05   1.21666e-06 DIIS/DAMP=1%
   @DF-UKS iter  10:  -497.15894406197691   -1.02792e-06   2.39305e-07 DIIS/DAMP=1%
   @DF-UKS iter  11:  -497.15894360262951    4.59347e-07   1.81757e-08 DIIS/DAMP=1%
   @DF-UKS iter  12:  -497.15894368327605   -8.06465e-08   2.67916e-09 DIIS/DAMP=1%
   @DF-UKS iter  13:  -497.15894368412557   -8.49525e-10   3.64653e-10 DIIS/DAMP=1%
  Energy and wave function converged.


  ==> Post-Iterations <==

   Electrons on quadrature grid:
      Nalpha   =   13.9999994025 ; deviation = -5.975e-07
      Nbeta    =    8.9999993358 ; deviation = -6.642e-07
      Ntotal   =   22.9999987383 ; deviation = -1.262e-06 

   @Spin Contamination Metric:   3.805052576E-03
   @S^2 Expected:                8.750000000E+00
   @S^2 Observed:                8.753805053E+00
   @S   Expected:                2.500000000E+00
   @S   Observed:                2.500000000E+00

    Orbital Energies [Eh]
    ---------------------

    Alpha Occupied:                                                       

       1A1  -101.717966     2A1   -10.255510     3A1    -9.631087  
       1B2    -7.396849     4A1    -7.390253     1B1    -7.379075  
       5A1    -1.172150     6A1    -0.651054     2B2    -0.610171  
       2B1    -0.565939     7A1    -0.456716     3B2    -0.222566  
       3B1    -0.194251     8A1     0.125569  

    Alpha Virtual:                                                        

       9A1     0.236117     4B2     0.325455     4B1     0.344336  
      10A1     0.462389     5B2     0.520827     1A2     0.525432  
      11A1     0.526256     5B1     0.540627    12A1     0.603799  
       6B2     0.713839     6B1     0.742898    13A1     1.071423  
       2A2     1.117891    14A1     1.118596    15A1     1.399961  
       7B2     1.597495     7B1     1.620542    16A1     2.173218  

    Beta Occupied:                                                        

       1A1  -101.707319     2A1   -10.204881     3A1    -9.619893  
       4A1    -7.382116     1B2    -7.370138     1B1    -7.366736  
       5A1    -1.074724     6A1    -0.539255     2B1    -0.486676  

    Beta Virtual:                                                         

       2B2    -0.390861     7A1    -0.193235     3B1    -0.019939  
       3B2    -0.005037     8A1     0.266737     9A1     0.287588  
       4B1     0.381912     4B2     0.387458    10A1     0.563211  
       5B1     0.601233     5B2     0.606693     1A2     0.622346  
      11A1     0.626010    12A1     0.694899     6B1     0.827315  
       6B2     0.836474    13A1     1.133875     2A2     1.239583  
      14A1     1.244281    15A1     1.515721     7B1     1.720040  
       7B2     1.730393    16A1     2.266406  

    Final Occupation by Irrep:
             A1    A2    B1    B2 
    DOCC [     6,    0,    2,    1 ]
    SOCC [     2,    0,    1,    2 ]
    NA   [     8,    0,    3,    3 ]
    NB   [     6,    0,    2,    1 ]

  @DF-UKS Final Energy:  -497.15894368412557

   => Energetics <=

    Nuclear Repulsion Energy =             44.9800629069500033
    One-Electron Energy =                -771.5654964344975042
    Two-Electron Energy =                 256.7503297184388202
    DFT Exchange-Correlation Energy =     -27.3238398750169118
    Empirical Dispersion Energy =           0.0000000000000000
    VV10 Nonlocal Energy =                  0.0000000000000000
    Total Energy =                       -497.1589436841255747

  UHF NO Occupations:
  HONO-2 :    2 B2 1.0000000
  HONO-1 :    8 A1 1.0000000
  HONO-0 :    3 B2 1.0000000
  LUNO+0 :    4 B1 0.0009956
  LUNO+1 :    9 A1 0.0004906
  LUNO+2 :   10 A1 0.0004166
  LUNO+3 :   11 A1 0.0000003


Computation Completed


Properties will be evaluated at   0.000000,   0.000000,   0.000000 [a0]

Properties computed using the SCF density matrix


 Multipole Moments:

 ------------------------------------------------------------------------------------
     Multipole            Electronic (a.u.)      Nuclear  (a.u.)        Total (a.u.)
 ------------------------------------------------------------------------------------

 L = 1.  Multiply by 2.5417464519 to convert [e a0] to [Debye]
 Dipole X            :          0.0000000            0.0000000            0.0000000
 Dipole Y            :          0.0000000            0.0000000            0.0000000
 Dipole Z            :          0.6132433            0.2806591            0.8939025
 Magnitude           :                                                    0.8939025

 ------------------------------------------------------------------------------------

*** tstop() called on Joses-MacBook-Pro-2.local at Wed Jul 16 19:05:58 2025
Module time:
	user time   =       5.38 seconds =       0.09 minutes
	system time =       4.73 seconds =       0.08 minutes
	total time  =          1 seconds =       0.02 minutes
Total time:
	user time   =       5.38 seconds =       0.09 minutes
	system time =       4.73 seconds =       0.08 minutes
	total time  =          1 seconds =       0.02 minutes

*** tstart() called on Joses-MacBook-Pro-2.local
*** at Wed Jul 16 19:05:58 2025


         ------------------------------------------------------------
                                   SCF GRAD                          
                          Rob Parrish, Justin Turney,                
                       Andy Simmonett, and Alex Sokolov              
         ------------------------------------------------------------

  ==> Geometry <==

    Molecular point group: c2v
    Full point group: C_inf_v

    Geometry (in Angstrom), charge = 0, multiplicity = 6:

       Center              X                  Y                   Z               Mass       
    ------------   -----------------  -----------------  -----------------  -----------------
         C            0.000000000000     0.000000000000     0.893413843904    12.000000000000
         CL           0.000000000000     0.000000000000    -0.306586156096    34.968852682000

  Nuclear repulsion =   44.980062906950003

  ==> Basis Set <==

  Basis Set: CC-PVDZ
    Blend: CC-PVDZ
    Number of shells: 14
    Number of basis functions: 32
    Number of Cartesian functions: 34
    Spherical Harmonics?: true
    Max angular momentum: 2

  ==> DFJKGrad: Density-Fitted SCF Gradients <==

    Gradient:                    1
    J tasked:                  Yes
    K tasked:                  Yes
    wK tasked:                  No
    OpenMP threads:              1
    Integrals threads:           1
    Memory [MiB]:              375
    Schwarz Cutoff:          1E-12
    Fitting Condition:       1E-10

   => Auxiliary Basis Set <=

  Basis Set: (CC-PVDZ AUX)
    Blend: CC-PVDZ-JKFIT
    Number of shells: 60
    Number of basis functions: 182
    Number of Cartesian functions: 211
    Spherical Harmonics?: true
    Max angular momentum: 3

  ==> DFT Potential <==

   => LibXC <=

    Version 6.2.2
    S. Lehtola, C. Steigemann, M. J.T. Oliveira, and M. A.L. Marques.,  SoftwareX 7, 1–5 (2018) (10.1016/j.softx.2017.11.002)

   => Composite Functional: B3LYP <= 

    B3LYP Hyb-GGA Exchange-Correlation Functional

    P. J. Stephens, F. J. Devlin, C. F. Chabalowski, and M. J. Frisch.,  J. Phys. Chem. 98, 11623 (1994) (10.1021/j100096a001)

    Deriv               =              1
    GGA                 =           TRUE
    Meta                =          FALSE

    Exchange Hybrid     =           TRUE
    MP2 Hybrid          =          FALSE

   => Exchange Functionals <=

    0.0800   Slater exchange
    0.7200         Becke 88

   => Exact (HF) Exchange <=

    0.2000               HF 

   => Correlation Functionals <=

    0.1900   Vosko, Wilk & Nusair (VWN5_RPA)
    0.8100   Lee, Yang & Parr

   => LibXC Density Thresholds  <==

    XC_HYB_GGA_XC_B3LYP:  1.00E-15 

   => Molecular Quadrature <=

    Radial Scheme          =       TREUTLER
    Pruning Scheme         =           NONE
    Nuclear Scheme         =       TREUTLER

    Blocking Scheme        =         OCTREE
    BS radius alpha        =              1
    Pruning alpha          =              1
    Radial Points          =             75
    Spherical Points       =            302
    Total Points           =          41025
    Total Blocks           =            368
    Max Points             =            256
    Max Functions          =             32
    Weights Tolerance      =       1.00E-15


  -Total Gradient:
     Atom            X                  Y                   Z
    ------   -----------------  -----------------  -----------------
       1       -0.000000000000    -0.000000000000    -1.383865738377
       2       -0.000000000000     0.000000000000     1.383860833204


*** tstop() called on Joses-MacBook-Pro-2.local at Wed Jul 16 19:05:59 2025
Module time:
	user time   =       1.12 seconds =       0.02 minutes
	system time =       1.35 seconds =       0.02 minutes
	total time  =          1 seconds =       0.02 minutes
Total time:
	user time   =       6.53 seconds =       0.11 minutes
	system time =       6.08 seconds =       0.10 minutes
	total time  =          2 seconds =       0.03 minutes

    			-----------------------------------------

    			 OPTKING 3.0: for geometry optimizations 

    			     By R.A. King, Bethel University     

    			        with contributions from          

    			    A.V. Copan, J. Cayton, A. Heide      

    			-----------------------------------------

    
	                            ===> Fragment 1 <== 

	 Z (Atomic Numbers)          Masses                          Geom                  
	       6.000000            12.000000          0.00000000  0.00000000  1.68830748   
	      17.000000            34.968853          0.00000000  0.00000000 -0.57936387   

	 - Coordinate -           - BOHR/RAD -       - ANG/DEG -
	 R(1,2)           =         2.267671           1.200000


	        --- Internal Coordinate Step in ANG or DEG, aJ/ANG or AJ/DEG ---
	-------------------------------------------------------------------------------
	           Coordinate      Previous         Force          Change          New 
	           ----------      --------        ------          ------        ------
	               R(1,2)       1.20000       11.40127        0.15924       1.35924
	-------------------------------------------------------------------------------

	                                 ==> Convergence Check <==                                  
    
	Measures of convergence in internal coordinates in au.
    
	Criteria marked as inactive (o), active & met (*), and active & unmet ( ).

	----------------------------------------------------------------------------------------------
	   Step    Total Energy     Delta E     Max Force     RMS Force      Max Disp      RMS Disp   
	----------------------------------------------------------------------------------------------
	  Convergence Criteria     1.00e-06 *    3.00e-04 *             o    1.20e-03 *             o
	----------------------------------------------------------------------------------------------
	     1    -497.15894368   -4.97e+02      1.38e+00      1.38e+00 o    3.01e-01      3.01e-01 o  ~
	----------------------------------------------------------------------------------------------

Next Geometry in Ang 
	Fragment 1 (Ang)

	    C   0.0000000000   0.0000000000   0.9730358164
	   Cl   0.0000000000   0.0000000000  -0.3862081286


    Structure for next step:
    Molecular point group: c2v
    Full point group: C_inf_v

    Geometry (in Angstrom), charge = 0, multiplicity = 6:

    C            0.000000000000     0.000000000000     1.011972798127
    CL           0.000000000000     0.000000000000    -0.347271146925


Scratch directory: /tmp/
gradient() will perform analytic gradient computation.
   => Libint2 <=

    Primary   basis highest AM E, G, H:  6, 6, 3
    Auxiliary basis highest AM E, G, H:  7, 7, 4
    Onebody   basis highest AM E, G, H:  -, -, -
    Solid Harmonics ordering:            Gaussian

*** tstart() called on Joses-MacBook-Pro-2.local
*** at Wed Jul 16 19:05:59 2025

   => Loading Basis Set <=

    Name: CC-PVDZ
    Role: ORBITAL
    Keyword: BASIS
    atoms 1 entry C          line   138 file /Users/joseantoniorodriguesromero/anaconda3/share/psi4/basis/cc-pvdz.gbs 
    atoms 2 entry CL         line   658 file /Users/joseantoniorodriguesromero/anaconda3/share/psi4/basis/cc-pvdz.gbs 


         ---------------------------------------------------------
                                   SCF
               by Justin Turney, Rob Parrish, Andy Simmonett
                          and Daniel G. A. Smith
                              UKS Reference
                        1 Threads,    500 MiB Core
         ---------------------------------------------------------

  ==> Geometry <==

    Molecular point group: c2v
    Full point group: C_inf_v

    Geometry (in Angstrom), charge = 0, multiplicity = 6:

       Center              X                  Y                   Z               Mass       
    ------------   -----------------  -----------------  -----------------  -----------------
         C            0.000000000000     0.000000000000     1.011972798127    12.000000000000
         CL           0.000000000000     0.000000000000    -0.347271146925    34.968852682000

  Running in c2v symmetry.

  Rotational constants: A = ************  B =      1.02129  C =      1.02129 [cm^-1]
  Rotational constants: A = ************  B =  30617.49865  C =  30617.49865 [MHz]
  Nuclear repulsion =   39.710366696737175

  Charge       = 0
  Multiplicity = 6
  Electrons    = 23
  Nalpha       = 14
  Nbeta        = 9

  ==> Algorithm <==

  SCF Algorithm Type is DF.
  DIIS enabled.
  MOM disabled.
  Fractional occupation disabled.
  Guess Type is READ.
  Energy threshold   = 1.00e-08
  Density threshold  = 1.00e-08
  Integral threshold = 1.00e-12

  ==> Primary Basis <==

  Basis Set: CC-PVDZ
    Blend: CC-PVDZ
    Number of shells: 14
    Number of basis functions: 32
    Number of Cartesian functions: 34
    Spherical Harmonics?: true
    Max angular momentum: 2

  ==> DFT Potential <==

   => LibXC <=

    Version 6.2.2
    S. Lehtola, C. Steigemann, M. J.T. Oliveira, and M. A.L. Marques.,  SoftwareX 7, 1–5 (2018) (10.1016/j.softx.2017.11.002)

   => Composite Functional: B3LYP <= 

    B3LYP Hyb-GGA Exchange-Correlation Functional

    P. J. Stephens, F. J. Devlin, C. F. Chabalowski, and M. J. Frisch.,  J. Phys. Chem. 98, 11623 (1994) (10.1021/j100096a001)

    Deriv               =              1
    GGA                 =           TRUE
    Meta                =          FALSE

    Exchange Hybrid     =           TRUE
    MP2 Hybrid          =          FALSE

   => Exchange Functionals <=

    0.0800   Slater exchange
    0.7200         Becke 88

   => Exact (HF) Exchange <=

    0.2000               HF 

   => Correlation Functionals <=

    0.1900   Vosko, Wilk & Nusair (VWN5_RPA)
    0.8100   Lee, Yang & Parr

   => LibXC Density Thresholds  <==

    XC_HYB_GGA_XC_B3LYP:  1.00E-15 

   => Molecular Quadrature <=

    Radial Scheme          =       TREUTLER
    Pruning Scheme         =           NONE
    Nuclear Scheme         =       TREUTLER

    Blocking Scheme        =         OCTREE
    BS radius alpha        =              1
    Pruning alpha          =              1
    Radial Points          =             75
    Spherical Points       =            302
    Total Points           =          41060
    Total Blocks           =            366
    Max Points             =            256
    Max Functions          =             32
    Weights Tolerance      =       1.00E-15

   => Loading Basis Set <=

    Name: (CC-PVDZ AUX)
    Role: JKFIT
    Keyword: DF_BASIS_SCF
    atoms 1 entry C          line   121 file /Users/joseantoniorodriguesromero/anaconda3/share/psi4/basis/cc-pvdz-jkfit.gbs 
    atoms 2 entry CL         line   667 file /Users/joseantoniorodriguesromero/anaconda3/share/psi4/basis/cc-pvdz-jkfit.gbs 

   => Loading Basis Set <=

    Name: CC-PVDZ
    Role: ORBITAL
    Keyword: BASIS
    atoms 1 entry C          line   138 file /Users/joseantoniorodriguesromero/anaconda3/share/psi4/basis/cc-pvdz.gbs 
    atoms 2 entry CL         line   658 file /Users/joseantoniorodriguesromero/anaconda3/share/psi4/basis/cc-pvdz.gbs 

  Reading orbitals from file /tmp/sextet_CCl.default.68858.180.npy, no projection.

  ==> Integral Setup <==

  DFHelper Memory: AOs need 0.002 GiB; user supplied 0.328 GiB. 
  Using in-core AOs.

  ==> MemDFJK: Density-Fitted J/K Matrices <==

    J tasked:                   Yes
    K tasked:                   Yes
    wK tasked:                   No
    OpenMP threads:               1
    Memory [MiB]:               336
    Algorithm:                 Core
    Schwarz Cutoff:           1E-12
    Mask sparsity (%):       0.0000
    Fitting Condition:        1E-10

   => Auxiliary Basis Set <=

  Basis Set: (CC-PVDZ AUX)
    Blend: CC-PVDZ-JKFIT
    Number of shells: 60
    Number of basis functions: 182
    Number of Cartesian functions: 211
    Spherical Harmonics?: true
    Max angular momentum: 3

  Cached 100.0% of DFT collocation blocks in 0.038 [GiB].

  Minimum eigenvalue in the overlap matrix is 8.8171477957E-03.
  Reciprocal condition number of the overlap matrix is 2.8666853544E-03.
    Using symmetric orthogonalization.

  ==> Pre-Iterations <==

  SCF Guess: Orbitals guess was supplied from a previous computation.

   -------------------------------------------------------
    Irrep   Nso     Nmo     Nalpha   Nbeta   Ndocc  Nsocc
   -------------------------------------------------------
     A1        16      16       8       6       6       2
     A2         2       2       0       0       0       0
     B1         7       7       3       2       2       1
     B2         7       7       3       1       1       2
   -------------------------------------------------------
    Total      32      32      14       9       9       5
   -------------------------------------------------------

  ==> Iterations <==

                           Total Energy        Delta E     RMS |[F,P]|

   @DF-UKS iter   0:  -497.66961727581634   -4.97670e+02   1.25772e-01 
   @DF-UKS iter   1:  -497.43979647123962    2.29821e-01   9.48968e-03 DIIS/ADIIS
   @DF-UKS iter   2:  -497.44977218460400   -9.97571e-03   7.44136e-03 DIIS/ADIIS/DAMP=1%
   @DF-UKS iter   3:  -497.46949948590981   -1.97273e-02   5.72857e-04 DIIS/ADIIS/DAMP=1%
   @DF-UKS iter   4:  -497.46229281937127    7.20667e-03   2.67900e-04 DIIS/ADIIS/DAMP=1%
   @DF-UKS iter   5:  -497.46188863491903    4.04184e-04   5.75340e-05 DIIS/DAMP=1%
   @DF-UKS iter   6:  -497.46201519915331   -1.26564e-04   6.64435e-06 DIIS/DAMP=1%
   @DF-UKS iter   7:  -497.46199074314126    2.44560e-05   9.95307e-07 DIIS/DAMP=1%
   @DF-UKS iter   8:  -497.46199341577210   -2.67263e-06   7.67593e-08 DIIS/DAMP=1%
   @DF-UKS iter   9:  -497.46199359126211   -1.75490e-07   8.98428e-09 DIIS/DAMP=1%
   @DF-UKS iter  10:  -497.46199355792589    3.33362e-08   2.60381e-09 DIIS/DAMP=1%
   @DF-UKS iter  11:  -497.46199356181592   -3.89002e-09   3.36451e-10 DIIS/DAMP=1%
  Energy and wave function converged.


  ==> Post-Iterations <==

   Electrons on quadrature grid:
      Nalpha   =   14.0000001236 ; deviation = 1.236e-07
      Nbeta    =    9.0000001379 ; deviation = 1.379e-07
      Ntotal   =   23.0000002615 ; deviation = 2.615e-07 

   @Spin Contamination Metric:   3.921361361E-03
   @S^2 Expected:                8.750000000E+00
   @S^2 Observed:                8.753921361E+00
   @S   Expected:                2.500000000E+00
   @S   Observed:                2.500000000E+00

    Orbital Energies [Eh]
    ---------------------

    Alpha Occupied:                                                       

       1A1  -101.704933     2A1   -10.235692     3A1    -9.610904  
       1B2    -7.379333     4A1    -7.369369     1B1    -7.360030  
       5A1    -1.091789     6A1    -0.657488     2B2    -0.552687  
       2B1    -0.509753     7A1    -0.438753     3B2    -0.236084  
       3B1    -0.211506     8A1     0.075564  

    Alpha Virtual:                                                        

       9A1     0.276303     4B2     0.374459     4B1     0.393125  
      10A1     0.478690     5B2     0.504908     5B1     0.524370  
      11A1     0.531504     1A2     0.555947    12A1     0.557922  
       6B2     0.652996     6B1     0.682552    13A1     0.982126  
       2A2     1.108830    14A1     1.108966    15A1     1.307513  
       7B2     1.495455     7B1     1.516576    16A1     1.857836  

    Beta Occupied:                                                        

       1A1  -101.694002     2A1   -10.182982     3A1    -9.599398  
       4A1    -7.359876     1B2    -7.352630     1B1    -7.348757  
       5A1    -0.996758     6A1    -0.545357     2B1    -0.437532  

    Beta Virtual:                                                         

       2B2    -0.346136     7A1    -0.176504     3B1    -0.026157  
       3B2    -0.013135     8A1     0.228899     9A1     0.324930  
       4B1     0.434188     4B2     0.439430    10A1     0.563114  
       5B1     0.591745     5B2     0.596724    11A1     0.639757  
       1A2     0.647180    12A1     0.651975     6B1     0.753983  
       6B2     0.761471    13A1     1.044357     2A2     1.239880  
      14A1     1.242732    15A1     1.411867     7B1     1.623455  
       7B2     1.630480    16A1     1.970497  

    Final Occupation by Irrep:
             A1    A2    B1    B2 
    DOCC [     6,    0,    2,    1 ]
    SOCC [     2,    0,    1,    2 ]
    NA   [     8,    0,    3,    3 ]
    NB   [     6,    0,    2,    1 ]

  @DF-UKS Final Energy:  -497.46199356181592

   => Energetics <=

    Nuclear Repulsion Energy =             39.7103666967371751
    One-Electron Energy =                -762.1753862671391744
    Two-Electron Energy =                 252.2197310737648479
    DFT Exchange-Correlation Energy =     -27.2167050651787932
    Empirical Dispersion Energy =           0.0000000000000000
    VV10 Nonlocal Energy =                  0.0000000000000000
    Total Energy =                       -497.4619935618159730

  UHF NO Occupations:
  HONO-2 :    3 B1 1.0000000
  HONO-1 :    3 B2 1.0000000
  HONO-0 :    8 A1 1.0000000
  LUNO+0 :    4 B1 0.0009427
  LUNO+1 :    9 A1 0.0005586
  LUNO+2 :   10 A1 0.0004597
  LUNO+3 :   11 A1 0.0000003


Computation Completed


Properties will be evaluated at   0.000000,   0.000000,   0.000000 [a0]

Properties computed using the SCF density matrix


 Multipole Moments:

 ------------------------------------------------------------------------------------
     Multipole            Electronic (a.u.)      Nuclear  (a.u.)        Total (a.u.)
 ------------------------------------------------------------------------------------

 L = 1.  Multiply by 2.5417464519 to convert [e a0] to [Debye]
 Dipole X            :          0.0000000            0.0000000            0.0000000
 Dipole Y            :          0.0000000            0.0000000            0.0000000
 Dipole Z            :         -0.0239460            0.3179035            0.2939575
 Magnitude           :                                                    0.2939575

 ------------------------------------------------------------------------------------

*** tstop() called on Joses-MacBook-Pro-2.local at Wed Jul 16 19:05:59 2025
Module time:
	user time   =       3.59 seconds =       0.06 minutes
	system time =       3.98 seconds =       0.07 minutes
	total time  =          0 seconds =       0.00 minutes
Total time:
	user time   =      10.17 seconds =       0.17 minutes
	system time =      10.34 seconds =       0.17 minutes
	total time  =          2 seconds =       0.03 minutes

*** tstart() called on Joses-MacBook-Pro-2.local
*** at Wed Jul 16 19:05:59 2025


         ------------------------------------------------------------
                                   SCF GRAD                          
                          Rob Parrish, Justin Turney,                
                       Andy Simmonett, and Alex Sokolov              
         ------------------------------------------------------------

  ==> Geometry <==

    Molecular point group: c2v
    Full point group: C_inf_v

    Geometry (in Angstrom), charge = 0, multiplicity = 6:

       Center              X                  Y                   Z               Mass       
    ------------   -----------------  -----------------  -----------------  -----------------
         C            0.000000000000     0.000000000000     1.011972798127    12.000000000000
         CL           0.000000000000     0.000000000000    -0.347271146925    34.968852682000

  Nuclear repulsion =   39.710366696737175

  ==> Basis Set <==

  Basis Set: CC-PVDZ
    Blend: CC-PVDZ
    Number of shells: 14
    Number of basis functions: 32
    Number of Cartesian functions: 34
    Spherical Harmonics?: true
    Max angular momentum: 2

  ==> DFJKGrad: Density-Fitted SCF Gradients <==

    Gradient:                    1
    J tasked:                  Yes
    K tasked:                  Yes
    wK tasked:                  No
    OpenMP threads:              1
    Integrals threads:           1
    Memory [MiB]:              375
    Schwarz Cutoff:          1E-12
    Fitting Condition:       1E-10

   => Auxiliary Basis Set <=

  Basis Set: (CC-PVDZ AUX)
    Blend: CC-PVDZ-JKFIT
    Number of shells: 60
    Number of basis functions: 182
    Number of Cartesian functions: 211
    Spherical Harmonics?: true
    Max angular momentum: 3

  ==> DFT Potential <==

   => LibXC <=

    Version 6.2.2
    S. Lehtola, C. Steigemann, M. J.T. Oliveira, and M. A.L. Marques.,  SoftwareX 7, 1–5 (2018) (10.1016/j.softx.2017.11.002)

   => Composite Functional: B3LYP <= 

    B3LYP Hyb-GGA Exchange-Correlation Functional

    P. J. Stephens, F. J. Devlin, C. F. Chabalowski, and M. J. Frisch.,  J. Phys. Chem. 98, 11623 (1994) (10.1021/j100096a001)

    Deriv               =              1
    GGA                 =           TRUE
    Meta                =          FALSE

    Exchange Hybrid     =           TRUE
    MP2 Hybrid          =          FALSE

   => Exchange Functionals <=

    0.0800   Slater exchange
    0.7200         Becke 88

   => Exact (HF) Exchange <=

    0.2000               HF 

   => Correlation Functionals <=

    0.1900   Vosko, Wilk & Nusair (VWN5_RPA)
    0.8100   Lee, Yang & Parr

   => LibXC Density Thresholds  <==

    XC_HYB_GGA_XC_B3LYP:  1.00E-15 

   => Molecular Quadrature <=

    Radial Scheme          =       TREUTLER
    Pruning Scheme         =           NONE
    Nuclear Scheme         =       TREUTLER

    Blocking Scheme        =         OCTREE
    BS radius alpha        =              1
    Pruning alpha          =              1
    Radial Points          =             75
    Spherical Points       =            302
    Total Points           =          41060
    Total Blocks           =            366
    Max Points             =            256
    Max Functions          =             32
    Weights Tolerance      =       1.00E-15


  -Total Gradient:
     Atom            X                  Y                   Z
    ------   -----------------  -----------------  -----------------
       1        0.000000000000     0.000000000000    -0.719863134331
       2       -0.000000000000     0.000000000000     0.719841641835


*** tstop() called on Joses-MacBook-Pro-2.local at Wed Jul 16 19:06:00 2025
Module time:
	user time   =       0.80 seconds =       0.01 minutes
	system time =       1.71 seconds =       0.03 minutes
	total time  =          1 seconds =       0.02 minutes
Total time:
	user time   =      10.97 seconds =       0.18 minutes
	system time =      12.05 seconds =       0.20 minutes
	total time  =          3 seconds =       0.05 minutes

    			-----------------------------------------

    			 OPTKING 3.0: for geometry optimizations 

    			     By R.A. King, Bethel University     

    			        with contributions from          

    			    A.V. Copan, J. Cayton, A. Heide      

    			-----------------------------------------

    
	                            ===> Fragment 1 <== 

	 Z (Atomic Numbers)          Masses                          Geom                  
	       6.000000            12.000000          0.00000000  0.00000000  1.91235143   
	      17.000000            34.968853          0.00000000  0.00000000 -0.65624736   

	 - Coordinate -           - BOHR/RAD -       - ANG/DEG -
	 R(1,2)           =         2.568599           1.359244


	        --- Internal Coordinate Step in ANG or DEG, aJ/ANG or AJ/DEG ---
	-------------------------------------------------------------------------------
	           Coordinate      Previous         Force          Change          New 
	           ----------      --------        ------          ------        ------
	               R(1,2)       1.35924        5.93066        0.15737       1.51661
	-------------------------------------------------------------------------------

	                                 ==> Convergence Check <==                                  
    
	Measures of convergence in internal coordinates in au.
    
	Criteria marked as inactive (o), active & met (*), and active & unmet ( ).

	----------------------------------------------------------------------------------------------
	   Step    Total Energy     Delta E     Max Force     RMS Force      Max Disp      RMS Disp   
	----------------------------------------------------------------------------------------------
	  Convergence Criteria     1.00e-06 *    3.00e-04 *             o    1.20e-03 *             o
	----------------------------------------------------------------------------------------------
	     2    -497.46199356   -3.03e-01      7.20e-01      7.20e-01 o    2.97e-01      2.97e-01 o  ~
	----------------------------------------------------------------------------------------------

Next Geometry in Ang 
	Fragment 1 (Ang)

	    C   0.0000000000   0.0000000000   1.0906570661
	   Cl   0.0000000000   0.0000000000  -0.4259554149


    Structure for next step:
    Molecular point group: c2v
    Full point group: C_inf_v

    Geometry (in Angstrom), charge = 0, multiplicity = 6:

    C            0.000000000000     0.000000000000     1.129135488602
    CL           0.000000000000     0.000000000000    -0.387476992352


Scratch directory: /tmp/
gradient() will perform analytic gradient computation.
   => Libint2 <=

    Primary   basis highest AM E, G, H:  6, 6, 3
    Auxiliary basis highest AM E, G, H:  7, 7, 4
    Onebody   basis highest AM E, G, H:  -, -, -
    Solid Harmonics ordering:            Gaussian

*** tstart() called on Joses-MacBook-Pro-2.local
*** at Wed Jul 16 19:06:00 2025

   => Loading Basis Set <=

    Name: CC-PVDZ
    Role: ORBITAL
    Keyword: BASIS
    atoms 1 entry C          line   138 file /Users/joseantoniorodriguesromero/anaconda3/share/psi4/basis/cc-pvdz.gbs 
    atoms 2 entry CL         line   658 file /Users/joseantoniorodriguesromero/anaconda3/share/psi4/basis/cc-pvdz.gbs 


         ---------------------------------------------------------
                                   SCF
               by Justin Turney, Rob Parrish, Andy Simmonett
                          and Daniel G. A. Smith
                              UKS Reference
                        1 Threads,    500 MiB Core
         ---------------------------------------------------------

  ==> Geometry <==

    Molecular point group: c2v
    Full point group: C_inf_v

    Geometry (in Angstrom), charge = 0, multiplicity = 6:

       Center              X                  Y                   Z               Mass       
    ------------   -----------------  -----------------  -----------------  -----------------
         C            0.000000000000     0.000000000000     1.129135488602    12.000000000000
         CL           0.000000000000     0.000000000000    -0.387476992352    34.968852682000

  Running in c2v symmetry.

  Rotational constants: A = ************  B =      0.82034  C =      0.82034 [cm^-1]
  Rotational constants: A = ************  B =  24593.21294  C =  24593.21294 [MHz]
  Nuclear repulsion =   35.589892715638292

  Charge       = 0
  Multiplicity = 6
  Electrons    = 23
  Nalpha       = 14
  Nbeta        = 9

  ==> Algorithm <==

  SCF Algorithm Type is DF.
  DIIS enabled.
  MOM disabled.
  Fractional occupation disabled.
  Guess Type is READ.
  Energy threshold   = 1.00e-08
  Density threshold  = 1.00e-08
  Integral threshold = 1.00e-12

  ==> Primary Basis <==

  Basis Set: CC-PVDZ
    Blend: CC-PVDZ
    Number of shells: 14
    Number of basis functions: 32
    Number of Cartesian functions: 34
    Spherical Harmonics?: true
    Max angular momentum: 2

  ==> DFT Potential <==

   => LibXC <=

    Version 6.2.2
    S. Lehtola, C. Steigemann, M. J.T. Oliveira, and M. A.L. Marques.,  SoftwareX 7, 1–5 (2018) (10.1016/j.softx.2017.11.002)

   => Composite Functional: B3LYP <= 

    B3LYP Hyb-GGA Exchange-Correlation Functional

    P. J. Stephens, F. J. Devlin, C. F. Chabalowski, and M. J. Frisch.,  J. Phys. Chem. 98, 11623 (1994) (10.1021/j100096a001)

    Deriv               =              1
    GGA                 =           TRUE
    Meta                =          FALSE

    Exchange Hybrid     =           TRUE
    MP2 Hybrid          =          FALSE

   => Exchange Functionals <=

    0.0800   Slater exchange
    0.7200         Becke 88

   => Exact (HF) Exchange <=

    0.2000               HF 

   => Correlation Functionals <=

    0.1900   Vosko, Wilk & Nusair (VWN5_RPA)
    0.8100   Lee, Yang & Parr

   => LibXC Density Thresholds  <==

    XC_HYB_GGA_XC_B3LYP:  1.00E-15 

   => Molecular Quadrature <=

    Radial Scheme          =       TREUTLER
    Pruning Scheme         =           NONE
    Nuclear Scheme         =       TREUTLER

    Blocking Scheme        =         OCTREE
    BS radius alpha        =              1
    Pruning alpha          =              1
    Radial Points          =             75
    Spherical Points       =            302
    Total Points           =          41096
    Total Blocks           =            365
    Max Points             =            255
    Max Functions          =             32
    Weights Tolerance      =       1.00E-15

   => Loading Basis Set <=

    Name: (CC-PVDZ AUX)
    Role: JKFIT
    Keyword: DF_BASIS_SCF
    atoms 1 entry C          line   121 file /Users/joseantoniorodriguesromero/anaconda3/share/psi4/basis/cc-pvdz-jkfit.gbs 
    atoms 2 entry CL         line   667 file /Users/joseantoniorodriguesromero/anaconda3/share/psi4/basis/cc-pvdz-jkfit.gbs 

   => Loading Basis Set <=

    Name: CC-PVDZ
    Role: ORBITAL
    Keyword: BASIS
    atoms 1 entry C          line   138 file /Users/joseantoniorodriguesromero/anaconda3/share/psi4/basis/cc-pvdz.gbs 
    atoms 2 entry CL         line   658 file /Users/joseantoniorodriguesromero/anaconda3/share/psi4/basis/cc-pvdz.gbs 

  Reading orbitals from file /tmp/sextet_CCl.default.68858.180.npy, no projection.

  ==> Integral Setup <==

  DFHelper Memory: AOs need 0.002 GiB; user supplied 0.328 GiB. 
  Using in-core AOs.

  ==> MemDFJK: Density-Fitted J/K Matrices <==

    J tasked:                   Yes
    K tasked:                   Yes
    wK tasked:                   No
    OpenMP threads:               1
    Memory [MiB]:               336
    Algorithm:                 Core
    Schwarz Cutoff:           1E-12
    Mask sparsity (%):       0.0000
    Fitting Condition:        1E-10

   => Auxiliary Basis Set <=

  Basis Set: (CC-PVDZ AUX)
    Blend: CC-PVDZ-JKFIT
    Number of shells: 60
    Number of basis functions: 182
    Number of Cartesian functions: 211
    Spherical Harmonics?: true
    Max angular momentum: 3

  Cached 100.0% of DFT collocation blocks in 0.038 [GiB].

  Minimum eigenvalue in the overlap matrix is 1.2609689088E-02.
  Reciprocal condition number of the overlap matrix is 4.2277844509E-03.
    Using symmetric orthogonalization.

  ==> Pre-Iterations <==

  SCF Guess: Orbitals guess was supplied from a previous computation.

   -------------------------------------------------------
    Irrep   Nso     Nmo     Nalpha   Nbeta   Ndocc  Nsocc
   -------------------------------------------------------
     A1        16      16       8       6       6       2
     A2         2       2       0       0       0       0
     B1         7       7       3       2       2       1
     B2         7       7       3       1       1       2
   -------------------------------------------------------
    Total      32      32      14       9       9       5
   -------------------------------------------------------

  ==> Iterations <==

                           Total Energy        Delta E     RMS |[F,P]|

   @DF-UKS iter   0:  -497.71733111150536   -4.97717e+02   9.72576e-02 
   @DF-UKS iter   1:  -497.61570904236203    1.01622e-01   6.42210e-03 DIIS/ADIIS
   @DF-UKS iter   2:  -497.62059812607595   -4.88908e-03   5.12041e-03 DIIS/ADIIS/DAMP=1%
   @DF-UKS iter   3:  -497.63135942478414   -1.07613e-02   4.69652e-04 DIIS/ADIIS/DAMP=1%
   @DF-UKS iter   4:  -497.62660358950689    4.75584e-03   2.24236e-04 DIIS/ADIIS/DAMP=1%
   @DF-UKS iter   5:  -497.62627367448158    3.29915e-04   4.37151e-05 DIIS/DAMP=1%
   @DF-UKS iter   6:  -497.62636924347373   -9.55690e-05   5.06674e-06 DIIS/DAMP=1%
   @DF-UKS iter   7:  -497.62635230287987    1.69406e-05   6.08894e-07 DIIS/DAMP=1%
   @DF-UKS iter   8:  -497.62635421600078   -1.91312e-06   5.38729e-08 DIIS/DAMP=1%
   @DF-UKS iter   9:  -497.62635427290348   -5.69027e-08   5.73781e-09 DIIS/DAMP=1%
   @DF-UKS iter  10:  -497.62635427303206   -1.28580e-10   9.16496e-10 DIIS/DAMP=1%
  Energy and wave function converged.


  ==> Post-Iterations <==

   Electrons on quadrature grid:
      Nalpha   =   14.0000004251 ; deviation = 4.251e-07
      Nbeta    =    9.0000005074 ; deviation = 5.074e-07
      Ntotal   =   23.0000009325 ; deviation = 9.325e-07 

   @Spin Contamination Metric:   3.787183935E-03
   @S^2 Expected:                8.750000000E+00
   @S^2 Observed:                8.753787184E+00
   @S   Expected:                2.500000000E+00
   @S   Observed:                2.500000000E+00

    Orbital Energies [Eh]
    ---------------------

    Alpha Occupied:                                                       

       1A1  -101.687401     2A1   -10.217385     3A1    -9.594024  
       1B2    -7.363604     4A1    -7.352434     1B1    -7.342653  
       5A1    -1.021651     6A1    -0.651197     2B2    -0.512409  
       2B1    -0.467415     7A1    -0.423439     3B2    -0.236525  
       3B1    -0.217490     8A1     0.018679  

    Alpha Virtual:                                                        

       9A1     0.328739     4B2     0.416332     4B1     0.435591  
      10A1     0.477132     5B2     0.495539    11A1     0.500289  
       5B1     0.514348     1A2     0.580493    12A1     0.581740  
       6B2     0.617697     6B1     0.648309    13A1     0.893989  
      14A1     1.113980     2A2     1.113996    15A1     1.183152  
       7B2     1.412418     7B1     1.430776    16A1     1.770512  

    Beta Occupied:                                                        

       1A1  -101.676026     2A1   -10.162646     3A1    -9.582149  
       4A1    -7.340365     1B2    -7.336966     1B1    -7.332504  
       5A1    -0.928145     6A1    -0.534868     2B1    -0.406598  

    Beta Virtual:                                                         

       2B2    -0.316594     7A1    -0.166119     3B1    -0.018588  
       3B2    -0.010022     8A1     0.183978     9A1     0.381465  
       4B1     0.476888     4B2     0.481811    10A1     0.538463  
       5B1     0.594389     5B2     0.597244    11A1     0.623291  
       1A2     0.664590    12A1     0.669443     6B1     0.706321  
       6B2     0.712817    13A1     0.962601     2A2     1.254261  
      14A1     1.255480    15A1     1.273081     7B1     1.546115  
       7B2     1.549292    16A1     1.896736  

    Final Occupation by Irrep:
             A1    A2    B1    B2 
    DOCC [     6,    0,    2,    1 ]
    SOCC [     2,    0,    1,    2 ]
    NA   [     8,    0,    3,    3 ]
    NB   [     6,    0,    2,    1 ]

  @DF-UKS Final Energy:  -497.62635427303206

   => Energetics <=

    Nuclear Repulsion Energy =             35.5898927156382925
    One-Electron Energy =                -754.7379411209108184
    Two-Electron Energy =                 248.6739245280121793
    DFT Exchange-Correlation Energy =     -27.1522303957716957
    Empirical Dispersion Energy =           0.0000000000000000
    VV10 Nonlocal Energy =                  0.0000000000000000
    Total Energy =                       -497.6263542730320637

  UHF NO Occupations:
  HONO-2 :    3 B1 1.0000000
  HONO-1 :    3 B2 1.0000000
  HONO-0 :    8 A1 1.0000000
  LUNO+0 :    9 A1 0.0006993
  LUNO+1 :    4 B1 0.0006870
  LUNO+2 :   10 A1 0.0005075
  LUNO+3 :   11 A1 0.0000003


Computation Completed


Properties will be evaluated at   0.000000,   0.000000,   0.000000 [a0]

Properties computed using the SCF density matrix


 Multipole Moments:

 ------------------------------------------------------------------------------------
     Multipole            Electronic (a.u.)      Nuclear  (a.u.)        Total (a.u.)
 ------------------------------------------------------------------------------------

 L = 1.  Multiply by 2.5417464519 to convert [e a0] to [Debye]
 Dipole X            :          0.0000000            0.0000000            0.0000000
 Dipole Y            :          0.0000000            0.0000000            0.0000000
 Dipole Z            :         -0.5605021            0.3547093           -0.2057928
 Magnitude           :                                                    0.2057928

 ------------------------------------------------------------------------------------

*** tstop() called on Joses-MacBook-Pro-2.local at Wed Jul 16 19:06:00 2025
Module time:
	user time   =       4.76 seconds =       0.08 minutes
	system time =       2.40 seconds =       0.04 minutes
	total time  =          0 seconds =       0.00 minutes
Total time:
	user time   =      15.76 seconds =       0.26 minutes
	system time =      14.68 seconds =       0.24 minutes
	total time  =          3 seconds =       0.05 minutes

*** tstart() called on Joses-MacBook-Pro-2.local
*** at Wed Jul 16 19:06:00 2025


         ------------------------------------------------------------
                                   SCF GRAD                          
                          Rob Parrish, Justin Turney,                
                       Andy Simmonett, and Alex Sokolov              
         ------------------------------------------------------------

  ==> Geometry <==

    Molecular point group: c2v
    Full point group: C_inf_v

    Geometry (in Angstrom), charge = 0, multiplicity = 6:

       Center              X                  Y                   Z               Mass       
    ------------   -----------------  -----------------  -----------------  -----------------
         C            0.000000000000     0.000000000000     1.129135488602    12.000000000000
         CL           0.000000000000     0.000000000000    -0.387476992352    34.968852682000

  Nuclear repulsion =   35.589892715638292

  ==> Basis Set <==

  Basis Set: CC-PVDZ
    Blend: CC-PVDZ
    Number of shells: 14
    Number of basis functions: 32
    Number of Cartesian functions: 34
    Spherical Harmonics?: true
    Max angular momentum: 2

  ==> DFJKGrad: Density-Fitted SCF Gradients <==

    Gradient:                    1
    J tasked:                  Yes
    K tasked:                  Yes
    wK tasked:                  No
    OpenMP threads:              1
    Integrals threads:           1
    Memory [MiB]:              375
    Schwarz Cutoff:          1E-12
    Fitting Condition:       1E-10

   => Auxiliary Basis Set <=

  Basis Set: (CC-PVDZ AUX)
    Blend: CC-PVDZ-JKFIT
    Number of shells: 60
    Number of basis functions: 182
    Number of Cartesian functions: 211
    Spherical Harmonics?: true
    Max angular momentum: 3

  ==> DFT Potential <==

   => LibXC <=

    Version 6.2.2
    S. Lehtola, C. Steigemann, M. J.T. Oliveira, and M. A.L. Marques.,  SoftwareX 7, 1–5 (2018) (10.1016/j.softx.2017.11.002)

   => Composite Functional: B3LYP <= 

    B3LYP Hyb-GGA Exchange-Correlation Functional

    P. J. Stephens, F. J. Devlin, C. F. Chabalowski, and M. J. Frisch.,  J. Phys. Chem. 98, 11623 (1994) (10.1021/j100096a001)

    Deriv               =              1
    GGA                 =           TRUE
    Meta                =          FALSE

    Exchange Hybrid     =           TRUE
    MP2 Hybrid          =          FALSE

   => Exchange Functionals <=

    0.0800   Slater exchange
    0.7200         Becke 88

   => Exact (HF) Exchange <=

    0.2000               HF 

   => Correlation Functionals <=

    0.1900   Vosko, Wilk & Nusair (VWN5_RPA)
    0.8100   Lee, Yang & Parr

   => LibXC Density Thresholds  <==

    XC_HYB_GGA_XC_B3LYP:  1.00E-15 

   => Molecular Quadrature <=

    Radial Scheme          =       TREUTLER
    Pruning Scheme         =           NONE
    Nuclear Scheme         =       TREUTLER

    Blocking Scheme        =         OCTREE
    BS radius alpha        =              1
    Pruning alpha          =              1
    Radial Points          =             75
    Spherical Points       =            302
    Total Points           =          41096
    Total Blocks           =            365
    Max Points             =            255
    Max Functions          =             32
    Weights Tolerance      =       1.00E-15


  -Total Gradient:
     Atom            X                  Y                   Z
    ------   -----------------  -----------------  -----------------
       1       -0.000000000000     0.000000000000    -0.420920405351
       2       -0.000000000000     0.000000000000     0.420902171847


*** tstop() called on Joses-MacBook-Pro-2.local at Wed Jul 16 19:06:00 2025
Module time:
	user time   =       0.82 seconds =       0.01 minutes
	system time =       1.39 seconds =       0.02 minutes
	total time  =          0 seconds =       0.00 minutes
Total time:
	user time   =      16.58 seconds =       0.28 minutes
	system time =      16.07 seconds =       0.27 minutes
	total time  =          3 seconds =       0.05 minutes

    			-----------------------------------------

    			 OPTKING 3.0: for geometry optimizations 

    			     By R.A. King, Bethel University     

    			        with contributions from          

    			    A.V. Copan, J. Cayton, A. Heide      

    			-----------------------------------------

    
	                            ===> Fragment 1 <== 

	 Z (Atomic Numbers)          Masses                          Geom                  
	       6.000000            12.000000          0.00000000  0.00000000  2.13375683   
	      17.000000            34.968853          0.00000000  0.00000000 -0.73222540   

	 - Coordinate -           - BOHR/RAD -       - ANG/DEG -
	 R(1,2)           =         2.865982           1.516612


	        --- Internal Coordinate Step in ANG or DEG, aJ/ANG or AJ/DEG ---
	-------------------------------------------------------------------------------
	           Coordinate      Previous         Force          Change          New 
	           ----------      --------        ------          ------        ------
	               R(1,2)       1.51661        3.46777        0.17883       1.69544
	-------------------------------------------------------------------------------

	                                 ==> Convergence Check <==                                  
    
	Measures of convergence in internal coordinates in au.
    
	Criteria marked as inactive (o), active & met (*), and active & unmet ( ).

	----------------------------------------------------------------------------------------------
	   Step    Total Energy     Delta E     Max Force     RMS Force      Max Disp      RMS Disp   
	----------------------------------------------------------------------------------------------
	  Convergence Criteria     1.00e-06 *    3.00e-04 *             o    1.20e-03 *             o
	----------------------------------------------------------------------------------------------
	     3    -497.62635427   -1.64e-01      4.21e-01      4.21e-01 o    3.38e-01      3.38e-01 o  ~
	----------------------------------------------------------------------------------------------

Next Geometry in Ang 
	Fragment 1 (Ang)

	    C   0.0000000000   0.0000000000   1.2185508148
	   Cl   0.0000000000   0.0000000000  -0.4768923186


    Structure for next step:
    Molecular point group: c2v
    Full point group: C_inf_v

    Geometry (in Angstrom), charge = 0, multiplicity = 6:

    C            0.000000000000     0.000000000000     1.262276972429
    CL           0.000000000000     0.000000000000    -0.433166160952


Scratch directory: /tmp/
gradient() will perform analytic gradient computation.
   => Libint2 <=

    Primary   basis highest AM E, G, H:  6, 6, 3
    Auxiliary basis highest AM E, G, H:  7, 7, 4
    Onebody   basis highest AM E, G, H:  -, -, -
    Solid Harmonics ordering:            Gaussian

*** tstart() called on Joses-MacBook-Pro-2.local
*** at Wed Jul 16 19:06:01 2025

   => Loading Basis Set <=

    Name: CC-PVDZ
    Role: ORBITAL
    Keyword: BASIS
    atoms 1 entry C          line   138 file /Users/joseantoniorodriguesromero/anaconda3/share/psi4/basis/cc-pvdz.gbs 
    atoms 2 entry CL         line   658 file /Users/joseantoniorodriguesromero/anaconda3/share/psi4/basis/cc-pvdz.gbs 


         ---------------------------------------------------------
                                   SCF
               by Justin Turney, Rob Parrish, Andy Simmonett
                          and Daniel G. A. Smith
                              UKS Reference
                        1 Threads,    500 MiB Core
         ---------------------------------------------------------

  ==> Geometry <==

    Molecular point group: c2v
    Full point group: C_inf_v

    Geometry (in Angstrom), charge = 0, multiplicity = 6:

       Center              X                  Y                   Z               Mass       
    ------------   -----------------  -----------------  -----------------  -----------------
         C            0.000000000000     0.000000000000     1.262276972429    12.000000000000
         CL           0.000000000000     0.000000000000    -0.433166160952    34.968852682000

  Running in c2v symmetry.

  Rotational constants: A = ************  B =      0.65641  C =      0.65641 [cm^-1]
  Rotational constants: A = ************  B =  19678.77526  C =  19678.77526 [MHz]
  Nuclear repulsion =   31.835969267057877

  Charge       = 0
  Multiplicity = 6
  Electrons    = 23
  Nalpha       = 14
  Nbeta        = 9

  ==> Algorithm <==

  SCF Algorithm Type is DF.
  DIIS enabled.
  MOM disabled.
  Fractional occupation disabled.
  Guess Type is READ.
  Energy threshold   = 1.00e-08
  Density threshold  = 1.00e-08
  Integral threshold = 1.00e-12

  ==> Primary Basis <==

  Basis Set: CC-PVDZ
    Blend: CC-PVDZ
    Number of shells: 14
    Number of basis functions: 32
    Number of Cartesian functions: 34
    Spherical Harmonics?: true
    Max angular momentum: 2

  ==> DFT Potential <==

   => LibXC <=

    Version 6.2.2
    S. Lehtola, C. Steigemann, M. J.T. Oliveira, and M. A.L. Marques.,  SoftwareX 7, 1–5 (2018) (10.1016/j.softx.2017.11.002)

   => Composite Functional: B3LYP <= 

    B3LYP Hyb-GGA Exchange-Correlation Functional

    P. J. Stephens, F. J. Devlin, C. F. Chabalowski, and M. J. Frisch.,  J. Phys. Chem. 98, 11623 (1994) (10.1021/j100096a001)

    Deriv               =              1
    GGA                 =           TRUE
    Meta                =          FALSE

    Exchange Hybrid     =           TRUE
    MP2 Hybrid          =          FALSE

   => Exchange Functionals <=

    0.0800   Slater exchange
    0.7200         Becke 88

   => Exact (HF) Exchange <=

    0.2000               HF 

   => Correlation Functionals <=

    0.1900   Vosko, Wilk & Nusair (VWN5_RPA)
    0.8100   Lee, Yang & Parr

   => LibXC Density Thresholds  <==

    XC_HYB_GGA_XC_B3LYP:  1.00E-15 

   => Molecular Quadrature <=

    Radial Scheme          =       TREUTLER
    Pruning Scheme         =           NONE
    Nuclear Scheme         =       TREUTLER

    Blocking Scheme        =         OCTREE
    BS radius alpha        =              1
    Pruning alpha          =              1
    Radial Points          =             75
    Spherical Points       =            302
    Total Points           =          41114
    Total Blocks           =            365
    Max Points             =            255
    Max Functions          =             32
    Weights Tolerance      =       1.00E-15

   => Loading Basis Set <=

    Name: (CC-PVDZ AUX)
    Role: JKFIT
    Keyword: DF_BASIS_SCF
    atoms 1 entry C          line   121 file /Users/joseantoniorodriguesromero/anaconda3/share/psi4/basis/cc-pvdz-jkfit.gbs 
    atoms 2 entry CL         line   667 file /Users/joseantoniorodriguesromero/anaconda3/share/psi4/basis/cc-pvdz-jkfit.gbs 

   => Loading Basis Set <=

    Name: CC-PVDZ
    Role: ORBITAL
    Keyword: BASIS
    atoms 1 entry C          line   138 file /Users/joseantoniorodriguesromero/anaconda3/share/psi4/basis/cc-pvdz.gbs 
    atoms 2 entry CL         line   658 file /Users/joseantoniorodriguesromero/anaconda3/share/psi4/basis/cc-pvdz.gbs 

  Reading orbitals from file /tmp/sextet_CCl.default.68858.180.npy, no projection.

  ==> Integral Setup <==

  DFHelper Memory: AOs need 0.002 GiB; user supplied 0.328 GiB. 
  Using in-core AOs.

  ==> MemDFJK: Density-Fitted J/K Matrices <==

    J tasked:                   Yes
    K tasked:                   Yes
    wK tasked:                   No
    OpenMP threads:               1
    Memory [MiB]:               336
    Algorithm:                 Core
    Schwarz Cutoff:           1E-12
    Mask sparsity (%):       0.0000
    Fitting Condition:        1E-10

   => Auxiliary Basis Set <=

  Basis Set: (CC-PVDZ AUX)
    Blend: CC-PVDZ-JKFIT
    Number of shells: 60
    Number of basis functions: 182
    Number of Cartesian functions: 211
    Spherical Harmonics?: true
    Max angular momentum: 3

  Cached 100.0% of DFT collocation blocks in 0.038 [GiB].

  Minimum eigenvalue in the overlap matrix is 1.8652352568E-02.
  Reciprocal condition number of the overlap matrix is 6.5333923114E-03.
    Using symmetric orthogonalization.

  ==> Pre-Iterations <==

  SCF Guess: Orbitals guess was supplied from a previous computation.

   -------------------------------------------------------
    Irrep   Nso     Nmo     Nalpha   Nbeta   Ndocc  Nsocc
   -------------------------------------------------------
     A1        16      16       8       6       6       2
     A2         2       2       0       0       0       0
     B1         7       7       3       2       2       1
     B2         7       7       3       1       1       2
   -------------------------------------------------------
    Total      32      32      14       9       9       5
   -------------------------------------------------------

  ==> Iterations <==

                           Total Energy        Delta E     RMS |[F,P]|

   @DF-UKS iter   0:  -497.78392173787705   -4.97784e+02   7.88630e-02 
   @DF-UKS iter   1:  -497.72705461600015    5.68671e-02   5.79257e-03 DIIS/ADIIS
   @DF-UKS iter   2:  -497.73106582775858   -4.01121e-03   4.51306e-03 DIIS/ADIIS/DAMP=1%
   @DF-UKS iter   3:  -497.73953090818793   -8.46508e-03   4.85569e-04 DIIS/ADIIS/DAMP=1%
   @DF-UKS iter   4:  -497.73586509889054    3.66581e-03   1.80514e-04 DIIS/ADIIS/DAMP=1%
   @DF-UKS iter   5:  -497.73551068858313    3.54410e-04   3.37021e-05 DIIS/DAMP=1%
   @DF-UKS iter   6:  -497.73559325526645   -8.25667e-05   4.82705e-06 DIIS/DAMP=1%
   @DF-UKS iter   7:  -497.73557792497866    1.53303e-05   3.74058e-07 DIIS/DAMP=1%
   @DF-UKS iter   8:  -497.73557950592226   -1.58094e-06   1.14561e-07 DIIS/DAMP=1%
   @DF-UKS iter   9:  -497.73557958238553   -7.64633e-08   1.87067e-08 DIIS/DAMP=1%
   @DF-UKS iter  10:  -497.73557958598155   -3.59603e-09   2.46317e-09 DIIS/DAMP=1%
  Energy and wave function converged.


  ==> Post-Iterations <==

   Electrons on quadrature grid:
      Nalpha   =   13.9999995452 ; deviation = -4.548e-07
      Nbeta    =    9.0000000556 ; deviation = 5.563e-08
      Ntotal   =   22.9999996008 ; deviation = -3.992e-07 

   @Spin Contamination Metric:   3.688808533E-03
   @S^2 Expected:                8.750000000E+00
   @S^2 Observed:                8.753688809E+00
   @S   Expected:                2.500000000E+00
   @S   Observed:                2.500000000E+00

    Orbital Energies [Eh]
    ---------------------

    Alpha Occupied:                                                       

       1A1  -101.674814     2A1   -10.203159     3A1    -9.584272  
       1B2    -7.354623     4A1    -7.342574     1B1    -7.332253  
       5A1    -0.969049     6A1    -0.634356     2B2    -0.486871  
       2B1    -0.437950     7A1    -0.414179     3B2    -0.229728  
       3B1    -0.217117     8A1    -0.046799  

    Alpha Virtual:                                                        

       9A1     0.390929     4B2     0.446217    10A1     0.449197  
       4B1     0.466327     5B2     0.487653     5B1     0.507882  
      11A1     0.511300     1A2     0.596326    12A1     0.597381  
       6B2     0.602468     6B1     0.632661    13A1     0.810753  
      14A1     1.061559     2A2     1.126890    15A1     1.127017  
       7B2     1.332668     7B1     1.347426    16A1     1.724311  

    Beta Occupied:                                                        

       1A1  -101.663121     2A1   -10.147122     3A1    -9.572248  
       1B2    -7.328182     4A1    -7.327966     1B1    -7.323154  
       5A1    -0.878994     6A1    -0.509972     2B1    -0.390557  

    Beta Virtual:                                                         

       2B2    -0.300174     7A1    -0.167951     3B1    -0.004871  
       3B2    -0.001134     8A1     0.137965     9A1     0.449237  
       4B1     0.504262    10A1     0.505679     4B2     0.509290  
       5B1     0.599949     5B2     0.600504    11A1     0.622659  
       1A2     0.673009    12A1     0.678325     6B1     0.680842  
       6B2     0.686760    13A1     0.889494    14A1     1.140253  
       2A2     1.274725    15A1     1.275070     7B1     1.471472  
       7B2     1.471579    16A1     1.852293  

    Final Occupation by Irrep:
             A1    A2    B1    B2 
    DOCC [     6,    0,    2,    1 ]
    SOCC [     2,    0,    1,    2 ]
    NA   [     8,    0,    3,    3 ]
    NB   [     6,    0,    2,    1 ]

  @DF-UKS Final Energy:  -497.73557958598155

   => Energetics <=

    Nuclear Repulsion Energy =             31.8359692670578767
    One-Electron Energy =                -747.7826937081930510
    Two-Electron Energy =                 245.3129968333816180
    DFT Exchange-Correlation Energy =     -27.1018519782279554
    Empirical Dispersion Energy =           0.0000000000000000
    VV10 Nonlocal Energy =                  0.0000000000000000
    Total Energy =                       -497.7355795859815544

  UHF NO Occupations:
  HONO-2 :    3 B1 1.0000000
  HONO-1 :    7 A1 1.0000000
  HONO-0 :    8 A1 1.0000000
  LUNO+0 :    9 A1 0.0008613
  LUNO+1 :   10 A1 0.0005668
  LUNO+2 :    4 B1 0.0004166
  LUNO+3 :   11 A1 0.0000003


Computation Completed


Properties will be evaluated at   0.000000,   0.000000,   0.000000 [a0]

Properties computed using the SCF density matrix


 Multipole Moments:

 ------------------------------------------------------------------------------------
     Multipole            Electronic (a.u.)      Nuclear  (a.u.)        Total (a.u.)
 ------------------------------------------------------------------------------------

 L = 1.  Multiply by 2.5417464519 to convert [e a0] to [Debye]
 Dipole X            :          0.0000000            0.0000000            0.0000000
 Dipole Y            :          0.0000000            0.0000000            0.0000000
 Dipole Z            :         -1.0228388            0.3965346           -0.6263041
 Magnitude           :                                                    0.6263041

 ------------------------------------------------------------------------------------

*** tstop() called on Joses-MacBook-Pro-2.local at Wed Jul 16 19:06:01 2025
Module time:
	user time   =       3.45 seconds =       0.06 minutes
	system time =       3.98 seconds =       0.07 minutes
	total time  =          0 seconds =       0.00 minutes
Total time:
	user time   =      20.07 seconds =       0.33 minutes
	system time =      20.31 seconds =       0.34 minutes
	total time  =          4 seconds =       0.07 minutes

*** tstart() called on Joses-MacBook-Pro-2.local
*** at Wed Jul 16 19:06:01 2025


         ------------------------------------------------------------
                                   SCF GRAD                          
                          Rob Parrish, Justin Turney,                
                       Andy Simmonett, and Alex Sokolov              
         ------------------------------------------------------------

  ==> Geometry <==

    Molecular point group: c2v
    Full point group: C_inf_v

    Geometry (in Angstrom), charge = 0, multiplicity = 6:

       Center              X                  Y                   Z               Mass       
    ------------   -----------------  -----------------  -----------------  -----------------
         C            0.000000000000     0.000000000000     1.262276972429    12.000000000000
         CL           0.000000000000     0.000000000000    -0.433166160952    34.968852682000

  Nuclear repulsion =   31.835969267057884

  ==> Basis Set <==

  Basis Set: CC-PVDZ
    Blend: CC-PVDZ
    Number of shells: 14
    Number of basis functions: 32
    Number of Cartesian functions: 34
    Spherical Harmonics?: true
    Max angular momentum: 2

  ==> DFJKGrad: Density-Fitted SCF Gradients <==

    Gradient:                    1
    J tasked:                  Yes
    K tasked:                  Yes
    wK tasked:                  No
    OpenMP threads:              1
    Integrals threads:           1
    Memory [MiB]:              375
    Schwarz Cutoff:          1E-12
    Fitting Condition:       1E-10

   => Auxiliary Basis Set <=

  Basis Set: (CC-PVDZ AUX)
    Blend: CC-PVDZ-JKFIT
    Number of shells: 60
    Number of basis functions: 182
    Number of Cartesian functions: 211
    Spherical Harmonics?: true
    Max angular momentum: 3

  ==> DFT Potential <==

   => LibXC <=

    Version 6.2.2
    S. Lehtola, C. Steigemann, M. J.T. Oliveira, and M. A.L. Marques.,  SoftwareX 7, 1–5 (2018) (10.1016/j.softx.2017.11.002)

   => Composite Functional: B3LYP <= 

    B3LYP Hyb-GGA Exchange-Correlation Functional

    P. J. Stephens, F. J. Devlin, C. F. Chabalowski, and M. J. Frisch.,  J. Phys. Chem. 98, 11623 (1994) (10.1021/j100096a001)

    Deriv               =              1
    GGA                 =           TRUE
    Meta                =          FALSE

    Exchange Hybrid     =           TRUE
    MP2 Hybrid          =          FALSE

   => Exchange Functionals <=

    0.0800   Slater exchange
    0.7200         Becke 88

   => Exact (HF) Exchange <=

    0.2000               HF 

   => Correlation Functionals <=

    0.1900   Vosko, Wilk & Nusair (VWN5_RPA)
    0.8100   Lee, Yang & Parr

   => LibXC Density Thresholds  <==

    XC_HYB_GGA_XC_B3LYP:  1.00E-15 

   => Molecular Quadrature <=

    Radial Scheme          =       TREUTLER
    Pruning Scheme         =           NONE
    Nuclear Scheme         =       TREUTLER

    Blocking Scheme        =         OCTREE
    BS radius alpha        =              1
    Pruning alpha          =              1
    Radial Points          =             75
    Spherical Points       =            302
    Total Points           =          41114
    Total Blocks           =            365
    Max Points             =            255
    Max Functions          =             32
    Weights Tolerance      =       1.00E-15


  -Total Gradient:
     Atom            X                  Y                   Z
    ------   -----------------  -----------------  -----------------
       1        0.000000000000    -0.000000000000    -0.241969268256
       2        0.000000000000    -0.000000000000     0.241957585949


*** tstop() called on Joses-MacBook-Pro-2.local at Wed Jul 16 19:06:01 2025
Module time:
	user time   =       0.91 seconds =       0.02 minutes
	system time =       1.33 seconds =       0.02 minutes
	total time  =          0 seconds =       0.00 minutes
Total time:
	user time   =      20.98 seconds =       0.35 minutes
	system time =      21.64 seconds =       0.36 minutes
	total time  =          4 seconds =       0.07 minutes

    			-----------------------------------------

    			 OPTKING 3.0: for geometry optimizations 

    			     By R.A. King, Bethel University     

    			        with contributions from          

    			    A.V. Copan, J. Cayton, A. Heide      

    			-----------------------------------------

    
	                            ===> Fragment 1 <== 

	 Z (Atomic Numbers)          Masses                          Geom                  
	       6.000000            12.000000          0.00000000  0.00000000  2.38535777   
	      17.000000            34.968853          0.00000000  0.00000000 -0.81856541   

	 - Coordinate -           - BOHR/RAD -       - ANG/DEG -
	 R(1,2)           =         3.203923           1.695443


	        --- Internal Coordinate Step in ANG or DEG, aJ/ANG or AJ/DEG ---
	-------------------------------------------------------------------------------
	           Coordinate      Previous         Force          Change          New 
	           ----------      --------        ------          ------        ------
	               R(1,2)       1.69544        1.99347        0.20538       1.90082
	-------------------------------------------------------------------------------

	                                 ==> Convergence Check <==                                  
    
	Measures of convergence in internal coordinates in au.
    
	Criteria marked as inactive (o), active & met (*), and active & unmet ( ).

	----------------------------------------------------------------------------------------------
	   Step    Total Energy     Delta E     Max Force     RMS Force      Max Disp      RMS Disp   
	----------------------------------------------------------------------------------------------
	  Convergence Criteria     1.00e-06 *    3.00e-04 *             o    1.20e-03 *             o
	----------------------------------------------------------------------------------------------
	     4    -497.73557959   -1.09e-01      2.42e-01      2.42e-01 o    3.88e-01      3.88e-01 o  ~
	----------------------------------------------------------------------------------------------

Next Geometry in Ang 
	Fragment 1 (Ang)

	    C   0.0000000000   0.0000000000   1.3649675816
	   Cl   0.0000000000   0.0000000000  -0.5358567701


    Structure for next step:
    Molecular point group: c2v
    Full point group: C_inf_v

    Geometry (in Angstrom), charge = 0, multiplicity = 6:

    C            0.000000000000     0.000000000000     1.415185658810
    CL           0.000000000000     0.000000000000    -0.485638692815


Scratch directory: /tmp/
gradient() will perform analytic gradient computation.
   => Libint2 <=

    Primary   basis highest AM E, G, H:  6, 6, 3
    Auxiliary basis highest AM E, G, H:  7, 7, 4
    Onebody   basis highest AM E, G, H:  -, -, -
    Solid Harmonics ordering:            Gaussian

*** tstart() called on Joses-MacBook-Pro-2.local
*** at Wed Jul 16 19:06:01 2025

   => Loading Basis Set <=

    Name: CC-PVDZ
    Role: ORBITAL
    Keyword: BASIS
    atoms 1 entry C          line   138 file /Users/joseantoniorodriguesromero/anaconda3/share/psi4/basis/cc-pvdz.gbs 
    atoms 2 entry CL         line   658 file /Users/joseantoniorodriguesromero/anaconda3/share/psi4/basis/cc-pvdz.gbs 


         ---------------------------------------------------------
                                   SCF
               by Justin Turney, Rob Parrish, Andy Simmonett
                          and Daniel G. A. Smith
                              UKS Reference
                        1 Threads,    500 MiB Core
         ---------------------------------------------------------

  ==> Geometry <==

    Molecular point group: c2v
    Full point group: C_inf_v

    Geometry (in Angstrom), charge = 0, multiplicity = 6:

       Center              X                  Y                   Z               Mass       
    ------------   -----------------  -----------------  -----------------  -----------------
         C            0.000000000000     0.000000000000     1.415185658810    12.000000000000
         CL           0.000000000000     0.000000000000    -0.485638692815    34.968852682000

  Running in c2v symmetry.

  Rotational constants: A = ************  B =      0.52223  C =      0.52223 [cm^-1]
  Rotational constants: A = ************  B =  15655.99043  C =  15655.99043 [MHz]
  Nuclear repulsion =   28.396140570387175

  Charge       = 0
  Multiplicity = 6
  Electrons    = 23
  Nalpha       = 14
  Nbeta        = 9

  ==> Algorithm <==

  SCF Algorithm Type is DF.
  DIIS enabled.
  MOM disabled.
  Fractional occupation disabled.
  Guess Type is READ.
  Energy threshold   = 1.00e-08
  Density threshold  = 1.00e-08
  Integral threshold = 1.00e-12

  ==> Primary Basis <==

  Basis Set: CC-PVDZ
    Blend: CC-PVDZ
    Number of shells: 14
    Number of basis functions: 32
    Number of Cartesian functions: 34
    Spherical Harmonics?: true
    Max angular momentum: 2

  ==> DFT Potential <==

   => LibXC <=

    Version 6.2.2
[...]
	-------------------------------------------------------------------------------

	                                 ==> Convergence Check <==                                  
    
	Measures of convergence in internal coordinates in au.
    
	Criteria marked as inactive (o), active & met (*), and active & unmet ( ).

	----------------------------------------------------------------------------------------------
	   Step    Total Energy     Delta E     Max Force     RMS Force      Max Disp      RMS Disp   
	----------------------------------------------------------------------------------------------
	  Convergence Criteria     1.00e-06 *    3.00e-04 *             o    1.20e-03 *             o
	----------------------------------------------------------------------------------------------
	    13    -497.85108351   -1.17e-06      8.46e-05 *    8.46e-05 o    2.86e-03      2.86e-03 o  ~
	----------------------------------------------------------------------------------------------

Next Geometry in Ang 
	Fragment 1 (Ang)

	    C   0.0000000000   0.0000000000   1.8782217631
	   Cl   0.0000000000   0.0000000000  -0.6450317648


    Structure for next step:
    Molecular point group: c2v
    Full point group: C_inf_v

    Geometry (in Angstrom), charge = 0, multiplicity = 6:

    C            0.000000000000     0.000000000000     1.878591361290
    CL           0.000000000000     0.000000000000    -0.644662166657


Scratch directory: /tmp/
gradient() will perform analytic gradient computation.
   => Libint2 <=

    Primary   basis highest AM E, G, H:  6, 6, 3
    Auxiliary basis highest AM E, G, H:  7, 7, 4
    Onebody   basis highest AM E, G, H:  -, -, -
    Solid Harmonics ordering:            Gaussian

*** tstart() called on Joses-MacBook-Pro-2.local
*** at Wed Jul 16 19:06:10 2025

   => Loading Basis Set <=

    Name: CC-PVDZ
    Role: ORBITAL
    Keyword: BASIS
    atoms 1 entry C          line   138 file /Users/joseantoniorodriguesromero/anaconda3/share/psi4/basis/cc-pvdz.gbs 
    atoms 2 entry CL         line   658 file /Users/joseantoniorodriguesromero/anaconda3/share/psi4/basis/cc-pvdz.gbs 


         ---------------------------------------------------------
                                   SCF
               by Justin Turney, Rob Parrish, Andy Simmonett
                          and Daniel G. A. Smith
                              UKS Reference
                        1 Threads,    500 MiB Core
         ---------------------------------------------------------

  ==> Geometry <==

    Molecular point group: c2v
    Full point group: C_inf_v

    Geometry (in Angstrom), charge = 0, multiplicity = 6:

       Center              X                  Y                   Z               Mass       
    ------------   -----------------  -----------------  -----------------  -----------------
         C            0.000000000000     0.000000000000     1.878591361290    12.000000000000
         CL           0.000000000000     0.000000000000    -0.644662166657    34.968852682000

  Running in c2v symmetry.

  Rotational constants: A = ************  B =      0.29636  C =      0.29636 [cm^-1]
  Rotational constants: A = ************  B =   8884.69949  C =   8884.69949 [MHz]
  Nuclear repulsion =   21.391459435414028

  Charge       = 0
  Multiplicity = 6
  Electrons    = 23
  Nalpha       = 14
  Nbeta        = 9

  ==> Algorithm <==

  SCF Algorithm Type is DF.
  DIIS enabled.
  MOM disabled.
  Fractional occupation disabled.
  Guess Type is READ.
  Energy threshold   = 1.00e-08
  Density threshold  = 1.00e-08
  Integral threshold = 1.00e-12

  ==> Primary Basis <==

  Basis Set: CC-PVDZ
    Blend: CC-PVDZ
    Number of shells: 14
    Number of basis functions: 32
    Number of Cartesian functions: 34
    Spherical Harmonics?: true
    Max angular momentum: 2

  ==> DFT Potential <==

   => LibXC <=

    Version 6.2.2
    S. Lehtola, C. Steigemann, M. J.T. Oliveira, and M. A.L. Marques.,  SoftwareX 7, 1–5 (2018) (10.1016/j.softx.2017.11.002)

   => Composite Functional: B3LYP <= 

    B3LYP Hyb-GGA Exchange-Correlation Functional

    P. J. Stephens, F. J. Devlin, C. F. Chabalowski, and M. J. Frisch.,  J. Phys. Chem. 98, 11623 (1994) (10.1021/j100096a001)

    Deriv               =              1
    GGA                 =           TRUE
    Meta                =          FALSE

    Exchange Hybrid     =           TRUE
    MP2 Hybrid          =          FALSE

   => Exchange Functionals <=

    0.0800   Slater exchange
    0.7200         Becke 88

   => Exact (HF) Exchange <=

    0.2000               HF 

   => Correlation Functionals <=

    0.1900   Vosko, Wilk & Nusair (VWN5_RPA)
    0.8100   Lee, Yang & Parr

   => LibXC Density Thresholds  <==

    XC_HYB_GGA_XC_B3LYP:  1.00E-15 

   => Molecular Quadrature <=

    Radial Scheme          =       TREUTLER
    Pruning Scheme         =           NONE
    Nuclear Scheme         =       TREUTLER

    Blocking Scheme        =         OCTREE
    BS radius alpha        =              1
    Pruning alpha          =              1
    Radial Points          =             75
    Spherical Points       =            302
    Total Points           =          41202
    Total Blocks           =            370
    Max Points             =            255
    Max Functions          =             32
    Weights Tolerance      =       1.00E-15

   => Loading Basis Set <=

    Name: (CC-PVDZ AUX)
    Role: JKFIT
    Keyword: DF_BASIS_SCF
    atoms 1 entry C          line   121 file /Users/joseantoniorodriguesromero/anaconda3/share/psi4/basis/cc-pvdz-jkfit.gbs 
    atoms 2 entry CL         line   667 file /Users/joseantoniorodriguesromero/anaconda3/share/psi4/basis/cc-pvdz-jkfit.gbs 

   => Loading Basis Set <=

    Name: CC-PVDZ
    Role: ORBITAL
    Keyword: BASIS
    atoms 1 entry C          line   138 file /Users/joseantoniorodriguesromero/anaconda3/share/psi4/basis/cc-pvdz.gbs 
    atoms 2 entry CL         line   658 file /Users/joseantoniorodriguesromero/anaconda3/share/psi4/basis/cc-pvdz.gbs 

  Reading orbitals from file /tmp/sextet_CCl.default.68858.180.npy, no projection.

  ==> Integral Setup <==

  DFHelper Memory: AOs need 0.002 GiB; user supplied 0.329 GiB. 
  Using in-core AOs.

  ==> MemDFJK: Density-Fitted J/K Matrices <==

    J tasked:                   Yes
    K tasked:                   Yes
    wK tasked:                   No
    OpenMP threads:               1
    Memory [MiB]:               336
    Algorithm:                 Core
    Schwarz Cutoff:           1E-12
    Mask sparsity (%):       0.0000
    Fitting Condition:        1E-10

   => Auxiliary Basis Set <=

  Basis Set: (CC-PVDZ AUX)
    Blend: CC-PVDZ-JKFIT
    Number of shells: 60
    Number of basis functions: 182
    Number of Cartesian functions: 211
    Spherical Harmonics?: true
    Max angular momentum: 3

  Cached 100.0% of DFT collocation blocks in 0.037 [GiB].

  Minimum eigenvalue in the overlap matrix is 7.1553873095E-02.
  Reciprocal condition number of the overlap matrix is 3.2261270277E-02.
    Using symmetric orthogonalization.

  ==> Pre-Iterations <==

  SCF Guess: Orbitals guess was supplied from a previous computation.

   -------------------------------------------------------
    Irrep   Nso     Nmo     Nalpha   Nbeta   Ndocc  Nsocc
   -------------------------------------------------------
     A1        16      16       8       6       6       2
     A2         2       2       0       0       0       0
     B1         7       7       3       2       2       1
     B2         7       7       3       1       1       2
   -------------------------------------------------------
    Total      32      32      14       9       9       5
   -------------------------------------------------------

  ==> Iterations <==

                           Total Energy        Delta E     RMS |[F,P]|

   @DF-UKS iter   0:  -497.85098269191792   -4.97851e+02   6.74525e-05 
   @DF-UKS iter   1:  -497.85108360916786   -1.00917e-04   8.19857e-06 DIIS
   @DF-UKS iter   2:  -497.85108359552891    1.36390e-08   1.02330e-05 DIIS/DAMP=1%
   @DF-UKS iter   3:  -497.85107692144987    6.67408e-06   1.33448e-06 DIIS/DAMP=1%
   @DF-UKS iter   4:  -497.85108446688935   -7.54544e-06   3.96092e-07 DIIS/DAMP=1%
   @DF-UKS iter   5:  -497.85108361882499    8.48064e-07   8.36670e-08 DIIS/DAMP=1%
   @DF-UKS iter   6:  -497.85108364634550   -2.75205e-08   1.91639e-08 DIIS/DAMP=1%
   @DF-UKS iter   7:  -497.85108363897541    7.37009e-09   4.36345e-09 DIIS/DAMP=1%
  Energy and wave function converged.


  ==> Post-Iterations <==

   Electrons on quadrature grid:
      Nalpha   =   14.0000001679 ; deviation = 1.679e-07
      Nbeta    =    9.0000001108 ; deviation = 1.108e-07
      Ntotal   =   23.0000002788 ; deviation = 2.788e-07 

   @Spin Contamination Metric:   4.339733824E-03
   @S^2 Expected:                8.750000000E+00
   @S^2 Observed:                8.754339734E+00
   @S   Expected:                2.500000000E+00
   @S   Observed:                2.500000000E+00

    Orbital Energies [Eh]
    ---------------------

    Alpha Occupied:                                                       

       1A1  -101.665875     2A1   -10.229023     3A1    -9.577676  
       1B2    -7.349987     4A1    -7.333673     1B1    -7.325866  
       5A1    -0.910965     6A1    -0.572587     2B2    -0.461297  
       7A1    -0.419061     2B1    -0.405496     3B2    -0.222793  
       3B1    -0.221191     8A1    -0.200729  

    Alpha Virtual:                                                        

       4B2     0.431339     9A1     0.445934     4B1     0.449087  
       5B2     0.501522     5B1     0.524254    10A1     0.525894  
      11A1     0.562601    12A1     0.579856     1A2     0.611408  
      13A1     0.622856     6B2     0.627657     6B1     0.665151  
      14A1     0.828570    15A1     1.147130     2A2     1.147135  
       7B2     1.159640     7B1     1.161684    16A1     1.364825  

    Beta Occupied:                                                        

       1A1  -101.655925     2A1   -10.169396     3A1    -9.567827  
       1B2    -7.325475     4A1    -7.320752     1B1    -7.319713  
       5A1    -0.838332     6A1    -0.398142     2B1    -0.381850  

    Beta Virtual:                                                         

       2B2    -0.289700     7A1    -0.248117     3B2     0.017702  
       3B1     0.018598     8A1     0.035763     9A1     0.491641  
       4B1     0.495753     4B2     0.500108     5B1     0.590836  
       5B2     0.592527    10A1     0.610508    11A1     0.636630  
      12A1     0.651209     1A2     0.674376    13A1     0.680656  
       6B1     0.705391     6B2     0.710385    14A1     0.916493  
      15A1     1.309350     2A2     1.309365     7B2     1.316907  
       7B1     1.318009    16A1     1.494200  

    Final Occupation by Irrep:
             A1    A2    B1    B2 
    DOCC [     6,    0,    2,    1 ]
    SOCC [     2,    0,    1,    2 ]
    NA   [     8,    0,    3,    3 ]
    NB   [     6,    0,    2,    1 ]

  @DF-UKS Final Energy:  -497.85108363897541

   => Energetics <=

    Nuclear Repulsion Energy =             21.3914594354140277
    One-Electron Energy =                -727.3949058505975245
    Two-Electron Energy =                 235.1427622605140471
    DFT Exchange-Correlation Energy =     -26.9903994843059962
    Empirical Dispersion Energy =           0.0000000000000000
    VV10 Nonlocal Energy =                  0.0000000000000000
    Total Energy =                       -497.8510836389754672

  UHF NO Occupations:
  HONO-2 :    8 A1 1.0000000
  HONO-1 :    2 B2 1.0000000
  HONO-0 :    3 B2 1.0000000
  LUNO+0 :    9 A1 0.0014126
  LUNO+1 :   10 A1 0.0006679
  LUNO+2 :    4 B1 0.0000902
  LUNO+3 :   11 A1 0.0000004


Computation Completed


Properties will be evaluated at   0.000000,   0.000000,   0.000000 [a0]

Properties computed using the SCF density matrix


 Multipole Moments:

 ------------------------------------------------------------------------------------
     Multipole            Electronic (a.u.)      Nuclear  (a.u.)        Total (a.u.)
 ------------------------------------------------------------------------------------

 L = 1.  Multiply by 2.5417464519 to convert [e a0] to [Debye]
 Dipole X            :          0.0000000            0.0000000            0.0000000
 Dipole Y            :          0.0000000            0.0000000            0.0000000
 Dipole Z            :         -1.7488246            0.5901451           -1.1586795
 Magnitude           :                                                    1.1586795

 ------------------------------------------------------------------------------------

*** tstop() called on Joses-MacBook-Pro-2.local at Wed Jul 16 19:06:11 2025
Module time:
	user time   =       2.50 seconds =       0.04 minutes
	system time =       3.18 seconds =       0.05 minutes
	total time  =          1 seconds =       0.02 minutes
Total time:
	user time   =      71.71 seconds =       1.20 minutes
	system time =      68.17 seconds =       1.14 minutes
	total time  =         14 seconds =       0.23 minutes

*** tstart() called on Joses-MacBook-Pro-2.local
*** at Wed Jul 16 19:06:11 2025


         ------------------------------------------------------------
                                   SCF GRAD                          
                          Rob Parrish, Justin Turney,                
                       Andy Simmonett, and Alex Sokolov              
         ------------------------------------------------------------

  ==> Geometry <==

    Molecular point group: c2v
    Full point group: C_inf_v

    Geometry (in Angstrom), charge = 0, multiplicity = 6:

       Center              X                  Y                   Z               Mass       
    ------------   -----------------  -----------------  -----------------  -----------------
         C            0.000000000000     0.000000000000     1.878591361290    12.000000000000
         CL           0.000000000000     0.000000000000    -0.644662166657    34.968852682000

  Nuclear repulsion =   21.391459435414028

  ==> Basis Set <==

  Basis Set: CC-PVDZ
    Blend: CC-PVDZ
    Number of shells: 14
    Number of basis functions: 32
    Number of Cartesian functions: 34
    Spherical Harmonics?: true
    Max angular momentum: 2

  ==> DFJKGrad: Density-Fitted SCF Gradients <==

    Gradient:                    1
    J tasked:                  Yes
    K tasked:                  Yes
    wK tasked:                  No
    OpenMP threads:              1
    Integrals threads:           1
    Memory [MiB]:              375
    Schwarz Cutoff:          1E-12
    Fitting Condition:       1E-10

   => Auxiliary Basis Set <=

  Basis Set: (CC-PVDZ AUX)
    Blend: CC-PVDZ-JKFIT
    Number of shells: 60
    Number of basis functions: 182
    Number of Cartesian functions: 211
    Spherical Harmonics?: true
    Max angular momentum: 3

  ==> DFT Potential <==

   => LibXC <=

    Version 6.2.2
    S. Lehtola, C. Steigemann, M. J.T. Oliveira, and M. A.L. Marques.,  SoftwareX 7, 1–5 (2018) (10.1016/j.softx.2017.11.002)

   => Composite Functional: B3LYP <= 

    B3LYP Hyb-GGA Exchange-Correlation Functional

    P. J. Stephens, F. J. Devlin, C. F. Chabalowski, and M. J. Frisch.,  J. Phys. Chem. 98, 11623 (1994) (10.1021/j100096a001)

    Deriv               =              1
    GGA                 =           TRUE
    Meta                =          FALSE

    Exchange Hybrid     =           TRUE
    MP2 Hybrid          =          FALSE

   => Exchange Functionals <=

    0.0800   Slater exchange
    0.7200         Becke 88

   => Exact (HF) Exchange <=

    0.2000               HF 

   => Correlation Functionals <=

    0.1900   Vosko, Wilk & Nusair (VWN5_RPA)
    0.8100   Lee, Yang & Parr

   => LibXC Density Thresholds  <==

    XC_HYB_GGA_XC_B3LYP:  1.00E-15 

   => Molecular Quadrature <=

    Radial Scheme          =       TREUTLER
    Pruning Scheme         =           NONE
    Nuclear Scheme         =       TREUTLER

    Blocking Scheme        =         OCTREE
    BS radius alpha        =              1
    Pruning alpha          =              1
    Radial Points          =             75
    Spherical Points       =            302
    Total Points           =          41202
    Total Blocks           =            370
    Max Points             =            255
    Max Functions          =             32
    Weights Tolerance      =       1.00E-15


  -Total Gradient:
     Atom            X                  Y                   Z
    ------   -----------------  -----------------  -----------------
       1        0.000000000000     0.000000000000    -0.000016089990
       2        0.000000000000     0.000000000000     0.000011686496


*** tstop() called on Joses-MacBook-Pro-2.local at Wed Jul 16 19:06:11 2025
Module time:
	user time   =       0.81 seconds =       0.01 minutes
	system time =       1.58 seconds =       0.03 minutes
	total time  =          0 seconds =       0.00 minutes
Total time:
	user time   =      72.53 seconds =       1.21 minutes
	system time =      69.75 seconds =       1.16 minutes
	total time  =         14 seconds =       0.23 minutes

    			-----------------------------------------

    			 OPTKING 3.0: for geometry optimizations 

    			     By R.A. King, Bethel University     

    			        with contributions from          

    			    A.V. Copan, J. Cayton, A. Heide      

    			-----------------------------------------

    
	                            ===> Fragment 1 <== 

	 Z (Atomic Numbers)          Masses                          Geom                  
	       6.000000            12.000000          0.00000000  0.00000000  3.55002317   
	      17.000000            34.968853          0.00000000  0.00000000 -1.21823494   

	 - Coordinate -           - BOHR/RAD -       - ANG/DEG -
	 R(1,2)           =         4.768258           2.523254


	        --- Internal Coordinate Step in ANG or DEG, aJ/ANG or AJ/DEG ---
	-------------------------------------------------------------------------------
	           Coordinate      Previous         Force          Change          New 
	           ----------      --------        ------          ------        ------
	               R(1,2)       2.52325        0.00011        0.00027       2.52353
	-------------------------------------------------------------------------------

	                                 ==> Convergence Check <==                                  
    
	Measures of convergence in internal coordinates in au.
    
	Criteria marked as inactive (o), active & met (*), and active & unmet ( ).

	----------------------------------------------------------------------------------------------
	   Step    Total Energy     Delta E     Max Force     RMS Force      Max Disp      RMS Disp   
	----------------------------------------------------------------------------------------------
	  Convergence Criteria     1.00e-06 *    3.00e-04 *             o    1.20e-03 *             o
	----------------------------------------------------------------------------------------------
	    14    -497.85108364   -1.24e-07 *    1.39e-05 *    1.39e-05 o    5.18e-04 *    5.18e-04 o  ~
	----------------------------------------------------------------------------------------------

Next Geometry in Ang 
	Fragment 1 (Ang)

	    C   0.0000000000   0.0000000000   1.8787282935
	   Cl   0.0000000000   0.0000000000  -0.6447990989


    Final optimized geometry and variables:
    Molecular point group: c2v
    Full point group: C_inf_v

    Geometry (in Angstrom), charge = 0, multiplicity = 6:

    C            0.000000000000     0.000000000000     1.878591361290
    CL           0.000000000000     0.000000000000    -0.644662166657


    Psi4 stopped on: Wednesday, 16 July 2025 07:06PM
    Psi4 wall time for execution: 0:00:14.29

*** Psi4 exiting successfully. Buy a developer a beer!
