
    -----------------------------------------------------------------------
          Psi4: An Open-Source Ab Initio Electronic Structure Package
                               Psi4 1.9.1 release

                         Git: Rev {} zzzzzzz 


    D. G. A. Smith, L. A. Burns, A. C. Simmonett, R. M. Parrish,
    M. C. Schieber, R. Galvelis, P. Kraus, H. Kruse, R. Di Remigio,
    A. Alenaizan, A. M. James, S. Lehtola, J. P. Misiewicz, M. Scheurer,
    R. A. Shaw, J. B. Schriber, Y. Xie, Z. L. Glick, D. A. Sirianni,
    J. S. O'Brien, J. M. Waldrop, A. Kumar, E. G. Hohenstein,
    B. P. Pritchard, B. R. Brooks, H. F. Schaefer III, A. Yu. Sokolov,
    K. Patkowski, A. E. DePrince III, U. Bozkaya, R. A. King,
    F. A. Evangelista, J. M. Turney, T. D. Crawford, C. D. Sherrill,
    J. Chem. Phys. 152(18) 184108 (2020). https://doi.org/10.1063/5.0006002

                            Additional Code Authors
    E. T. Seidl, C. L. Janssen, E. F. Valeev, M. L. Leininger,
    J. F. Gonthier, R. M. Richard, H. R. McAlexander, M. Saitow, X. Wang,
    P. Verma, M. H. Lechner, A. Jiang, S. Behnle, A. G. Heide,
    M. F. Herbst, and D. L. Poole

             Previous Authors, Complete List of Code Contributors,
                       and Citations for Specific Modules
    https://github.com/psi4/psi4/blob/master/codemeta.json
    https://github.com/psi4/psi4/graphs/contributors
    http://psicode.org/psi4manual/master/introduction.html#citing-psifour

    -----------------------------------------------------------------------


    Psi4 started on: Wednesday, 16 July 2025 08:20PM

    Process ID: 69600
    Host:       Joses-MacBook-Pro-2.local
    PSIDATADIR: /Users/joseantoniorodriguesromero/anaconda3/share/psi4
    Memory:     500.0 MiB
    Threads:    1
    
  ==> Input File <==

--------------------------------------------------------------------------
molecule { 
0 1
P   0.00000        0.60000        0.00000
P   0.00000       -0.60000        0.00000
}

set { 
basis              cc-pvdz
reference          uks
maxiter            500
geom_maxiter       500
DAMPING_PERCENTAGE 1
guess              SAP
}

optimize('b3lyp')
--------------------------------------------------------------------------

Scratch directory: /tmp/
gradient() will perform analytic gradient computation.
   => Libint2 <=

    Primary   basis highest AM E, G, H:  6, 6, 3
    Auxiliary basis highest AM E, G, H:  7, 7, 4
    Onebody   basis highest AM E, G, H:  -, -, -
    Solid Harmonics ordering:            Gaussian

*** tstart() called on Joses-MacBook-Pro-2.local
*** at Wed Jul 16 20:20:49 2025

   => Loading Basis Set <=

    Name: CC-PVDZ
    Role: ORBITAL
    Keyword: BASIS
    atoms 1-2 entry P          line   538 file /Users/joseantoniorodriguesromero/anaconda3/share/psi4/basis/cc-pvdz.gbs 


         ---------------------------------------------------------
                                   SCF
               by Justin Turney, Rob Parrish, Andy Simmonett
                          and Daniel G. A. Smith
                              UKS Reference
                        1 Threads,    500 MiB Core
         ---------------------------------------------------------

  ==> Geometry <==

    Molecular point group: d2h
    Full point group: D_inf_h

    Geometry (in Angstrom), charge = 0, multiplicity = 1:

       Center              X                  Y                   Z               Mass       
    ------------   -----------------  -----------------  -----------------  -----------------
         P           -0.000000000000     0.600000000000     0.000000000000    30.973761998420
         P            0.000000000000    -0.600000000000     0.000000000000    30.973761998420

  Running in d2h symmetry.

  Rotational constants: A = ************  B =      0.75591  C =      0.75591 [cm^-1]
  Rotational constants: A = ************  B =  22661.60921  C =  22661.60921 [MHz]
  Nuclear repulsion =   99.220727000625018

  Charge       = 0
  Multiplicity = 1
  Electrons    = 30
  Nalpha       = 15
  Nbeta        = 15

  ==> Algorithm <==

  SCF Algorithm Type is DF.
  DIIS enabled.
  MOM disabled.
  Fractional occupation disabled.
  Guess Type is SAP.
  Energy threshold   = 1.00e-08
  Density threshold  = 1.00e-08
  Integral threshold = 1.00e-12

  ==> Primary Basis <==

  Basis Set: CC-PVDZ
    Blend: CC-PVDZ
    Number of shells: 16
    Number of basis functions: 36
    Number of Cartesian functions: 38
    Spherical Harmonics?: true
    Max angular momentum: 2

  ==> DFT Potential <==

   => LibXC <=

    Version 6.2.2
    S. Lehtola, C. Steigemann, M. J.T. Oliveira, and M. A.L. Marques.,  SoftwareX 7, 1–5 (2018) (10.1016/j.softx.2017.11.002)

   => Composite Functional: B3LYP <= 

    B3LYP Hyb-GGA Exchange-Correlation Functional

    P. J. Stephens, F. J. Devlin, C. F. Chabalowski, and M. J. Frisch.,  J. Phys. Chem. 98, 11623 (1994) (10.1021/j100096a001)

    Deriv               =              1
    GGA                 =           TRUE
    Meta                =          FALSE

    Exchange Hybrid     =           TRUE
    MP2 Hybrid          =          FALSE

   => Exchange Functionals <=

    0.0800   Slater exchange
    0.7200         Becke 88

   => Exact (HF) Exchange <=

    0.2000               HF 

   => Correlation Functionals <=

    0.1900   Vosko, Wilk & Nusair (VWN5_RPA)
    0.8100   Lee, Yang & Parr

   => LibXC Density Thresholds  <==

    XC_HYB_GGA_XC_B3LYP:  1.00E-15 

   => Molecular Quadrature <=

    Radial Scheme          =       TREUTLER
    Pruning Scheme         =           NONE
    Nuclear Scheme         =       TREUTLER

    Blocking Scheme        =         OCTREE
    BS radius alpha        =              1
    Pruning alpha          =              1
    Radial Points          =             75
    Spherical Points       =            302
    Total Points           =          40692
    Total Blocks           =            378
    Max Points             =            246
    Max Functions          =             36
    Weights Tolerance      =       1.00E-15

   => Loading Basis Set <=

    Name: (CC-PVDZ AUX)
    Role: JKFIT
    Keyword: DF_BASIS_SCF
    atoms 1-2 entry P          line   519 file /Users/joseantoniorodriguesromero/anaconda3/share/psi4/basis/cc-pvdz-jkfit.gbs 

  ==> Integral Setup <==

  DFHelper Memory: AOs need 0.003 GiB; user supplied 0.324 GiB. 
  Using in-core AOs.

  ==> MemDFJK: Density-Fitted J/K Matrices <==

    J tasked:                   Yes
    K tasked:                   Yes
    wK tasked:                   No
    OpenMP threads:               1
    Memory [MiB]:               331
    Algorithm:                 Core
    Schwarz Cutoff:           1E-12
    Mask sparsity (%):       0.0000
    Fitting Condition:        1E-10

   => Auxiliary Basis Set <=

  Basis Set: (CC-PVDZ AUX)
    Blend: CC-PVDZ-JKFIT
    Number of shells: 72
    Number of basis functions: 224
    Number of Cartesian functions: 260
    Spherical Harmonics?: true
    Max angular momentum: 3

  Cached 100.0% of DFT collocation blocks in 0.043 [GiB].

  Minimum eigenvalue in the overlap matrix is 3.6201663013E-03.
  Reciprocal condition number of the overlap matrix is 1.1785842429E-03.
    Using symmetric orthogonalization.

  ==> Pre-Iterations <==

  SCF Guess: Superposition of Atomic Potentials (doi:10.1021/acs.jctc.8b01089).

  ==> SAP guess <==

   => Molecular Quadrature <=

    Radial Scheme          =       TREUTLER
    Pruning Scheme         =           NONE
    Nuclear Scheme         =       TREUTLER

    Blocking Scheme        =         OCTREE
    BS radius alpha        =              1
    Pruning alpha          =              1
    Radial Points          =             75
    Spherical Points       =            302
    Total Points           =          40692
    Total Blocks           =            378
    Max Points             =            246
    Max Functions          =             36
    Weights Tolerance      =       1.00E-15

   -------------------------------------------------------
    Irrep   Nso     Nmo     Nalpha   Nbeta   Ndocc  Nsocc
   -------------------------------------------------------
     Ag         9       9       5       5       5       0
     B1g        4       4       1       1       1       0
     B2g        1       1       0       0       0       0
     B3g        4       4       1       1       1       0
     Au         1       1       0       0       0       0
     B1u        4       4       2       2       2       0
     B2u        9       9       4       4       4       0
     B3u        4       4       2       2       2       0
   -------------------------------------------------------
    Total      36      36      15      15      15       0
   -------------------------------------------------------

  ==> Iterations <==

                           Total Energy        Delta E     RMS |[F,P]|

   @DF-UKS iter   1:  -681.31115710797769   -6.81311e+02   3.64100e-02 ADIIS/DIIS
   @DF-UKS iter   2:  -681.39700354234230   -8.58464e-02   3.44644e-02 ADIIS/DIIS/DAMP=1%
   @DF-UKS iter   3:  -681.53385820007156   -1.36855e-01   1.16401e-03 ADIIS/DIIS/DAMP=1%
   @DF-UKS iter   4:  -681.58184188670350   -4.79837e-02   2.10112e-04 ADIIS/DIIS/DAMP=1%
   @DF-UKS iter   5:  -681.58004035809461    1.80153e-03   1.54399e-05 DIIS/DAMP=1%
   @DF-UKS iter   6:  -681.58027521021336   -2.34852e-04   1.09947e-06 DIIS/DAMP=1%
   @DF-UKS iter   7:  -681.58028861386583   -1.34037e-05   6.81951e-08 DIIS/DAMP=1%
   @DF-UKS iter   8:  -681.58028999124383   -1.37738e-06   8.01472e-09 DIIS/DAMP=1%
   @DF-UKS iter   9:  -681.58029002084572   -2.96019e-08   1.76461e-10 DIIS/DAMP=1%
   @DF-UKS iter  10:  -681.58029003148022   -1.06345e-08   3.67571e-11 DIIS/DAMP=1%
   @DF-UKS iter  11:  -681.58029003158390   -1.03682e-10   1.50349e-12 DIIS/DAMP=1%
  Energy and wave function converged.


  ==> Post-Iterations <==

   Electrons on quadrature grid:
      Nalpha   =   14.9999975398 ; deviation = -2.460e-06
      Nbeta    =   14.9999975398 ; deviation = -2.460e-06
      Ntotal   =   29.9999950796 ; deviation = -4.920e-06 

   @Spin Contamination Metric:  -2.309263891E-14
   @S^2 Expected:                0.000000000E+00
   @S^2 Observed:               -2.309263891E-14
   @S   Expected:                0.000000000E+00
   @S   Observed:                0.000000000E+00

    Orbital Energies [Eh]
    ---------------------

    Alpha Occupied:                                                       

       1Ag   -77.053713     1B2u  -77.053710     2Ag    -6.654310  
       2B2u   -6.596717     3Ag    -4.858718     1B1u   -4.767785  
       1B3u   -4.767785     1B3g   -4.749239     1B1g   -4.749239  
       3B2u   -4.737844     4Ag    -0.792732     2B1u   -0.402806  
       2B3u   -0.402806     4B2u   -0.386348     5Ag    -0.228426  

    Alpha Virtual:                                                        

       2B1g   -0.003521     2B3g   -0.003521     5B2u    0.190533  
       6Ag     0.228523     3B1u    0.234181     3B3u    0.234181  
       1B2g    0.298257     7Ag     0.298258     8Ag     0.389861  
       3B3g    0.504880     3B1g    0.504880     6B2u    0.522575  
       4B1u    0.551067     4B3u    0.551067     1Au     0.675988  
       7B2u    0.675988     8B2u    0.730156     9Ag     0.908102  
       4B1g    1.165248     4B3g    1.165248     9B2u    2.782331  

    Beta Occupied:                                                        

       1Ag   -77.053713     1B2u  -77.053710     2Ag    -6.654310  
       2B2u   -6.596717     3Ag    -4.858718     1B1u   -4.767785  
       1B3u   -4.767785     1B3g   -4.749239     1B1g   -4.749239  
       3B2u   -4.737844     4Ag    -0.792732     2B1u   -0.402806  
       2B3u   -0.402806     4B2u   -0.386348     5Ag    -0.228426  

    Beta Virtual:                                                         

       2B1g   -0.003521     2B3g   -0.003521     5B2u    0.190533  
       6Ag     0.228523     3B1u    0.234181     3B3u    0.234181  
       1B2g    0.298257     7Ag     0.298258     8Ag     0.389861  
       3B3g    0.504880     3B1g    0.504880     6B2u    0.522575  
       4B1u    0.551067     4B3u    0.551067     1Au     0.675988  
       7B2u    0.675988     8B2u    0.730156     9Ag     0.908102  
       4B1g    1.165248     4B3g    1.165248     9B2u    2.782331  

    Final Occupation by Irrep:
             Ag   B1g   B2g   B3g    Au   B1u   B2u   B3u 
    DOCC [     5,    1,    0,    1,    0,    2,    4,    2 ]
    SOCC [     0,    0,    0,    0,    0,    0,    0,    0 ]
    NA   [     5,    1,    0,    1,    0,    2,    4,    2 ]
    NB   [     5,    1,    0,    1,    0,    2,    4,    2 ]

  @DF-UKS Final Energy:  -681.58029003158390

   => Energetics <=

    Nuclear Repulsion Energy =             99.2207270006250184
    One-Electron Energy =               -1138.2034484876721763
    Two-Electron Energy =                 395.3460447625756160
    DFT Exchange-Correlation Energy =     -37.9436133071123436
    Empirical Dispersion Energy =           0.0000000000000000
    VV10 Nonlocal Energy =                  0.0000000000000000
    Total Energy =                       -681.5802900315838997

  UHF NO Occupations:
  HONO-2 :    5 Ag 2.0000000
  HONO-1 :    2B3u 2.0000000
  HONO-0 :    1B1g 2.0000000
  LUNO+0 :    6 Ag 0.0000000
  LUNO+1 :    5B2u 0.0000000
  LUNO+2 :    7 Ag 0.0000000
  LUNO+3 :    3B1u 0.0000000


Computation Completed


Properties will be evaluated at   0.000000,   0.000000,   0.000000 [a0]

Properties computed using the SCF density matrix


 Multipole Moments:

 ------------------------------------------------------------------------------------
     Multipole            Electronic (a.u.)      Nuclear  (a.u.)        Total (a.u.)
 ------------------------------------------------------------------------------------

 L = 1.  Multiply by 2.5417464519 to convert [e a0] to [Debye]
 Dipole X            :          0.0000000            0.0000000            0.0000000
 Dipole Y            :          0.0000000            0.0000000            0.0000000
 Dipole Z            :          0.0000000            0.0000000            0.0000000
 Magnitude           :                                                    0.0000000

 ------------------------------------------------------------------------------------

*** tstop() called on Joses-MacBook-Pro-2.local at Wed Jul 16 20:20:51 2025
Module time:
	user time   =      18.07 seconds =       0.30 minutes
	system time =       2.50 seconds =       0.04 minutes
	total time  =          2 seconds =       0.03 minutes
Total time:
	user time   =      18.07 seconds =       0.30 minutes
	system time =       2.50 seconds =       0.04 minutes
	total time  =          2 seconds =       0.03 minutes

*** tstart() called on Joses-MacBook-Pro-2.local
*** at Wed Jul 16 20:20:51 2025


         ------------------------------------------------------------
                                   SCF GRAD                          
                          Rob Parrish, Justin Turney,                
                       Andy Simmonett, and Alex Sokolov              
         ------------------------------------------------------------

  ==> Geometry <==

    Molecular point group: d2h
    Full point group: D_inf_h

    Geometry (in Angstrom), charge = 0, multiplicity = 1:

       Center              X                  Y                   Z               Mass       
    ------------   -----------------  -----------------  -----------------  -----------------
         P           -0.000000000000     0.600000000000     0.000000000000    30.973761998420
         P            0.000000000000    -0.600000000000     0.000000000000    30.973761998420

  Nuclear repulsion =   99.220727000625018

  ==> Basis Set <==

  Basis Set: CC-PVDZ
    Blend: CC-PVDZ
    Number of shells: 16
    Number of basis functions: 36
    Number of Cartesian functions: 38
    Spherical Harmonics?: true
    Max angular momentum: 2

  ==> DFJKGrad: Density-Fitted SCF Gradients <==

    Gradient:                    1
    J tasked:                  Yes
    K tasked:                  Yes
    wK tasked:                  No
    OpenMP threads:              1
    Integrals threads:           1
    Memory [MiB]:              375
    Schwarz Cutoff:          1E-12
    Fitting Condition:       1E-10

   => Auxiliary Basis Set <=

  Basis Set: (CC-PVDZ AUX)
    Blend: CC-PVDZ-JKFIT
    Number of shells: 72
    Number of basis functions: 224
    Number of Cartesian functions: 260
    Spherical Harmonics?: true
    Max angular momentum: 3

  ==> DFT Potential <==

   => LibXC <=

    Version 6.2.2
    S. Lehtola, C. Steigemann, M. J.T. Oliveira, and M. A.L. Marques.,  SoftwareX 7, 1–5 (2018) (10.1016/j.softx.2017.11.002)

   => Composite Functional: B3LYP <= 

    B3LYP Hyb-GGA Exchange-Correlation Functional

    P. J. Stephens, F. J. Devlin, C. F. Chabalowski, and M. J. Frisch.,  J. Phys. Chem. 98, 11623 (1994) (10.1021/j100096a001)

    Deriv               =              1
    GGA                 =           TRUE
    Meta                =          FALSE

    Exchange Hybrid     =           TRUE
    MP2 Hybrid          =          FALSE

   => Exchange Functionals <=

    0.0800   Slater exchange
    0.7200         Becke 88

   => Exact (HF) Exchange <=

    0.2000               HF 

   => Correlation Functionals <=

    0.1900   Vosko, Wilk & Nusair (VWN5_RPA)
    0.8100   Lee, Yang & Parr

   => LibXC Density Thresholds  <==

    XC_HYB_GGA_XC_B3LYP:  1.00E-15 

   => Molecular Quadrature <=

    Radial Scheme          =       TREUTLER
    Pruning Scheme         =           NONE
    Nuclear Scheme         =       TREUTLER

    Blocking Scheme        =         OCTREE
    BS radius alpha        =              1
    Pruning alpha          =              1
    Radial Points          =             75
    Spherical Points       =            302
    Total Points           =          40692
    Total Blocks           =            378
    Max Points             =            246
    Max Functions          =             36
    Weights Tolerance      =       1.00E-15


  -Total Gradient:
     Atom            X                  Y                   Z
    ------   -----------------  -----------------  -----------------
       1        0.000000000000    -2.792632278440     0.000000000000
       2       -0.000000000000     2.792632278440     0.000000000000


*** tstop() called on Joses-MacBook-Pro-2.local at Wed Jul 16 20:20:52 2025
Module time:
	user time   =       4.45 seconds =       0.07 minutes
	system time =       1.55 seconds =       0.03 minutes
	total time  =          1 seconds =       0.02 minutes
Total time:
	user time   =      22.52 seconds =       0.38 minutes
	system time =       4.05 seconds =       0.07 minutes
	total time  =          3 seconds =       0.05 minutes

    			-----------------------------------------

    			 OPTKING 3.0: for geometry optimizations 

    			     By R.A. King, Bethel University     

    			        with contributions from          

    			    A.V. Copan, J. Cayton, A. Heide      

    			-----------------------------------------

    
	                            ===> Fragment 1 <== 

	 Z (Atomic Numbers)          Masses                          Geom                  
	      15.000000            30.973762         -0.00000000  1.13383568  0.00000000   
	      15.000000            30.973762          0.00000000 -1.13383568  0.00000000   

	 - Coordinate -           - BOHR/RAD -       - ANG/DEG -
	 R(1,2)           =         2.267671           1.200000


	        --- Internal Coordinate Step in ANG or DEG, aJ/ANG or AJ/DEG ---
	-------------------------------------------------------------------------------
	           Coordinate      Previous         Force          Change          New 
	           ----------      --------        ------          ------        ------
	               R(1,2)       1.20000       23.00772        0.00678       1.20678
	-------------------------------------------------------------------------------

	                                 ==> Convergence Check <==                                  
    
	Measures of convergence in internal coordinates in au.
    
	Criteria marked as inactive (o), active & met (*), and active & unmet ( ).

	----------------------------------------------------------------------------------------------
	   Step    Total Energy     Delta E     Max Force     RMS Force      Max Disp      RMS Disp   
	----------------------------------------------------------------------------------------------
	  Convergence Criteria     1.00e-06 *    3.00e-04 *             o    1.20e-03 *             o
	----------------------------------------------------------------------------------------------
	     1    -681.58029003   -6.82e+02      2.79e+00      2.79e+00 o    1.28e-02      1.28e-02 o  ~
	----------------------------------------------------------------------------------------------

Next Geometry in Ang 
	Fragment 1 (Ang)

	    P  -0.0000000000   0.6033916552   0.0000000000
	    P   0.0000000000  -0.6033916552   0.0000000000


    Structure for next step:
    Molecular point group: d2h
    Full point group: D_inf_h

    Geometry (in Angstrom), charge = 0, multiplicity = 1:

    P           -0.000000000000     0.603391655210     0.000000000000
    P            0.000000000000    -0.603391655210     0.000000000000


Scratch directory: /tmp/
gradient() will perform analytic gradient computation.
   => Libint2 <=

    Primary   basis highest AM E, G, H:  6, 6, 3
    Auxiliary basis highest AM E, G, H:  7, 7, 4
    Onebody   basis highest AM E, G, H:  -, -, -
    Solid Harmonics ordering:            Gaussian

*** tstart() called on Joses-MacBook-Pro-2.local
*** at Wed Jul 16 20:20:52 2025

   => Loading Basis Set <=

    Name: CC-PVDZ
    Role: ORBITAL
    Keyword: BASIS
    atoms 1-2 entry P          line   538 file /Users/joseantoniorodriguesromero/anaconda3/share/psi4/basis/cc-pvdz.gbs 


         ---------------------------------------------------------
                                   SCF
               by Justin Turney, Rob Parrish, Andy Simmonett
                          and Daniel G. A. Smith
                              UKS Reference
                        1 Threads,    500 MiB Core
         ---------------------------------------------------------

  ==> Geometry <==

    Molecular point group: d2h
    Full point group: D_inf_h

    Geometry (in Angstrom), charge = 0, multiplicity = 1:

       Center              X                  Y                   Z               Mass       
    ------------   -----------------  -----------------  -----------------  -----------------
         P           -0.000000000000     0.603391655210     0.000000000000    30.973761998420
         P            0.000000000000    -0.603391655210     0.000000000000    30.973761998420

  Running in d2h symmetry.

  Rotational constants: A = ************  B =      0.74744  C =      0.74744 [cm^-1]
  Rotational constants: A = ************  B =  22407.56410  C =  22407.56410 [MHz]
  Nuclear repulsion =   98.663008820770287

  Charge       = 0
  Multiplicity = 1
  Electrons    = 30
  Nalpha       = 15
  Nbeta        = 15

  ==> Algorithm <==

  SCF Algorithm Type is DF.
  DIIS enabled.
  MOM disabled.
  Fractional occupation disabled.
  Guess Type is READ.
  Energy threshold   = 1.00e-08
  Density threshold  = 1.00e-08
  Integral threshold = 1.00e-12

  ==> Primary Basis <==

  Basis Set: CC-PVDZ
    Blend: CC-PVDZ
    Number of shells: 16
    Number of basis functions: 36
    Number of Cartesian functions: 38
    Spherical Harmonics?: true
    Max angular momentum: 2

  ==> DFT Potential <==

   => LibXC <=

    Version 6.2.2
    S. Lehtola, C. Steigemann, M. J.T. Oliveira, and M. A.L. Marques.,  SoftwareX 7, 1–5 (2018) (10.1016/j.softx.2017.11.002)

   => Composite Functional: B3LYP <= 

    B3LYP Hyb-GGA Exchange-Correlation Functional

    P. J. Stephens, F. J. Devlin, C. F. Chabalowski, and M. J. Frisch.,  J. Phys. Chem. 98, 11623 (1994) (10.1021/j100096a001)

    Deriv               =              1
    GGA                 =           TRUE
    Meta                =          FALSE

    Exchange Hybrid     =           TRUE
    MP2 Hybrid          =          FALSE

   => Exchange Functionals <=

    0.0800   Slater exchange
    0.7200         Becke 88

   => Exact (HF) Exchange <=

    0.2000               HF 

   => Correlation Functionals <=

    0.1900   Vosko, Wilk & Nusair (VWN5_RPA)
    0.8100   Lee, Yang & Parr

   => LibXC Density Thresholds  <==

    XC_HYB_GGA_XC_B3LYP:  1.00E-15 

   => Molecular Quadrature <=

    Radial Scheme          =       TREUTLER
    Pruning Scheme         =           NONE
    Nuclear Scheme         =       TREUTLER

    Blocking Scheme        =         OCTREE
    BS radius alpha        =              1
    Pruning alpha          =              1
    Radial Points          =             75
    Spherical Points       =            302
    Total Points           =          40692
    Total Blocks           =            378
    Max Points             =            246
    Max Functions          =             36
    Weights Tolerance      =       1.00E-15

   => Loading Basis Set <=

    Name: (CC-PVDZ AUX)
    Role: JKFIT
    Keyword: DF_BASIS_SCF
    atoms 1-2 entry P          line   519 file /Users/joseantoniorodriguesromero/anaconda3/share/psi4/basis/cc-pvdz-jkfit.gbs 

   => Loading Basis Set <=

    Name: CC-PVDZ
    Role: ORBITAL
    Keyword: BASIS
    atoms 1-2 entry P          line   538 file /Users/joseantoniorodriguesromero/anaconda3/share/psi4/basis/cc-pvdz.gbs 

  Reading orbitals from file /tmp/singlet_PP.default.69600.180.npy, no projection.

  ==> Integral Setup <==

  DFHelper Memory: AOs need 0.003 GiB; user supplied 0.324 GiB. 
  Using in-core AOs.

  ==> MemDFJK: Density-Fitted J/K Matrices <==

    J tasked:                   Yes
    K tasked:                   Yes
    wK tasked:                   No
    OpenMP threads:               1
    Memory [MiB]:               331
    Algorithm:                 Core
    Schwarz Cutoff:           1E-12
    Mask sparsity (%):       0.0000
    Fitting Condition:        1E-10

   => Auxiliary Basis Set <=

  Basis Set: (CC-PVDZ AUX)
    Blend: CC-PVDZ-JKFIT
    Number of shells: 72
    Number of basis functions: 224
    Number of Cartesian functions: 260
    Spherical Harmonics?: true
    Max angular momentum: 3

  Cached 100.0% of DFT collocation blocks in 0.043 [GiB].

  Minimum eigenvalue in the overlap matrix is 3.7001072276E-03.
  Reciprocal condition number of the overlap matrix is 1.2048924382E-03.
    Using symmetric orthogonalization.

  ==> Pre-Iterations <==

  SCF Guess: Orbitals guess was supplied from a previous computation.

   -------------------------------------------------------
    Irrep   Nso     Nmo     Nalpha   Nbeta   Ndocc  Nsocc
   -------------------------------------------------------
     Ag         9       9       5       5       5       0
     B1g        4       4       1       1       1       0
     B2g        1       1       0       0       0       0
     B3g        4       4       1       1       1       0
     Au         1       1       0       0       0       0
     B1u        4       4       2       2       2       0
     B2u        9       9       4       4       4       0
     B3u        4       4       2       2       2       0
   -------------------------------------------------------
    Total      36      36      15      15      15       0
   -------------------------------------------------------

  ==> Iterations <==

                           Total Energy        Delta E     RMS |[F,P]|

   @DF-UKS iter   0:  -681.61930626925096   -6.81619e+02   4.04806e-03 
   @DF-UKS iter   1:  -681.61563040403723    3.67587e-03   3.56294e-04 ADIIS/DIIS
   @DF-UKS iter   2:  -681.61563840660381   -8.00257e-06   2.49953e-04 ADIIS/DIIS/DAMP=1%
   @DF-UKS iter   3:  -681.61598035318605   -3.41947e-04   1.11842e-05 DIIS/DAMP=1%
   @DF-UKS iter   4:  -681.61564057990824    3.39773e-04   1.02315e-06 DIIS/DAMP=1%
   @DF-UKS iter   5:  -681.61564897098560   -8.39108e-06   8.43560e-08 DIIS/DAMP=1%
   @DF-UKS iter   6:  -681.61564832468855    6.46297e-07   8.44210e-09 DIIS/DAMP=1%
   @DF-UKS iter   7:  -681.61564819549051    1.29198e-07   5.84953e-10 DIIS/DAMP=1%
   @DF-UKS iter   8:  -681.61564820838521   -1.28947e-08   3.05594e-11 DIIS/DAMP=1%
   @DF-UKS iter   9:  -681.61564820763863    7.46581e-10   2.46839e-12 DIIS/DAMP=1%
  Energy and wave function converged.


  ==> Post-Iterations <==

   Electrons on quadrature grid:
      Nalpha   =   14.9999975024 ; deviation = -2.498e-06
      Nbeta    =   14.9999975024 ; deviation = -2.498e-06
      Ntotal   =   29.9999950048 ; deviation = -4.995e-06 

   @Spin Contamination Metric:   1.776356839E-15
   @S^2 Expected:                0.000000000E+00
   @S^2 Observed:                1.776356839E-15
   @S   Expected:                0.000000000E+00
   @S   Observed:                0.000000000E+00

    Orbital Energies [Eh]
    ---------------------

    Alpha Occupied:                                                       

       1Ag   -77.051207     1B2u  -77.051203     2Ag    -6.648516  
       2B2u   -6.593671     3Ag    -4.852022     1B3u   -4.763908  
       1B1u   -4.763908     1B1g   -4.746178     1B3g   -4.746178  
       3B2u   -4.735421     4Ag    -0.792387     2B1u   -0.400741  
       2B3u   -0.400741     4B2u   -0.386860     5Ag    -0.230047  

    Alpha Virtual:                                                        

       2B3g   -0.004275     2B1g   -0.004275     5B2u    0.190109  
       6Ag     0.227427     3B3u    0.235070     3B1u    0.235070  
       1B2g    0.300040     7Ag     0.300041     8Ag     0.389615  
       3B3g    0.504911     3B1g    0.504911     6B2u    0.521110  
       4B3u    0.549814     4B1u    0.549814     1Au     0.674582  
       7B2u    0.674582     8B2u    0.729037     9Ag     0.905033  
       4B3g    1.160264     4B1g    1.160264     9B2u    2.726873  

    Beta Occupied:                                                        

       1Ag   -77.051207     1B2u  -77.051203     2Ag    -6.648516  
       2B2u   -6.593671     3Ag    -4.852022     1B3u   -4.763908  
       1B1u   -4.763908     1B1g   -4.746178     1B3g   -4.746178  
       3B2u   -4.735421     4Ag    -0.792387     2B1u   -0.400741  
       2B3u   -0.400741     4B2u   -0.386860     5Ag    -0.230047  

    Beta Virtual:                                                         

       2B3g   -0.004275     2B1g   -0.004275     5B2u    0.190109  
       6Ag     0.227427     3B3u    0.235070     3B1u    0.235070  
       1B2g    0.300040     7Ag     0.300041     8Ag     0.389615  
       3B3g    0.504911     3B1g    0.504911     6B2u    0.521110  
       4B3u    0.549814     4B1u    0.549814     1Au     0.674582  
       7B2u    0.674582     8B2u    0.729037     9Ag     0.905033  
       4B3g    1.160264     4B1g    1.160264     9B2u    2.726873  

    Final Occupation by Irrep:
             Ag   B1g   B2g   B3g    Au   B1u   B2u   B3u 
    DOCC [     5,    1,    0,    1,    0,    2,    4,    2 ]
    SOCC [     0,    0,    0,    0,    0,    0,    0,    0 ]
    NA   [     5,    1,    0,    1,    0,    2,    4,    2 ]
    NB   [     5,    1,    0,    1,    0,    2,    4,    2 ]

  @DF-UKS Final Energy:  -681.61564820763863

   => Energetics <=

    Nuclear Repulsion Energy =             98.6630088207702869
    One-Electron Energy =               -1137.2418033312073931
    Two-Electron Energy =                 394.8999000585183694
    DFT Exchange-Correlation Energy =     -37.9367537557198204
    Empirical Dispersion Energy =           0.0000000000000000
    VV10 Nonlocal Energy =                  0.0000000000000000
    Total Energy =                       -681.6156482076385146

  UHF NO Occupations:
  HONO-2 :    1B1g 2.0000000
  HONO-1 :    4B2u 2.0000000
  HONO-0 :    5 Ag 2.0000000
  LUNO+0 :    5B2u 0.0000000
  LUNO+1 :    6B2u 0.0000000
  LUNO+2 :    3B3u 0.0000000
  LUNO+3 :    2B1g 0.0000000


Computation Completed


Properties will be evaluated at   0.000000,   0.000000,   0.000000 [a0]

Properties computed using the SCF density matrix


 Multipole Moments:

 ------------------------------------------------------------------------------------
     Multipole            Electronic (a.u.)      Nuclear  (a.u.)        Total (a.u.)
 ------------------------------------------------------------------------------------

 L = 1.  Multiply by 2.5417464519 to convert [e a0] to [Debye]
 Dipole X            :          0.0000000            0.0000000            0.0000000
 Dipole Y            :          0.0000000            0.0000000            0.0000000
 Dipole Z            :          0.0000000            0.0000000            0.0000000
 Magnitude           :                                                    0.0000000

 ------------------------------------------------------------------------------------

*** tstop() called on Joses-MacBook-Pro-2.local at Wed Jul 16 20:20:53 2025
Module time:
	user time   =       7.01 seconds =       0.12 minutes
	system time =       2.72 seconds =       0.05 minutes
	total time  =          1 seconds =       0.02 minutes
Total time:
	user time   =      29.79 seconds =       0.50 minutes
	system time =       6.87 seconds =       0.11 minutes
	total time  =          4 seconds =       0.07 minutes

*** tstart() called on Joses-MacBook-Pro-2.local
*** at Wed Jul 16 20:20:53 2025


         ------------------------------------------------------------
                                   SCF GRAD                          
                          Rob Parrish, Justin Turney,                
                       Andy Simmonett, and Alex Sokolov              
         ------------------------------------------------------------

  ==> Geometry <==

    Molecular point group: d2h
    Full point group: D_inf_h

    Geometry (in Angstrom), charge = 0, multiplicity = 1:

       Center              X                  Y                   Z               Mass       
    ------------   -----------------  -----------------  -----------------  -----------------
         P           -0.000000000000     0.603391655210     0.000000000000    30.973761998420
         P            0.000000000000    -0.603391655210     0.000000000000    30.973761998420

  Nuclear repulsion =   98.663008820770287

  ==> Basis Set <==

  Basis Set: CC-PVDZ
    Blend: CC-PVDZ
    Number of shells: 16
    Number of basis functions: 36
    Number of Cartesian functions: 38
    Spherical Harmonics?: true
    Max angular momentum: 2

  ==> DFJKGrad: Density-Fitted SCF Gradients <==

    Gradient:                    1
    J tasked:                  Yes
    K tasked:                  Yes
    wK tasked:                  No
    OpenMP threads:              1
    Integrals threads:           1
    Memory [MiB]:              375
    Schwarz Cutoff:          1E-12
    Fitting Condition:       1E-10

   => Auxiliary Basis Set <=

  Basis Set: (CC-PVDZ AUX)
    Blend: CC-PVDZ-JKFIT
    Number of shells: 72
    Number of basis functions: 224
    Number of Cartesian functions: 260
    Spherical Harmonics?: true
    Max angular momentum: 3

  ==> DFT Potential <==

   => LibXC <=

    Version 6.2.2
    S. Lehtola, C. Steigemann, M. J.T. Oliveira, and M. A.L. Marques.,  SoftwareX 7, 1–5 (2018) (10.1016/j.softx.2017.11.002)

   => Composite Functional: B3LYP <= 

    B3LYP Hyb-GGA Exchange-Correlation Functional

    P. J. Stephens, F. J. Devlin, C. F. Chabalowski, and M. J. Frisch.,  J. Phys. Chem. 98, 11623 (1994) (10.1021/j100096a001)

    Deriv               =              1
    GGA                 =           TRUE
    Meta                =          FALSE

    Exchange Hybrid     =           TRUE
    MP2 Hybrid          =          FALSE

   => Exchange Functionals <=

    0.0800   Slater exchange
    0.7200         Becke 88

   => Exact (HF) Exchange <=

    0.2000               HF 

   => Correlation Functionals <=

    0.1900   Vosko, Wilk & Nusair (VWN5_RPA)
    0.8100   Lee, Yang & Parr

   => LibXC Density Thresholds  <==

    XC_HYB_GGA_XC_B3LYP:  1.00E-15 

   => Molecular Quadrature <=

    Radial Scheme          =       TREUTLER
    Pruning Scheme         =           NONE
    Nuclear Scheme         =       TREUTLER

    Blocking Scheme        =         OCTREE
    BS radius alpha        =              1
    Pruning alpha          =              1
    Radial Points          =             75
    Spherical Points       =            302
    Total Points           =          40692
    Total Blocks           =            378
    Max Points             =            246
    Max Functions          =             36
    Weights Tolerance      =       1.00E-15


  -Total Gradient:
     Atom            X                  Y                   Z
    ------   -----------------  -----------------  -----------------
       1        0.000000000000    -2.724377274732    -0.000000000000
       2       -0.000000000000     2.724377274732     0.000000000000


*** tstop() called on Joses-MacBook-Pro-2.local at Wed Jul 16 20:20:53 2025
Module time:
	user time   =       2.50 seconds =       0.04 minutes
	system time =       1.03 seconds =       0.02 minutes
	total time  =          0 seconds =       0.00 minutes
Total time:
	user time   =      32.29 seconds =       0.54 minutes
	system time =       7.90 seconds =       0.13 minutes
	total time  =          4 seconds =       0.07 minutes

    			-----------------------------------------

    			 OPTKING 3.0: for geometry optimizations 

    			     By R.A. King, Bethel University     

    			        with contributions from          

    			    A.V. Copan, J. Cayton, A. Heide      

    			-----------------------------------------

    
	                            ===> Fragment 1 <== 

	 Z (Atomic Numbers)          Masses                          Geom                  
	      15.000000            30.973762         -0.00000000  1.14024497  0.00000000   
	      15.000000            30.973762          0.00000000 -1.14024497  0.00000000   

	 - Coordinate -           - BOHR/RAD -       - ANG/DEG -
	 R(1,2)           =         2.280490           1.206783


	        --- Internal Coordinate Step in ANG or DEG, aJ/ANG or AJ/DEG ---
	-------------------------------------------------------------------------------
	           Coordinate      Previous         Force          Change          New 
	           ----------      --------        ------          ------        ------
	               R(1,2)       1.20678       22.44539        0.01323       1.22001
	-------------------------------------------------------------------------------

	                                 ==> Convergence Check <==                                  
    
	Measures of convergence in internal coordinates in au.
    
	Criteria marked as inactive (o), active & met (*), and active & unmet ( ).

	----------------------------------------------------------------------------------------------
	   Step    Total Energy     Delta E     Max Force     RMS Force      Max Disp      RMS Disp   
	----------------------------------------------------------------------------------------------
	  Convergence Criteria     1.00e-06 *    3.00e-04 *             o    1.20e-03 *             o
	----------------------------------------------------------------------------------------------
	     2    -681.61564821   -3.54e-02      2.72e+00      2.72e+00 o    2.50e-02      2.50e-02 o  ~
	----------------------------------------------------------------------------------------------

Next Geometry in Ang 
	Fragment 1 (Ang)

	    P  -0.0000000000   0.6100061253   0.0000000000
	    P   0.0000000000  -0.6100061253   0.0000000000


    Structure for next step:
    Molecular point group: d2h
    Full point group: D_inf_h

    Geometry (in Angstrom), charge = 0, multiplicity = 1:

    P           -0.000000000000     0.610006125288     0.000000000000
    P            0.000000000000    -0.610006125288     0.000000000000


Scratch directory: /tmp/
gradient() will perform analytic gradient computation.
   => Libint2 <=

    Primary   basis highest AM E, G, H:  6, 6, 3
    Auxiliary basis highest AM E, G, H:  7, 7, 4
    Onebody   basis highest AM E, G, H:  -, -, -
    Solid Harmonics ordering:            Gaussian

*** tstart() called on Joses-MacBook-Pro-2.local
*** at Wed Jul 16 20:20:53 2025

   => Loading Basis Set <=

    Name: CC-PVDZ
    Role: ORBITAL
    Keyword: BASIS
    atoms 1-2 entry P          line   538 file /Users/joseantoniorodriguesromero/anaconda3/share/psi4/basis/cc-pvdz.gbs 


         ---------------------------------------------------------
                                   SCF
               by Justin Turney, Rob Parrish, Andy Simmonett
                          and Daniel G. A. Smith
                              UKS Reference
                        1 Threads,    500 MiB Core
         ---------------------------------------------------------

  ==> Geometry <==

    Molecular point group: d2h
    Full point group: D_inf_h

    Geometry (in Angstrom), charge = 0, multiplicity = 1:

       Center              X                  Y                   Z               Mass       
    ------------   -----------------  -----------------  -----------------  -----------------
         P           -0.000000000000     0.610006125288     0.000000000000    30.973761998420
         P            0.000000000000    -0.610006125288     0.000000000000    30.973761998420

  Running in d2h symmetry.

  Rotational constants: A = ************  B =      0.73131  C =      0.73131 [cm^-1]
  Rotational constants: A = ************  B =  21924.25551  C =  21924.25551 [MHz]
  Nuclear repulsion =   97.593177727921002

  Charge       = 0
  Multiplicity = 1
  Electrons    = 30
  Nalpha       = 15
  Nbeta        = 15

  ==> Algorithm <==

  SCF Algorithm Type is DF.
  DIIS enabled.
  MOM disabled.
  Fractional occupation disabled.
  Guess Type is READ.
  Energy threshold   = 1.00e-08
  Density threshold  = 1.00e-08
  Integral threshold = 1.00e-12

  ==> Primary Basis <==

  Basis Set: CC-PVDZ
    Blend: CC-PVDZ
    Number of shells: 16
    Number of basis functions: 36
    Number of Cartesian functions: 38
    Spherical Harmonics?: true
    Max angular momentum: 2

  ==> DFT Potential <==

   => LibXC <=

    Version 6.2.2
    S. Lehtola, C. Steigemann, M. J.T. Oliveira, and M. A.L. Marques.,  SoftwareX 7, 1–5 (2018) (10.1016/j.softx.2017.11.002)

   => Composite Functional: B3LYP <= 

    B3LYP Hyb-GGA Exchange-Correlation Functional

    P. J. Stephens, F. J. Devlin, C. F. Chabalowski, and M. J. Frisch.,  J. Phys. Chem. 98, 11623 (1994) (10.1021/j100096a001)

    Deriv               =              1
    GGA                 =           TRUE
    Meta                =          FALSE

    Exchange Hybrid     =           TRUE
    MP2 Hybrid          =          FALSE

   => Exchange Functionals <=

    0.0800   Slater exchange
    0.7200         Becke 88

   => Exact (HF) Exchange <=

    0.2000               HF 

   => Correlation Functionals <=

    0.1900   Vosko, Wilk & Nusair (VWN5_RPA)
    0.8100   Lee, Yang & Parr

   => LibXC Density Thresholds  <==

    XC_HYB_GGA_XC_B3LYP:  1.00E-15 

   => Molecular Quadrature <=

    Radial Scheme          =       TREUTLER
    Pruning Scheme         =           NONE
    Nuclear Scheme         =       TREUTLER

    Blocking Scheme        =         OCTREE
    BS radius alpha        =              1
    Pruning alpha          =              1
    Radial Points          =             75
    Spherical Points       =            302
    Total Points           =          40692
    Total Blocks           =            376
    Max Points             =            256
    Max Functions          =             36
    Weights Tolerance      =       1.00E-15

   => Loading Basis Set <=

    Name: (CC-PVDZ AUX)
    Role: JKFIT
    Keyword: DF_BASIS_SCF
    atoms 1-2 entry P          line   519 file /Users/joseantoniorodriguesromero/anaconda3/share/psi4/basis/cc-pvdz-jkfit.gbs 

   => Loading Basis Set <=

    Name: CC-PVDZ
    Role: ORBITAL
    Keyword: BASIS
    atoms 1-2 entry P          line   538 file /Users/joseantoniorodriguesromero/anaconda3/share/psi4/basis/cc-pvdz.gbs 

  Reading orbitals from file /tmp/singlet_PP.default.69600.180.npy, no projection.

  ==> Integral Setup <==

  DFHelper Memory: AOs need 0.003 GiB; user supplied 0.324 GiB. 
  Using in-core AOs.

  ==> MemDFJK: Density-Fitted J/K Matrices <==

    J tasked:                   Yes
    K tasked:                   Yes
    wK tasked:                   No
    OpenMP threads:               1
    Memory [MiB]:               331
    Algorithm:                 Core
    Schwarz Cutoff:           1E-12
    Mask sparsity (%):       0.0000
    Fitting Condition:        1E-10

   => Auxiliary Basis Set <=

  Basis Set: (CC-PVDZ AUX)
    Blend: CC-PVDZ-JKFIT
    Number of shells: 72
    Number of basis functions: 224
    Number of Cartesian functions: 260
    Spherical Harmonics?: true
    Max angular momentum: 3

  Cached 100.0% of DFT collocation blocks in 0.043 [GiB].

  Minimum eigenvalue in the overlap matrix is 3.8585693982E-03.
  Reciprocal condition number of the overlap matrix is 1.2571604242E-03.
    Using symmetric orthogonalization.

  ==> Pre-Iterations <==

  SCF Guess: Orbitals guess was supplied from a previous computation.

   -------------------------------------------------------
    Irrep   Nso     Nmo     Nalpha   Nbeta   Ndocc  Nsocc
   -------------------------------------------------------
     Ag         9       9       5       5       5       0
     B1g        4       4       1       1       1       0
     B2g        1       1       0       0       0       0
     B3g        4       4       1       1       1       0
     Au         1       1       0       0       0       0
     B1u        4       4       2       2       2       0
     B2u        9       9       4       4       4       0
     B3u        4       4       2       2       2       0
   -------------------------------------------------------
    Total      36      36      15      15      15       0
   -------------------------------------------------------

  ==> Iterations <==

                           Total Energy        Delta E     RMS |[F,P]|

   @DF-UKS iter   0:  -681.68941385703454   -6.81689e+02   7.85110e-03 
   @DF-UKS iter   1:  -681.68205911142775    7.35475e-03   6.84464e-04 ADIIS/DIIS
   @DF-UKS iter   2:  -681.68208851261033   -2.94012e-05   4.78405e-04 ADIIS/DIIS/DAMP=1%
   @DF-UKS iter   3:  -681.68275889169331   -6.70379e-04   2.22842e-05 DIIS/DAMP=1%
   @DF-UKS iter   4:  -681.68210939142341    6.49500e-04   1.91706e-06 DIIS/DAMP=1%
   @DF-UKS iter   5:  -681.68212597058459   -1.65792e-05   1.69286e-07 DIIS/DAMP=1%
   @DF-UKS iter   6:  -681.68212486856362    1.10202e-06   1.67193e-08 DIIS/DAMP=1%
   @DF-UKS iter   7:  -681.68212461061864    2.57945e-07   1.14096e-09 DIIS/DAMP=1%
   @DF-UKS iter   8:  -681.68212463602686   -2.54082e-08   6.38746e-11 DIIS/DAMP=1%
   @DF-UKS iter   9:  -681.68212463457053    1.45633e-09   4.72162e-12 DIIS/DAMP=1%
  Energy and wave function converged.


  ==> Post-Iterations <==

   Electrons on quadrature grid:
      Nalpha   =   14.9999974771 ; deviation = -2.523e-06
      Nbeta    =   14.9999974771 ; deviation = -2.523e-06
      Ntotal   =   29.9999949541 ; deviation = -5.046e-06 

   @Spin Contamination Metric:   2.664535259E-14
   @S^2 Expected:                0.000000000E+00
   @S^2 Observed:                2.664535259E-14
   @S   Expected:                0.000000000E+00
   @S   Observed:                0.000000000E+00

    Orbital Energies [Eh]
    ---------------------

    Alpha Occupied:                                                       

       1Ag   -77.046811     1B2u  -77.046808     2Ag    -6.637955  
       2B2u   -6.588097     3Ag    -4.839636     1B3u   -4.756854  
       1B1u   -4.756854     1B1g   -4.740616     1B3g   -4.740616  
       3B2u   -4.730988     4Ag    -0.791688     2B1u   -0.396797  
       2B3u   -0.396797     4B2u   -0.387896     5Ag    -0.233133  

    Alpha Virtual:                                                        

       2B3g   -0.005774     2B1g   -0.005774     5B2u    0.189256  
       6Ag     0.225381     3B1u    0.236813     3B3u    0.236813  
       1B2g    0.303446     7Ag     0.303447     8Ag     0.389138  
       3B3g    0.504918     3B1g    0.504918     6B2u    0.518199  
       4B1u    0.547376     4B3u    0.547376     1Au     0.671829  
       7B2u    0.671830     8B2u    0.726913     9Ag     0.899321  
       4B3g    1.150614     4B1g    1.150614     9B2u    2.626865  

    Beta Occupied:                                                        

       1Ag   -77.046811     1B2u  -77.046808     2Ag    -6.637955  
       2B2u   -6.588097     3Ag    -4.839636     1B3u   -4.756854  
       1B1u   -4.756854     1B1g   -4.740616     1B3g   -4.740616  
       3B2u   -4.730988     4Ag    -0.791688     2B1u   -0.396797  
       2B3u   -0.396797     4B2u   -0.387896     5Ag    -0.233133  

    Beta Virtual:                                                         

       2B3g   -0.005774     2B1g   -0.005774     5B2u    0.189256  
       6Ag     0.225381     3B1u    0.236813     3B3u    0.236813  
       1B2g    0.303446     7Ag     0.303447     8Ag     0.389138  
       3B3g    0.504918     3B1g    0.504918     6B2u    0.518199  
       4B1u    0.547376     4B3u    0.547376     1Au     0.671829  
       7B2u    0.671830     8B2u    0.726913     9Ag     0.899321  
       4B3g    1.150614     4B1g    1.150614     9B2u    2.626865  

    Final Occupation by Irrep:
             Ag   B1g   B2g   B3g    Au   B1u   B2u   B3u 
    DOCC [     5,    1,    0,    1,    0,    2,    4,    2 ]
    SOCC [     0,    0,    0,    0,    0,    0,    0,    0 ]
    NA   [     5,    1,    0,    1,    0,    2,    4,    2 ]
    NB   [     5,    1,    0,    1,    0,    2,    4,    2 ]

  @DF-UKS Final Energy:  -681.68212463457053

   => Energetics <=

    Nuclear Repulsion Energy =             97.5931777279210024
    One-Electron Energy =               -1135.3871474432139621
    Two-Electron Energy =                 394.0352070235106225
    DFT Exchange-Correlation Energy =     -37.9233619427883326
    Empirical Dispersion Energy =           0.0000000000000000
    VV10 Nonlocal Energy =                  0.0000000000000000
    Total Energy =                       -681.6821246345706413

  UHF NO Occupations:
  HONO-2 :    4 Ag 2.0000000
  HONO-1 :    5 Ag 2.0000000
  HONO-0 :    4B2u 2.0000000
  LUNO+0 :    5B2u 0.0000000
  LUNO+1 :    6 Ag 0.0000000
  LUNO+2 :    6B2u 0.0000000
  LUNO+3 :    2B1g 0.0000000


Computation Completed


Properties will be evaluated at   0.000000,   0.000000,   0.000000 [a0]

Properties computed using the SCF density matrix


 Multipole Moments:

 ------------------------------------------------------------------------------------
     Multipole            Electronic (a.u.)      Nuclear  (a.u.)        Total (a.u.)
 ------------------------------------------------------------------------------------

 L = 1.  Multiply by 2.5417464519 to convert [e a0] to [Debye]
 Dipole X            :          0.0000000            0.0000000            0.0000000
 Dipole Y            :          0.0000000            0.0000000            0.0000000
 Dipole Z            :          0.0000000            0.0000000            0.0000000
 Magnitude           :                                                    0.0000000

 ------------------------------------------------------------------------------------

*** tstop() called on Joses-MacBook-Pro-2.local at Wed Jul 16 20:20:54 2025
Module time:
	user time   =       7.43 seconds =       0.12 minutes
	system time =       2.05 seconds =       0.03 minutes
	total time  =          1 seconds =       0.02 minutes
Total time:
	user time   =      39.96 seconds =       0.67 minutes
	system time =       9.95 seconds =       0.17 minutes
	total time  =          5 seconds =       0.08 minutes

*** tstart() called on Joses-MacBook-Pro-2.local
*** at Wed Jul 16 20:20:54 2025


         ------------------------------------------------------------
                                   SCF GRAD                          
                          Rob Parrish, Justin Turney,                
                       Andy Simmonett, and Alex Sokolov              
         ------------------------------------------------------------

  ==> Geometry <==

    Molecular point group: d2h
    Full point group: D_inf_h

    Geometry (in Angstrom), charge = 0, multiplicity = 1:

       Center              X                  Y                   Z               Mass       
    ------------   -----------------  -----------------  -----------------  -----------------
         P           -0.000000000000     0.610006125288     0.000000000000    30.973761998420
         P            0.000000000000    -0.610006125288     0.000000000000    30.973761998420

  Nuclear repulsion =   97.593177727921002

  ==> Basis Set <==

  Basis Set: CC-PVDZ
    Blend: CC-PVDZ
    Number of shells: 16
    Number of basis functions: 36
    Number of Cartesian functions: 38
    Spherical Harmonics?: true
    Max angular momentum: 2

  ==> DFJKGrad: Density-Fitted SCF Gradients <==

    Gradient:                    1
    J tasked:                  Yes
    K tasked:                  Yes
    wK tasked:                  No
    OpenMP threads:              1
    Integrals threads:           1
    Memory [MiB]:              375
    Schwarz Cutoff:          1E-12
    Fitting Condition:       1E-10

   => Auxiliary Basis Set <=

  Basis Set: (CC-PVDZ AUX)
    Blend: CC-PVDZ-JKFIT
    Number of shells: 72
    Number of basis functions: 224
    Number of Cartesian functions: 260
    Spherical Harmonics?: true
    Max angular momentum: 3

  ==> DFT Potential <==

   => LibXC <=

    Version 6.2.2
    S. Lehtola, C. Steigemann, M. J.T. Oliveira, and M. A.L. Marques.,  SoftwareX 7, 1–5 (2018) (10.1016/j.softx.2017.11.002)

   => Composite Functional: B3LYP <= 

    B3LYP Hyb-GGA Exchange-Correlation Functional

    P. J. Stephens, F. J. Devlin, C. F. Chabalowski, and M. J. Frisch.,  J. Phys. Chem. 98, 11623 (1994) (10.1021/j100096a001)

    Deriv               =              1
    GGA                 =           TRUE
    Meta                =          FALSE

    Exchange Hybrid     =           TRUE
    MP2 Hybrid          =          FALSE

   => Exchange Functionals <=

    0.0800   Slater exchange
    0.7200         Becke 88

   => Exact (HF) Exchange <=

    0.2000               HF 

   => Correlation Functionals <=

    0.1900   Vosko, Wilk & Nusair (VWN5_RPA)
    0.8100   Lee, Yang & Parr

   => LibXC Density Thresholds  <==

    XC_HYB_GGA_XC_B3LYP:  1.00E-15 

   => Molecular Quadrature <=

    Radial Scheme          =       TREUTLER
    Pruning Scheme         =           NONE
    Nuclear Scheme         =       TREUTLER

    Blocking Scheme        =         OCTREE
    BS radius alpha        =              1
    Pruning alpha          =              1
    Radial Points          =             75
    Spherical Points       =            302
    Total Points           =          40692
    Total Blocks           =            376
    Max Points             =            256
    Max Functions          =             36
    Weights Tolerance      =       1.00E-15


  -Total Gradient:
     Atom            X                  Y                   Z
    ------   -----------------  -----------------  -----------------
       1        0.000000000000    -2.594798900312    -0.000000000000
       2       -0.000000000000     2.594798900312     0.000000000000


*** tstop() called on Joses-MacBook-Pro-2.local at Wed Jul 16 20:20:54 2025
Module time:
	user time   =       2.43 seconds =       0.04 minutes
	system time =       1.03 seconds =       0.02 minutes
	total time  =          0 seconds =       0.00 minutes
Total time:
	user time   =      42.40 seconds =       0.71 minutes
	system time =      10.98 seconds =       0.18 minutes
	total time  =          5 seconds =       0.08 minutes

    			-----------------------------------------

    			 OPTKING 3.0: for geometry optimizations 

    			     By R.A. King, Bethel University     

    			        with contributions from          

    			    A.V. Copan, J. Cayton, A. Heide      

    			-----------------------------------------

    
	                            ===> Fragment 1 <== 

	 Z (Atomic Numbers)          Masses                          Geom                  
	      15.000000            30.973762         -0.00000000  1.15274451  0.00000000   
	      15.000000            30.973762          0.00000000 -1.15274451  0.00000000   

	 - Coordinate -           - BOHR/RAD -       - ANG/DEG -
	 R(1,2)           =         2.305489           1.220012


	        --- Internal Coordinate Step in ANG or DEG, aJ/ANG or AJ/DEG ---
	-------------------------------------------------------------------------------
	           Coordinate      Previous         Force          Change          New 
	           ----------      --------        ------          ------        ------
	               R(1,2)       1.22001       21.37783        0.04998       1.26999
	-------------------------------------------------------------------------------

	                                 ==> Convergence Check <==                                  
    
	Measures of convergence in internal coordinates in au.
    
	Criteria marked as inactive (o), active & met (*), and active & unmet ( ).

	----------------------------------------------------------------------------------------------
	   Step    Total Energy     Delta E     Max Force     RMS Force      Max Disp      RMS Disp   
	----------------------------------------------------------------------------------------------
	  Convergence Criteria     1.00e-06 *    3.00e-04 *             o    1.20e-03 *             o
	----------------------------------------------------------------------------------------------
	     3    -681.68212463   -6.65e-02      2.59e+00      2.59e+00 o    9.44e-02      9.44e-02 o  ~
	----------------------------------------------------------------------------------------------

Next Geometry in Ang 
	Fragment 1 (Ang)

	    P  -0.0000000000   0.6349964209   0.0000000000
	    P   0.0000000000  -0.6349964209   0.0000000000


    Structure for next step:
    Molecular point group: d2h
    Full point group: D_inf_h

    Geometry (in Angstrom), charge = 0, multiplicity = 1:

    P           -0.000000000000     0.634996420916     0.000000000000
    P            0.000000000000    -0.634996420916     0.000000000000


Scratch directory: /tmp/
gradient() will perform analytic gradient computation.
   => Libint2 <=

    Primary   basis highest AM E, G, H:  6, 6, 3
    Auxiliary basis highest AM E, G, H:  7, 7, 4
    Onebody   basis highest AM E, G, H:  -, -, -
    Solid Harmonics ordering:            Gaussian

*** tstart() called on Joses-MacBook-Pro-2.local
*** at Wed Jul 16 20:20:54 2025

   => Loading Basis Set <=

    Name: CC-PVDZ
    Role: ORBITAL
    Keyword: BASIS
    atoms 1-2 entry P          line   538 file /Users/joseantoniorodriguesromero/anaconda3/share/psi4/basis/cc-pvdz.gbs 


         ---------------------------------------------------------
                                   SCF
               by Justin Turney, Rob Parrish, Andy Simmonett
                          and Daniel G. A. Smith
                              UKS Reference
                        1 Threads,    500 MiB Core
         ---------------------------------------------------------

  ==> Geometry <==

    Molecular point group: d2h
    Full point group: D_inf_h

    Geometry (in Angstrom), charge = 0, multiplicity = 1:

       Center              X                  Y                   Z               Mass       
    ------------   -----------------  -----------------  -----------------  -----------------
         P           -0.000000000000     0.634996420916     0.000000000000    30.973761998420
         P            0.000000000000    -0.634996420916     0.000000000000    30.973761998420

  Running in d2h symmetry.

  Rotational constants: A = ************  B =      0.67489  C =      0.67489 [cm^-1]
  Rotational constants: A = ************  B =  20232.55324  C =  20232.55324 [MHz]
  Nuclear repulsion =   93.752396453737603

  Charge       = 0
  Multiplicity = 1
  Electrons    = 30
  Nalpha       = 15
  Nbeta        = 15

  ==> Algorithm <==

  SCF Algorithm Type is DF.
  DIIS enabled.
  MOM disabled.
  Fractional occupation disabled.
  Guess Type is READ.
  Energy threshold   = 1.00e-08
  Density threshold  = 1.00e-08
  Integral threshold = 1.00e-12

  ==> Primary Basis <==

  Basis Set: CC-PVDZ
    Blend: CC-PVDZ
    Number of shells: 16
    Number of basis functions: 36
    Number of Cartesian functions: 38
    Spherical Harmonics?: true
    Max angular momentum: 2

  ==> DFT Potential <==

   => LibXC <=

    Version 6.2.2
    S. Lehtola, C. Steigemann, M. J.T. Oliveira, and M. A.L. Marques.,  SoftwareX 7, 1–5 (2018) (10.1016/j.softx.2017.11.002)

   => Composite Functional: B3LYP <= 

    B3LYP Hyb-GGA Exchange-Correlation Functional

    P. J. Stephens, F. J. Devlin, C. F. Chabalowski, and M. J. Frisch.,  J. Phys. Chem. 98, 11623 (1994) (10.1021/j100096a001)

    Deriv               =              1
    GGA                 =           TRUE
    Meta                =          FALSE

    Exchange Hybrid     =           TRUE
    MP2 Hybrid          =          FALSE

   => Exchange Functionals <=

    0.0800   Slater exchange
    0.7200         Becke 88

   => Exact (HF) Exchange <=

    0.2000               HF 

   => Correlation Functionals <=

    0.1900   Vosko, Wilk & Nusair (VWN5_RPA)
    0.8100   Lee, Yang & Parr

   => LibXC Density Thresholds  <==

    XC_HYB_GGA_XC_B3LYP:  1.00E-15 

   => Molecular Quadrature <=

    Radial Scheme          =       TREUTLER
    Pruning Scheme         =           NONE
    Nuclear Scheme         =       TREUTLER

    Blocking Scheme        =         OCTREE
    BS radius alpha        =              1
    Pruning alpha          =              1
    Radial Points          =             75
    Spherical Points       =            302
    Total Points           =          40692
    Total Blocks           =            376
    Max Points             =            251
    Max Functions          =             36
    Weights Tolerance      =       1.00E-15

   => Loading Basis Set <=

    Name: (CC-PVDZ AUX)
    Role: JKFIT
    Keyword: DF_BASIS_SCF
    atoms 1-2 entry P          line   519 file /Users/joseantoniorodriguesromero/anaconda3/share/psi4/basis/cc-pvdz-jkfit.gbs 

   => Loading Basis Set <=

    Name: CC-PVDZ
    Role: ORBITAL
    Keyword: BASIS
    atoms 1-2 entry P          line   538 file /Users/joseantoniorodriguesromero/anaconda3/share/psi4/basis/cc-pvdz.gbs 

  Reading orbitals from file /tmp/singlet_PP.default.69600.180.npy, no projection.

  ==> Integral Setup <==

  DFHelper Memory: AOs need 0.003 GiB; user supplied 0.324 GiB. 
  Using in-core AOs.

  ==> MemDFJK: Density-Fitted J/K Matrices <==

    J tasked:                   Yes
    K tasked:                   Yes
    wK tasked:                   No
    OpenMP threads:               1
    Memory [MiB]:               331
    Algorithm:                 Core
    Schwarz Cutoff:           1E-12
    Mask sparsity (%):       0.0000
    Fitting Condition:        1E-10

   => Auxiliary Basis Set <=

  Basis Set: (CC-PVDZ AUX)
    Blend: CC-PVDZ-JKFIT
    Number of shells: 72
    Number of basis functions: 224
    Number of Cartesian functions: 260
    Spherical Harmonics?: true
    Max angular momentum: 3

  Cached 100.0% of DFT collocation blocks in 0.042 [GiB].

  Minimum eigenvalue in the overlap matrix is 4.4890789893E-03.
  Reciprocal condition number of the overlap matrix is 1.4668775927E-03.
    Using symmetric orthogonalization.

  ==> Pre-Iterations <==

  SCF Guess: Orbitals guess was supplied from a previous computation.

   -------------------------------------------------------
    Irrep   Nso     Nmo     Nalpha   Nbeta   Ndocc  Nsocc
   -------------------------------------------------------
     Ag         9       9       5       5       5       0
     B1g        4       4       1       1       1       0
     B2g        1       1       0       0       0       0
     B3g        4       4       1       1       1       0
     Au         1       1       0       0       0       0
     B1u        4       4       2       2       2       0
     B2u        9       9       4       4       4       0
     B3u        4       4       2       2       2       0
   -------------------------------------------------------
    Total      36      36      15      15      15       0
   -------------------------------------------------------

  ==> Iterations <==

                           Total Energy        Delta E     RMS |[F,P]|

   @DF-UKS iter   0:  -681.93655997318956   -6.81937e+02   2.91968e-02 
   @DF-UKS iter   1:  -681.90466825152907    3.18917e-02   2.45909e-03 ADIIS/DIIS
   @DF-UKS iter   2:  -681.90504452729704   -3.76276e-04   1.69264e-03 ADIIS/DIIS/DAMP=1%
   @DF-UKS iter   3:  -681.90772500439596   -2.68048e-03   8.97924e-05 DIIS/DAMP=1%
   @DF-UKS iter   4:  -681.90544715923659    2.27785e-03   6.40986e-06 DIIS/DAMP=1%
   @DF-UKS iter   5:  -681.90550979437864   -6.26351e-05   6.62937e-07 DIIS/DAMP=1%
   @DF-UKS iter   6:  -681.90550744630548    2.34807e-06   6.12928e-08 DIIS/DAMP=1%
   @DF-UKS iter   7:  -681.90550645844553    9.87860e-07   4.44070e-09 DIIS/DAMP=1%
   @DF-UKS iter   8:  -681.90550655072184   -9.22763e-08   2.71233e-10 DIIS/DAMP=1%
   @DF-UKS iter   9:  -681.90550654513663    5.58521e-09   1.69052e-11 DIIS/DAMP=1%
  Energy and wave function converged.


  ==> Post-Iterations <==

   Electrons on quadrature grid:
      Nalpha   =   14.9999979990 ; deviation = -2.001e-06
      Nbeta    =   14.9999979990 ; deviation = -2.001e-06
      Ntotal   =   29.9999959980 ; deviation = -4.002e-06 

   @Spin Contamination Metric:   5.329070518E-15
   @S^2 Expected:                0.000000000E+00
   @S^2 Observed:                5.329070518E-15
   @S   Expected:                0.000000000E+00
   @S   Observed:                0.000000000E+00

    Orbital Energies [Eh]
    ---------------------

    Alpha Occupied:                                                       

       1Ag   -77.035408     1B2u  -77.035403     2Ag    -6.605853  
       2B2u   -6.571053     3Ag    -4.800288     1B3u   -4.735657  
       1B1u   -4.735657     1B1g   -4.724006     1B3g   -4.724006  
       3B2u   -4.717505     4Ag    -0.788569     4B2u   -0.392210  
       2B3u   -0.382845     2B1u   -0.382845     5Ag    -0.243857  

    Alpha Virtual:                                                        

       2B3g   -0.011736     2B1g   -0.011736     5B2u    0.185680  
       6Ag     0.218764     3B1u    0.243488     3B3u    0.243488  
       1B2g    0.315526     7Ag     0.315528     8Ag     0.387343  
       3B3g    0.504346     3B1g    0.504346     6B2u    0.506762  
       4B1u    0.538194     4B3u    0.538194     1Au     0.661319  
       7B2u    0.661320     8B2u    0.719485     9Ag     0.880545  
       4B3g    1.114995     4B1g    1.114995     9B2u    2.327691  

    Beta Occupied:                                                        

       1Ag   -77.035408     1B2u  -77.035403     2Ag    -6.605853  
       2B2u   -6.571053     3Ag    -4.800288     1B3u   -4.735657  
       1B1u   -4.735657     1B1g   -4.724006     1B3g   -4.724006  
       3B2u   -4.717505     4Ag    -0.788569     4B2u   -0.392210  
       2B3u   -0.382845     2B1u   -0.382845     5Ag    -0.243857  

    Beta Virtual:                                                         

       2B3g   -0.011736     2B1g   -0.011736     5B2u    0.185680  
       6Ag     0.218764     3B1u    0.243488     3B3u    0.243488  
       1B2g    0.315526     7Ag     0.315528     8Ag     0.387343  
       3B3g    0.504346     3B1g    0.504346     6B2u    0.506762  
       4B1u    0.538194     4B3u    0.538194     1Au     0.661319  
       7B2u    0.661320     8B2u    0.719485     9Ag     0.880545  
       4B3g    1.114995     4B1g    1.114995     9B2u    2.327691  

    Final Occupation by Irrep:
             Ag   B1g   B2g   B3g    Au   B1u   B2u   B3u 
    DOCC [     5,    1,    0,    1,    0,    2,    4,    2 ]
    SOCC [     0,    0,    0,    0,    0,    0,    0,    0 ]
    NA   [     5,    1,    0,    1,    0,    2,    4,    2 ]
    NB   [     5,    1,    0,    1,    0,    2,    4,    2 ]

  @DF-UKS Final Energy:  -681.90550654513663

   => Energetics <=

    Nuclear Repulsion Energy =             93.7523964537376031
    One-Electron Energy =               -1128.6196422772190999
    Two-Electron Energy =                 390.8346400137451155
    DFT Exchange-Correlation Energy =     -37.8729007354002931
    Empirical Dispersion Energy =           0.0000000000000000
    VV10 Nonlocal Energy =                  0.0000000000000000
    Total Energy =                       -681.9055065451366318

  UHF NO Occupations:
  HONO-2 :    5 Ag 2.0000000
  HONO-1 :    4B2u 2.0000000
  HONO-0 :    1B3g 2.0000000
  LUNO+0 :    5B2u 0.0000000
  LUNO+1 :    2B3g 0.0000000
  LUNO+2 :    6 Ag 0.0000000
  LUNO+3 :    3B1u 0.0000000


Computation Completed


Properties will be evaluated at   0.000000,   0.000000,   0.000000 [a0]

Properties computed using the SCF density matrix


 Multipole Moments:

 ------------------------------------------------------------------------------------
     Multipole            Electronic (a.u.)      Nuclear  (a.u.)        Total (a.u.)
 ------------------------------------------------------------------------------------

 L = 1.  Multiply by 2.5417464519 to convert [e a0] to [Debye]
 Dipole X            :          0.0000000            0.0000000            0.0000000
 Dipole Y            :          0.0000000            0.0000000            0.0000000
 Dipole Z            :          0.0000000            0.0000000            0.0000000
 Magnitude           :                                                    0.0000000

 ------------------------------------------------------------------------------------

*** tstop() called on Joses-MacBook-Pro-2.local at Wed Jul 16 20:20:55 2025
Module time:
	user time   =       7.10 seconds =       0.12 minutes
	system time =       2.49 seconds =       0.04 minutes
	total time  =          1 seconds =       0.02 minutes
Total time:
	user time   =      49.67 seconds =       0.83 minutes
	system time =      13.59 seconds =       0.23 minutes
	total time  =          6 seconds =       0.10 minutes

*** tstart() called on Joses-MacBook-Pro-2.local
*** at Wed Jul 16 20:20:55 2025


         ------------------------------------------------------------
                                   SCF GRAD                          
                          Rob Parrish, Justin Turney,                
                       Andy Simmonett, and Alex Sokolov              
         ------------------------------------------------------------

  ==> Geometry <==

    Molecular point group: d2h
    Full point group: D_inf_h

    Geometry (in Angstrom), charge = 0, multiplicity = 1:

       Center              X                  Y                   Z               Mass       
    ------------   -----------------  -----------------  -----------------  -----------------
         P           -0.000000000000     0.634996420916     0.000000000000    30.973761998420
         P            0.000000000000    -0.634996420916     0.000000000000    30.973761998420

  Nuclear repulsion =   93.752396453737603

  ==> Basis Set <==

  Basis Set: CC-PVDZ
    Blend: CC-PVDZ
    Number of shells: 16
    Number of basis functions: 36
    Number of Cartesian functions: 38
    Spherical Harmonics?: true
    Max angular momentum: 2

  ==> DFJKGrad: Density-Fitted SCF Gradients <==

    Gradient:                    1
    J tasked:                  Yes
    K tasked:                  Yes
    wK tasked:                  No
    OpenMP threads:              1
    Integrals threads:           1
    Memory [MiB]:              375
    Schwarz Cutoff:          1E-12
    Fitting Condition:       1E-10

   => Auxiliary Basis Set <=

  Basis Set: (CC-PVDZ AUX)
    Blend: CC-PVDZ-JKFIT
    Number of shells: 72
    Number of basis functions: 224
    Number of Cartesian functions: 260
    Spherical Harmonics?: true
    Max angular momentum: 3

  ==> DFT Potential <==

   => LibXC <=

    Version 6.2.2
    S. Lehtola, C. Steigemann, M. J.T. Oliveira, and M. A.L. Marques.,  SoftwareX 7, 1–5 (2018) (10.1016/j.softx.2017.11.002)

   => Composite Functional: B3LYP <= 

    B3LYP Hyb-GGA Exchange-Correlation Functional

    P. J. Stephens, F. J. Devlin, C. F. Chabalowski, and M. J. Frisch.,  J. Phys. Chem. 98, 11623 (1994) (10.1021/j100096a001)

    Deriv               =              1
    GGA                 =           TRUE
    Meta                =          FALSE

    Exchange Hybrid     =           TRUE
    MP2 Hybrid          =          FALSE

   => Exchange Functionals <=

    0.0800   Slater exchange
    0.7200         Becke 88

   => Exact (HF) Exchange <=

    0.2000               HF 

   => Correlation Functionals <=

    0.1900   Vosko, Wilk & Nusair (VWN5_RPA)
    0.8100   Lee, Yang & Parr

   => LibXC Density Thresholds  <==

    XC_HYB_GGA_XC_B3LYP:  1.00E-15 

   => Molecular Quadrature <=

    Radial Scheme          =       TREUTLER
    Pruning Scheme         =           NONE
    Nuclear Scheme         =       TREUTLER

    Blocking Scheme        =         OCTREE
    BS radius alpha        =              1
    Pruning alpha          =              1
    Radial Points          =             75
    Spherical Points       =            302
    Total Points           =          40692
    Total Blocks           =            376
    Max Points             =            251
    Max Functions          =             36
    Weights Tolerance      =       1.00E-15


  -Total Gradient:
     Atom            X                  Y                   Z
    ------   -----------------  -----------------  -----------------
       1        0.000000000000    -2.145948565141     0.000000000000
       2       -0.000000000000     2.145948565141    -0.000000000000


*** tstop() called on Joses-MacBook-Pro-2.local at Wed Jul 16 20:20:55 2025
Module time:
	user time   =       1.98 seconds =       0.03 minutes
	system time =       2.02 seconds =       0.03 minutes
	total time  =          0 seconds =       0.00 minutes
Total time:
	user time   =      51.65 seconds =       0.86 minutes
	system time =      15.62 seconds =       0.26 minutes
	total time  =          6 seconds =       0.10 minutes

    			-----------------------------------------

    			 OPTKING 3.0: for geometry optimizations 

    			     By R.A. King, Bethel University     

    			        with contributions from          

    			    A.V. Copan, J. Cayton, A. Heide      

    			-----------------------------------------

    
	                            ===> Fragment 1 <== 

	 Z (Atomic Numbers)          Masses                          Geom                  
	      15.000000            30.973762         -0.00000000  1.19996933  0.00000000   
	      15.000000            30.973762          0.00000000 -1.19996933  0.00000000   

	 - Coordinate -           - BOHR/RAD -       - ANG/DEG -
	 R(1,2)           =         2.399939           1.269993


	        --- Internal Coordinate Step in ANG or DEG, aJ/ANG or AJ/DEG ---
	-------------------------------------------------------------------------------
	           Coordinate      Previous         Force          Change          New 
	           ----------      --------        ------          ------        ------
	               R(1,2)       1.26999       17.67988        0.19931       1.46931
	-------------------------------------------------------------------------------

	                                 ==> Convergence Check <==                                  
    
	Measures of convergence in internal coordinates in au.
    
	Criteria marked as inactive (o), active & met (*), and active & unmet ( ).

	----------------------------------------------------------------------------------------------
	   Step    Total Energy     Delta E     Max Force     RMS Force      Max Disp      RMS Disp   
	----------------------------------------------------------------------------------------------
	  Convergence Criteria     1.00e-06 *    3.00e-04 *             o    1.20e-03 *             o
	----------------------------------------------------------------------------------------------
	     4    -681.90550655   -2.23e-01      2.15e+00      2.15e+00 o    3.77e-01      3.77e-01 o  ~
	----------------------------------------------------------------------------------------------

Next Geometry in Ang 
	Fragment 1 (Ang)

	    P  -0.0000000000   0.7346532725   0.0000000000
	    P   0.0000000000  -0.7346532725   0.0000000000


    Structure for next step:
    Molecular point group: d2h
    Full point group: D_inf_h

    Geometry (in Angstrom), charge = 0, multiplicity = 1:

    P           -0.000000000000     0.734653272535     0.000000000000
    P            0.000000000000    -0.734653272535     0.000000000000


Scratch directory: /tmp/
gradient() will perform analytic gradient computation.
   => Libint2 <=

    Primary   basis highest AM E, G, H:  6, 6, 3
    Auxiliary basis highest AM E, G, H:  7, 7, 4
    Onebody   basis highest AM E, G, H:  -, -, -
    Solid Harmonics ordering:            Gaussian

*** tstart() called on Joses-MacBook-Pro-2.local
*** at Wed Jul 16 20:20:55 2025

   => Loading Basis Set <=

    Name: CC-PVDZ
    Role: ORBITAL
    Keyword: BASIS
    atoms 1-2 entry P          line   538 file /Users/joseantoniorodriguesromero/anaconda3/share/psi4/basis/cc-pvdz.gbs 


         ---------------------------------------------------------
                                   SCF
               by Justin Turney, Rob Parrish, Andy Simmonett
                          and Daniel G. A. Smith
                              UKS Reference
                        1 Threads,    500 MiB Core
         ---------------------------------------------------------

  ==> Geometry <==

    Molecular point group: d2h
    Full point group: D_inf_h

    Geometry (in Angstrom), charge = 0, multiplicity = 1:

       Center              X                  Y                   Z               Mass       
    ------------   -----------------  -----------------  -----------------  -----------------
         P           -0.000000000000     0.734653272535     0.000000000000    30.973761998420
         P            0.000000000000    -0.734653272535     0.000000000000    30.973761998420

  Running in d2h symmetry.

  Rotational constants: A = ************  B =      0.50421  C =      0.50421 [cm^-1]
  Rotational constants: A = ************  B =  15115.70514  C =  15115.70514 [MHz]
  Nuclear repulsion =   81.034739006780299

  Charge       = 0
  Multiplicity = 1
  Electrons    = 30
  Nalpha       = 15
  Nbeta        = 15

  ==> Algorithm <==

  SCF Algorithm Type is DF.
  DIIS enabled.
  MOM disabled.
  Fractional occupation disabled.
  Guess Type is READ.
  Energy threshold   = 1.00e-08
  Density threshold  = 1.00e-08
  Integral threshold = 1.00e-12

  ==> Primary Basis <==

  Basis Set: CC-PVDZ
    Blend: CC-PVDZ
    Number of shells: 16
    Number of basis functions: 36
    Number of Cartesian functions: 38
    Spherical Harmonics?: true
    Max angular momentum: 2

  ==> DFT Potential <==

   => LibXC <=

    Version 6.2.2
[...]
    
	Criteria marked as inactive (o), active & met (*), and active & unmet ( ).

	----------------------------------------------------------------------------------------------
	   Step    Total Energy     Delta E     Max Force     RMS Force      Max Disp      RMS Disp   
	----------------------------------------------------------------------------------------------
	  Convergence Criteria     1.00e-06 *    3.00e-04 *             o    1.20e-03 *             o
	----------------------------------------------------------------------------------------------
	    13    -682.72756908   -8.41e-06      6.00e-04      6.00e-04 o    1.39e-03      1.39e-03 o  ~
	----------------------------------------------------------------------------------------------

Next Geometry in Ang 
	Fragment 1 (Ang)

	    P  -0.0000000000   0.9543877676   0.0000000000
	    P   0.0000000000  -0.9543877676   0.0000000000


    Structure for next step:
    Molecular point group: d2h
    Full point group: D_inf_h

    Geometry (in Angstrom), charge = 0, multiplicity = 1:

    P           -0.000000000000     0.954387767593     0.000000000000
    P            0.000000000000    -0.954387767593     0.000000000000


Scratch directory: /tmp/
gradient() will perform analytic gradient computation.
   => Libint2 <=

    Primary   basis highest AM E, G, H:  6, 6, 3
    Auxiliary basis highest AM E, G, H:  7, 7, 4
    Onebody   basis highest AM E, G, H:  -, -, -
    Solid Harmonics ordering:            Gaussian

*** tstart() called on Joses-MacBook-Pro-2.local
*** at Wed Jul 16 20:21:08 2025

   => Loading Basis Set <=

    Name: CC-PVDZ
    Role: ORBITAL
    Keyword: BASIS
    atoms 1-2 entry P          line   538 file /Users/joseantoniorodriguesromero/anaconda3/share/psi4/basis/cc-pvdz.gbs 


         ---------------------------------------------------------
                                   SCF
               by Justin Turney, Rob Parrish, Andy Simmonett
                          and Daniel G. A. Smith
                              UKS Reference
                        1 Threads,    500 MiB Core
         ---------------------------------------------------------

  ==> Geometry <==

    Molecular point group: d2h
    Full point group: D_inf_h

    Geometry (in Angstrom), charge = 0, multiplicity = 1:

       Center              X                  Y                   Z               Mass       
    ------------   -----------------  -----------------  -----------------  -----------------
         P           -0.000000000000     0.954387767593     0.000000000000    30.973761998420
         P            0.000000000000    -0.954387767593     0.000000000000    30.973761998420

  Running in d2h symmetry.

  Rotational constants: A = ************  B =      0.29876  C =      0.29876 [cm^-1]
  Rotational constants: A = ************  B =   8956.60699  C =   8956.60699 [MHz]
  Nuclear repulsion =   62.377618638737346

  Charge       = 0
  Multiplicity = 1
  Electrons    = 30
  Nalpha       = 15
  Nbeta        = 15

  ==> Algorithm <==

  SCF Algorithm Type is DF.
  DIIS enabled.
  MOM disabled.
  Fractional occupation disabled.
  Guess Type is READ.
  Energy threshold   = 1.00e-08
  Density threshold  = 1.00e-08
  Integral threshold = 1.00e-12

  ==> Primary Basis <==

  Basis Set: CC-PVDZ
    Blend: CC-PVDZ
    Number of shells: 16
    Number of basis functions: 36
    Number of Cartesian functions: 38
    Spherical Harmonics?: true
    Max angular momentum: 2

  ==> DFT Potential <==

   => LibXC <=

    Version 6.2.2
    S. Lehtola, C. Steigemann, M. J.T. Oliveira, and M. A.L. Marques.,  SoftwareX 7, 1–5 (2018) (10.1016/j.softx.2017.11.002)

   => Composite Functional: B3LYP <= 

    B3LYP Hyb-GGA Exchange-Correlation Functional

    P. J. Stephens, F. J. Devlin, C. F. Chabalowski, and M. J. Frisch.,  J. Phys. Chem. 98, 11623 (1994) (10.1021/j100096a001)

    Deriv               =              1
    GGA                 =           TRUE
    Meta                =          FALSE

    Exchange Hybrid     =           TRUE
    MP2 Hybrid          =          FALSE

   => Exchange Functionals <=

    0.0800   Slater exchange
    0.7200         Becke 88

   => Exact (HF) Exchange <=

    0.2000               HF 

   => Correlation Functionals <=

    0.1900   Vosko, Wilk & Nusair (VWN5_RPA)
    0.8100   Lee, Yang & Parr

   => LibXC Density Thresholds  <==

    XC_HYB_GGA_XC_B3LYP:  1.00E-15 

   => Molecular Quadrature <=

    Radial Scheme          =       TREUTLER
    Pruning Scheme         =           NONE
    Nuclear Scheme         =       TREUTLER

    Blocking Scheme        =         OCTREE
    BS radius alpha        =              1
    Pruning alpha          =              1
    Radial Points          =             75
    Spherical Points       =            302
    Total Points           =          40800
    Total Blocks           =            372
    Max Points             =            250
    Max Functions          =             36
    Weights Tolerance      =       1.00E-15

   => Loading Basis Set <=

    Name: (CC-PVDZ AUX)
    Role: JKFIT
    Keyword: DF_BASIS_SCF
    atoms 1-2 entry P          line   519 file /Users/joseantoniorodriguesromero/anaconda3/share/psi4/basis/cc-pvdz-jkfit.gbs 

   => Loading Basis Set <=

    Name: CC-PVDZ
    Role: ORBITAL
    Keyword: BASIS
    atoms 1-2 entry P          line   538 file /Users/joseantoniorodriguesromero/anaconda3/share/psi4/basis/cc-pvdz.gbs 

  Reading orbitals from file /tmp/singlet_PP.default.69600.180.npy, no projection.

  ==> Integral Setup <==

  DFHelper Memory: AOs need 0.003 GiB; user supplied 0.324 GiB. 
  Using in-core AOs.

  ==> MemDFJK: Density-Fitted J/K Matrices <==

    J tasked:                   Yes
    K tasked:                   Yes
    wK tasked:                   No
    OpenMP threads:               1
    Memory [MiB]:               331
    Algorithm:                 Core
    Schwarz Cutoff:           1E-12
    Mask sparsity (%):       0.0000
    Fitting Condition:        1E-10

   => Auxiliary Basis Set <=

  Basis Set: (CC-PVDZ AUX)
    Blend: CC-PVDZ-JKFIT
    Number of shells: 72
    Number of basis functions: 224
    Number of Cartesian functions: 260
    Spherical Harmonics?: true
    Max angular momentum: 3

  Cached 100.0% of DFT collocation blocks in 0.042 [GiB].

  Minimum eigenvalue in the overlap matrix is 1.8758021615E-02.
  Reciprocal condition number of the overlap matrix is 7.0419741621E-03.
    Using symmetric orthogonalization.

  ==> Pre-Iterations <==

  SCF Guess: Orbitals guess was supplied from a previous computation.

   -------------------------------------------------------
    Irrep   Nso     Nmo     Nalpha   Nbeta   Ndocc  Nsocc
   -------------------------------------------------------
     Ag         9       9       5       5       5       0
     B1g        4       4       1       1       1       0
     B2g        1       1       0       0       0       0
     B3g        4       4       1       1       1       0
     Au         1       1       0       0       0       0
     B1u        4       4       2       2       2       0
     B2u        9       9       4       4       4       0
     B3u        4       4       2       2       2       0
   -------------------------------------------------------
    Total      36      36      15      15      15       0
   -------------------------------------------------------

  ==> Iterations <==

                           Total Energy        Delta E     RMS |[F,P]|

   @DF-UKS iter   0:  -682.72721789178900   -6.82727e+02   1.19444e-04 
   @DF-UKS iter   1:  -682.72756950142798   -3.51610e-04   1.69459e-05 DIIS
   @DF-UKS iter   2:  -682.72756952101258   -1.95846e-08   1.41497e-05 DIIS/DAMP=1%
   @DF-UKS iter   3:  -682.72755761920928    1.19018e-05   2.06649e-07 DIIS/DAMP=1%
   @DF-UKS iter   4:  -682.72756933452308   -1.17153e-05   8.09150e-08 DIIS/DAMP=1%
   @DF-UKS iter   5:  -682.72756952312648   -1.88603e-07   1.13031e-08 DIIS/DAMP=1%
   @DF-UKS iter   6:  -682.72756954367640   -2.05499e-08   8.35153e-10 DIIS/DAMP=1%
   @DF-UKS iter   7:  -682.72756955835189   -1.46755e-08   4.54293e-11 DIIS/DAMP=1%
   @DF-UKS iter   8:  -682.72756955777857    5.73323e-10   3.17041e-12 DIIS/DAMP=1%
  Energy and wave function converged.


  ==> Post-Iterations <==

   Electrons on quadrature grid:
      Nalpha   =   14.9999991575 ; deviation = -8.425e-07
      Nbeta    =   14.9999991575 ; deviation = -8.425e-07
      Ntotal   =   29.9999983149 ; deviation = -1.685e-06 

   @Spin Contamination Metric:  -3.552713679E-15
   @S^2 Expected:                0.000000000E+00
   @S^2 Observed:               -3.552713679E-15
   @S   Expected:                0.000000000E+00
   @S   Observed:                0.000000000E+00

    Orbital Energies [Eh]
    ---------------------

    Alpha Occupied:                                                       

       1Ag   -77.104092     1B2u  -77.104091     2Ag    -6.575547  
       2B2u   -6.575246     1B1u   -4.736783     1B3u   -4.736783  
       1B3g   -4.736607     1B1g   -4.736607     3Ag    -4.734326  
       3B2u   -4.732356     4Ag    -0.681738     4B2u   -0.464174  
       5Ag    -0.293418     2B1u   -0.282539     2B3u   -0.282539  

    Alpha Virtual:                                                        

       2B1g   -0.095229     2B3g   -0.095229     5B2u    0.078803  
       6Ag     0.239527     3B3u    0.327790     3B1u    0.327790  
       7Ag     0.363298     6B2u    0.400117     8Ag     0.409299  
       1B2g    0.409300     4B3u    0.435809     4B1u    0.435809  
       3B3g    0.461612     3B1g    0.461612     7B2u    0.543372  
       1Au     0.543373     8B2u    0.604066     9Ag     0.748967  
       4B1g    0.784516     4B3g    0.784516     9B2u    1.146528  

    Beta Occupied:                                                        

       1Ag   -77.104092     1B2u  -77.104091     2Ag    -6.575547  
       2B2u   -6.575246     1B1u   -4.736783     1B3u   -4.736783  
       1B3g   -4.736607     1B1g   -4.736607     3Ag    -4.734326  
       3B2u   -4.732356     4Ag    -0.681738     4B2u   -0.464174  
       5Ag    -0.293418     2B1u   -0.282539     2B3u   -0.282539  

    Beta Virtual:                                                         

       2B1g   -0.095229     2B3g   -0.095229     5B2u    0.078803  
       6Ag     0.239527     3B3u    0.327790     3B1u    0.327790  
       7Ag     0.363298     6B2u    0.400117     8Ag     0.409299  
       1B2g    0.409300     4B3u    0.435809     4B1u    0.435809  
       3B3g    0.461612     3B1g    0.461612     7B2u    0.543372  
       1Au     0.543373     8B2u    0.604066     9Ag     0.748967  
       4B1g    0.784516     4B3g    0.784516     9B2u    1.146528  

    Final Occupation by Irrep:
             Ag   B1g   B2g   B3g    Au   B1u   B2u   B3u 
    DOCC [     5,    1,    0,    1,    0,    2,    4,    2 ]
    SOCC [     0,    0,    0,    0,    0,    0,    0,    0 ]
    NA   [     5,    1,    0,    1,    0,    2,    4,    2 ]
    NB   [     5,    1,    0,    1,    0,    2,    4,    2 ]

  @DF-UKS Final Energy:  -682.72756955777857

   => Energetics <=

    Nuclear Repulsion Energy =             62.3776186387373457
    One-Electron Energy =               -1068.0222682127855478
    Two-Electron Energy =                 360.3340737223950327
    DFT Exchange-Correlation Energy =     -37.4169937061253748
    Empirical Dispersion Energy =           0.0000000000000000
    VV10 Nonlocal Energy =                  0.0000000000000000
    Total Energy =                       -682.7275695577785655

  UHF NO Occupations:
  HONO-2 :    2B3u 2.0000000
  HONO-1 :    4B2u 2.0000000
  HONO-0 :    5 Ag 2.0000000
  LUNO+0 :    6 Ag 0.0000000
  LUNO+1 :    2B3g 0.0000000
  LUNO+2 :    2B1g 0.0000000
  LUNO+3 :    3B3u 0.0000000


Computation Completed


Properties will be evaluated at   0.000000,   0.000000,   0.000000 [a0]

Properties computed using the SCF density matrix


 Multipole Moments:

 ------------------------------------------------------------------------------------
     Multipole            Electronic (a.u.)      Nuclear  (a.u.)        Total (a.u.)
 ------------------------------------------------------------------------------------

 L = 1.  Multiply by 2.5417464519 to convert [e a0] to [Debye]
 Dipole X            :          0.0000000            0.0000000            0.0000000
 Dipole Y            :          0.0000000            0.0000000            0.0000000
 Dipole Z            :          0.0000000            0.0000000            0.0000000
 Magnitude           :                                                    0.0000000

 ------------------------------------------------------------------------------------

*** tstop() called on Joses-MacBook-Pro-2.local at Wed Jul 16 20:21:09 2025
Module time:
	user time   =       7.90 seconds =       0.13 minutes
	system time =       2.47 seconds =       0.04 minutes
	total time  =          1 seconds =       0.02 minutes
Total time:
	user time   =     156.80 seconds =       2.61 minutes
	system time =      49.75 seconds =       0.83 minutes
	total time  =         20 seconds =       0.33 minutes

*** tstart() called on Joses-MacBook-Pro-2.local
*** at Wed Jul 16 20:21:09 2025


         ------------------------------------------------------------
                                   SCF GRAD                          
                          Rob Parrish, Justin Turney,                
                       Andy Simmonett, and Alex Sokolov              
         ------------------------------------------------------------

  ==> Geometry <==

    Molecular point group: d2h
    Full point group: D_inf_h

    Geometry (in Angstrom), charge = 0, multiplicity = 1:

       Center              X                  Y                   Z               Mass       
    ------------   -----------------  -----------------  -----------------  -----------------
         P           -0.000000000000     0.954387767593     0.000000000000    30.973761998420
         P            0.000000000000    -0.954387767593     0.000000000000    30.973761998420

  Nuclear repulsion =   62.377618638737346

  ==> Basis Set <==

  Basis Set: CC-PVDZ
    Blend: CC-PVDZ
    Number of shells: 16
    Number of basis functions: 36
    Number of Cartesian functions: 38
    Spherical Harmonics?: true
    Max angular momentum: 2

  ==> DFJKGrad: Density-Fitted SCF Gradients <==

    Gradient:                    1
    J tasked:                  Yes
    K tasked:                  Yes
    wK tasked:                  No
    OpenMP threads:              1
    Integrals threads:           1
    Memory [MiB]:              375
    Schwarz Cutoff:          1E-12
    Fitting Condition:       1E-10

   => Auxiliary Basis Set <=

  Basis Set: (CC-PVDZ AUX)
    Blend: CC-PVDZ-JKFIT
    Number of shells: 72
    Number of basis functions: 224
    Number of Cartesian functions: 260
    Spherical Harmonics?: true
    Max angular momentum: 3

  ==> DFT Potential <==

   => LibXC <=

    Version 6.2.2
    S. Lehtola, C. Steigemann, M. J.T. Oliveira, and M. A.L. Marques.,  SoftwareX 7, 1–5 (2018) (10.1016/j.softx.2017.11.002)

   => Composite Functional: B3LYP <= 

    B3LYP Hyb-GGA Exchange-Correlation Functional

    P. J. Stephens, F. J. Devlin, C. F. Chabalowski, and M. J. Frisch.,  J. Phys. Chem. 98, 11623 (1994) (10.1021/j100096a001)

    Deriv               =              1
    GGA                 =           TRUE
    Meta                =          FALSE

    Exchange Hybrid     =           TRUE
    MP2 Hybrid          =          FALSE

   => Exchange Functionals <=

    0.0800   Slater exchange
    0.7200         Becke 88

   => Exact (HF) Exchange <=

    0.2000               HF 

   => Correlation Functionals <=

    0.1900   Vosko, Wilk & Nusair (VWN5_RPA)
    0.8100   Lee, Yang & Parr

   => LibXC Density Thresholds  <==

    XC_HYB_GGA_XC_B3LYP:  1.00E-15 

   => Molecular Quadrature <=

    Radial Scheme          =       TREUTLER
    Pruning Scheme         =           NONE
    Nuclear Scheme         =       TREUTLER

    Blocking Scheme        =         OCTREE
    BS radius alpha        =              1
    Pruning alpha          =              1
    Radial Points          =             75
    Spherical Points       =            302
    Total Points           =          40800
    Total Blocks           =            372
    Max Points             =            250
    Max Functions          =             36
    Weights Tolerance      =       1.00E-15


  -Total Gradient:
     Atom            X                  Y                   Z
    ------   -----------------  -----------------  -----------------
       1        0.000000000000    -0.000074459637    -0.000000000000
       2       -0.000000000000     0.000074459637    -0.000000000000


*** tstop() called on Joses-MacBook-Pro-2.local at Wed Jul 16 20:21:09 2025
Module time:
	user time   =       2.13 seconds =       0.04 minutes
	system time =       1.60 seconds =       0.03 minutes
	total time  =          0 seconds =       0.00 minutes
Total time:
	user time   =     158.93 seconds =       2.65 minutes
	system time =      51.35 seconds =       0.86 minutes
	total time  =         20 seconds =       0.33 minutes

    			-----------------------------------------

    			 OPTKING 3.0: for geometry optimizations 

    			     By R.A. King, Bethel University     

    			        with contributions from          

    			    A.V. Copan, J. Cayton, A. Heide      

    			-----------------------------------------

    
	                            ===> Fragment 1 <== 

	 Z (Atomic Numbers)          Masses                          Geom                  
	      15.000000            30.973762         -0.00000000  1.80353150  0.00000000   
	      15.000000            30.973762          0.00000000 -1.80353150  0.00000000   

	 - Coordinate -           - BOHR/RAD -       - ANG/DEG -
	 R(1,2)           =         3.607063           1.908776


	        --- Internal Coordinate Step in ANG or DEG, aJ/ANG or AJ/DEG ---
	-------------------------------------------------------------------------------
	           Coordinate      Previous         Force          Change          New 
	           ----------      --------        ------          ------        ------
	               R(1,2)       1.90878        0.00061        0.00010       1.90887
	-------------------------------------------------------------------------------

	                                 ==> Convergence Check <==                                  
    
	Measures of convergence in internal coordinates in au.
    
	Criteria marked as inactive (o), active & met (*), and active & unmet ( ).

	----------------------------------------------------------------------------------------------
	   Step    Total Energy     Delta E     Max Force     RMS Force      Max Disp      RMS Disp   
	----------------------------------------------------------------------------------------------
	  Convergence Criteria     1.00e-06 *    3.00e-04 *             o    1.20e-03 *             o
	----------------------------------------------------------------------------------------------
	    14    -682.72756956   -4.76e-07 *    7.45e-05 *    7.45e-05 o    1.85e-04 *    1.85e-04 o  ~
	----------------------------------------------------------------------------------------------

Next Geometry in Ang 
	Fragment 1 (Ang)

	    P  -0.0000000000   0.9544365845   0.0000000000
	    P   0.0000000000  -0.9544365845   0.0000000000


    Final optimized geometry and variables:
    Molecular point group: d2h
    Full point group: D_inf_h

    Geometry (in Angstrom), charge = 0, multiplicity = 1:

    P           -0.000000000000     0.954387767593     0.000000000000
    P            0.000000000000    -0.954387767593     0.000000000000


    Psi4 stopped on: Wednesday, 16 July 2025 08:21PM
    Psi4 wall time for execution: 0:00:21.28

*** Psi4 exiting successfully. Buy a developer a beer!
