
    -----------------------------------------------------------------------
          Psi4: An Open-Source Ab Initio Electronic Structure Package
                               Psi4 1.9.1 release

                         Git: Rev {} zzzzzzz 


    D. G. A. Smith, L. A. Burns, A. C. Simmonett, R. M. Parrish,
    M. C. Schieber, R. Galvelis, P. Kraus, H. Kruse, R. Di Remigio,
    A. Alenaizan, A. M. James, S. Lehtola, J. P. Misiewicz, M. Scheurer,
    R. A. Shaw, J. B. Schriber, Y. Xie, Z. L. Glick, D. A. Sirianni,
    J. S. O'Brien, J. M. Waldrop, A. Kumar, E. G. Hohenstein,
    B. P. Pritchard, B. R. Brooks, H. F. Schaefer III, A. Yu. Sokolov,
    K. Patkowski, A. E. DePrince III, U. Bozkaya, R. A. King,
    F. A. Evangelista, J. M. Turney, T. D. Crawford, C. D. Sherrill,
    J. Chem. Phys. 152(18) 184108 (2020). https://doi.org/10.1063/5.0006002

                            Additional Code Authors
    E. T. Seidl, C. L. Janssen, E. F. Valeev, M. L. Leininger,
    J. F. Gonthier, R. M. Richard, H. R. McAlexander, M. Saitow, X. Wang,
    P. Verma, M. H. Lechner, A. Jiang, S. Behnle, A. G. Heide,
    M. F. Herbst, and D. L. Poole

             Previous Authors, Complete List of Code Contributors,
                       and Citations for Specific Modules
    https://github.com/psi4/psi4/blob/master/codemeta.json
    https://github.com/psi4/psi4/graphs/contributors
    http://psicode.org/psi4manual/master/introduction.html#citing-psifour

    -----------------------------------------------------------------------


    Psi4 started on: Wednesday, 16 July 2025 08:31PM

    Process ID: 69810
    Host:       Joses-MacBook-Pro-2.local
    PSIDATADIR: /Users/joseantoniorodriguesromero/anaconda3/share/psi4
    Memory:     500.0 MiB
    Threads:    1
    
  ==> Input File <==

--------------------------------------------------------------------------
molecule { 
0 1
Cl   0.00000        0.60000        0.00000
Cl   0.00000       -0.60000        0.00000
}

set { 
basis              cc-pvdz
reference          uks
maxiter            500
geom_maxiter       500
DAMPING_PERCENTAGE 1
guess              SAP
}

optimize('b3lyp')
--------------------------------------------------------------------------

Scratch directory: /tmp/
gradient() will perform analytic gradient computation.
   => Libint2 <=

    Primary   basis highest AM E, G, H:  6, 6, 3
    Auxiliary basis highest AM E, G, H:  7, 7, 4
    Onebody   basis highest AM E, G, H:  -, -, -
    Solid Harmonics ordering:            Gaussian

*** tstart() called on Joses-MacBook-Pro-2.local
*** at Wed Jul 16 20:31:53 2025

   => Loading Basis Set <=

    Name: CC-PVDZ
    Role: ORBITAL
    Keyword: BASIS
    atoms 1-2 entry CL         line   658 file /Users/joseantoniorodriguesromero/anaconda3/share/psi4/basis/cc-pvdz.gbs 


         ---------------------------------------------------------
                                   SCF
               by Justin Turney, Rob Parrish, Andy Simmonett
                          and Daniel G. A. Smith
                              UKS Reference
                        1 Threads,    500 MiB Core
         ---------------------------------------------------------

  ==> Geometry <==

    Molecular point group: d2h
    Full point group: D_inf_h

    Geometry (in Angstrom), charge = 0, multiplicity = 1:

       Center              X                  Y                   Z               Mass       
    ------------   -----------------  -----------------  -----------------  -----------------
         CL          -0.000000000000     0.600000000000     0.000000000000    34.968852682000
         CL           0.000000000000    -0.600000000000     0.000000000000    34.968852682000

  Running in d2h symmetry.

  Rotational constants: A = ************  B =      0.66955  C =      0.66955 [cm^-1]
  Rotational constants: A = ************  B =  20072.58564  C =  20072.58564 [MHz]
  Nuclear repulsion =  127.443511569691680

  Charge       = 0
  Multiplicity = 1
  Electrons    = 34
  Nalpha       = 17
  Nbeta        = 17

  ==> Algorithm <==

  SCF Algorithm Type is DF.
  DIIS enabled.
  MOM disabled.
  Fractional occupation disabled.
  Guess Type is SAP.
  Energy threshold   = 1.00e-08
  Density threshold  = 1.00e-08
  Integral threshold = 1.00e-12

  ==> Primary Basis <==

  Basis Set: CC-PVDZ
    Blend: CC-PVDZ
    Number of shells: 16
    Number of basis functions: 36
    Number of Cartesian functions: 38
    Spherical Harmonics?: true
    Max angular momentum: 2

  ==> DFT Potential <==

   => LibXC <=

    Version 6.2.2
    S. Lehtola, C. Steigemann, M. J.T. Oliveira, and M. A.L. Marques.,  SoftwareX 7, 1–5 (2018) (10.1016/j.softx.2017.11.002)

   => Composite Functional: B3LYP <= 

    B3LYP Hyb-GGA Exchange-Correlation Functional

    P. J. Stephens, F. J. Devlin, C. F. Chabalowski, and M. J. Frisch.,  J. Phys. Chem. 98, 11623 (1994) (10.1021/j100096a001)

    Deriv               =              1
    GGA                 =           TRUE
    Meta                =          FALSE

    Exchange Hybrid     =           TRUE
    MP2 Hybrid          =          FALSE

   => Exchange Functionals <=

    0.0800   Slater exchange
    0.7200         Becke 88

   => Exact (HF) Exchange <=

    0.2000               HF 

   => Correlation Functionals <=

    0.1900   Vosko, Wilk & Nusair (VWN5_RPA)
    0.8100   Lee, Yang & Parr

   => LibXC Density Thresholds  <==

    XC_HYB_GGA_XC_B3LYP:  1.00E-15 

   => Molecular Quadrature <=

    Radial Scheme          =       TREUTLER
    Pruning Scheme         =           NONE
    Nuclear Scheme         =       TREUTLER

    Blocking Scheme        =         OCTREE
    BS radius alpha        =              1
    Pruning alpha          =              1
    Radial Points          =             75
    Spherical Points       =            302
    Total Points           =          39504
    Total Blocks           =            366
    Max Points             =            254
    Max Functions          =             36
    Weights Tolerance      =       1.00E-15

   => Loading Basis Set <=

    Name: (CC-PVDZ AUX)
    Role: JKFIT
    Keyword: DF_BASIS_SCF
    atoms 1-2 entry CL         line   667 file /Users/joseantoniorodriguesromero/anaconda3/share/psi4/basis/cc-pvdz-jkfit.gbs 

  ==> Integral Setup <==

  DFHelper Memory: AOs need 0.003 GiB; user supplied 0.325 GiB. 
  Using in-core AOs.

  ==> MemDFJK: Density-Fitted J/K Matrices <==

    J tasked:                   Yes
    K tasked:                   Yes
    wK tasked:                   No
    OpenMP threads:               1
    Memory [MiB]:               333
    Algorithm:                 Core
    Schwarz Cutoff:           1E-12
    Mask sparsity (%):       0.0000
    Fitting Condition:        1E-10

   => Auxiliary Basis Set <=

  Basis Set: (CC-PVDZ AUX)
    Blend: CC-PVDZ-JKFIT
    Number of shells: 72
    Number of basis functions: 224
    Number of Cartesian functions: 260
    Spherical Harmonics?: true
    Max angular momentum: 3

  Cached 100.0% of DFT collocation blocks in 0.041 [GiB].

  Minimum eigenvalue in the overlap matrix is 1.1413318222E-02.
  Reciprocal condition number of the overlap matrix is 3.8823448915E-03.
    Using symmetric orthogonalization.

  ==> Pre-Iterations <==

  SCF Guess: Superposition of Atomic Potentials (doi:10.1021/acs.jctc.8b01089).

  ==> SAP guess <==

   => Molecular Quadrature <=

    Radial Scheme          =       TREUTLER
    Pruning Scheme         =           NONE
    Nuclear Scheme         =       TREUTLER

    Blocking Scheme        =         OCTREE
    BS radius alpha        =              1
    Pruning alpha          =              1
    Radial Points          =             75
    Spherical Points       =            302
    Total Points           =          39504
    Total Blocks           =            366
    Max Points             =            254
    Max Functions          =             36
    Weights Tolerance      =       1.00E-15

   -------------------------------------------------------
    Irrep   Nso     Nmo     Nalpha   Nbeta   Ndocc  Nsocc
   -------------------------------------------------------
     Ag         9       9       5       5       5       0
     B1g        4       4       2       2       2       0
     B2g        1       1       0       0       0       0
     B3g        4       4       2       2       2       0
     Au         1       1       0       0       0       0
     B1u        4       4       2       2       2       0
     B2u        9       9       4       4       4       0
     B3u        4       4       2       2       2       0
   -------------------------------------------------------
    Total      36      36      17      17      17       0
   -------------------------------------------------------

  ==> Iterations <==

                           Total Energy        Delta E     RMS |[F,P]|

   @DF-UKS iter   1:  -918.87140767184519   -9.18871e+02   4.33670e-02 DIIS/ADIIS
   @DF-UKS iter   2:  -918.91192582397082   -4.05182e-02   4.18904e-02 DIIS/ADIIS/DAMP=1%
   @DF-UKS iter   3:  -919.05896348203419   -1.47038e-01   9.25429e-04 DIIS/ADIIS/DAMP=1%
   @DF-UKS iter   4:  -919.11302854993039   -5.40651e-02   2.93920e-04 DIIS/ADIIS/DAMP=1%
   @DF-UKS iter   5:  -919.11138026972003    1.64828e-03   4.56629e-05 DIIS/DAMP=1%
   @DF-UKS iter   6:  -919.11167605395565   -2.95784e-04   3.56565e-06 DIIS/DAMP=1%
   @DF-UKS iter   7:  -919.11171698199530   -4.09280e-05   1.69561e-07 DIIS/DAMP=1%
   @DF-UKS iter   8:  -919.11172164548952   -4.66349e-06   2.01341e-08 DIIS/DAMP=1%
   @DF-UKS iter   9:  -919.11172180440190   -1.58912e-07   1.08054e-09 DIIS/DAMP=1%
   @DF-UKS iter  10:  -919.11172182857001   -2.41681e-08   3.81447e-11 DIIS/DAMP=1%
   @DF-UKS iter  11:  -919.11172182985979   -1.28978e-09   5.84163e-12 DIIS/DAMP=1%
  Energy and wave function converged.


  ==> Post-Iterations <==

   Electrons on quadrature grid:
      Nalpha   =   16.9999975359 ; deviation = -2.464e-06
      Nbeta    =   16.9999975359 ; deviation = -2.464e-06
      Ntotal   =   33.9999950718 ; deviation = -4.928e-06 

   @Spin Contamination Metric:   1.421085472E-14
   @S^2 Expected:                0.000000000E+00
   @S^2 Observed:                1.421085472E-14
   @S   Expected:                0.000000000E+00
   @S   Observed:                0.000000000E+00

    Orbital Energies [Eh]
    ---------------------

    Alpha Occupied:                                                       

       1Ag  -101.557850     1B2u -101.557847     2Ag    -9.560033  
       2B2u   -9.541470     3Ag    -7.341622     3B2u   -7.297295  
       1B3u   -7.287353     1B1u   -7.287353     1B1g   -7.282094  
       1B3g   -7.282094     4Ag    -1.326690     4B2u   -0.655233  
       2B3u   -0.641355     2B1u   -0.641355     5Ag    -0.497294  
       2B3g   -0.187134     2B1g   -0.187134  

    Alpha Virtual:                                                        

       5B2u    0.196848     6Ag     0.222596     3B1u    0.282282  
       3B3u    0.282282     7Ag     0.457446     1B2g    0.457446  
       8Ag     0.551751     6B2u    0.584210     3B3g    0.605636  
       3B1g    0.605636     4B1u    0.645689     4B3u    0.645689  
       1Au     0.867641     7B2u    0.867641     8B2u    1.118826  
       9Ag     1.128513     4B3g    1.409406     4B1g    1.409406  
       9B2u    2.509569  

    Beta Occupied:                                                        

       1Ag  -101.557850     1B2u -101.557847     2Ag    -9.560033  
       2B2u   -9.541470     3Ag    -7.341622     3B2u   -7.297295  
       1B3u   -7.287353     1B1u   -7.287353     1B1g   -7.282094  
       1B3g   -7.282094     4Ag    -1.326690     4B2u   -0.655233  
       2B3u   -0.641355     2B1u   -0.641355     5Ag    -0.497294  
       2B3g   -0.187134     2B1g   -0.187134  

    Beta Virtual:                                                         

       5B2u    0.196848     6Ag     0.222596     3B1u    0.282282  
       3B3u    0.282282     7Ag     0.457446     1B2g    0.457446  
       8Ag     0.551751     6B2u    0.584210     3B3g    0.605636  
       3B1g    0.605636     4B1u    0.645689     4B3u    0.645689  
       1Au     0.867641     7B2u    0.867641     8B2u    1.118826  
       9Ag     1.128513     4B3g    1.409406     4B1g    1.409406  
       9B2u    2.509569  

    Final Occupation by Irrep:
             Ag   B1g   B2g   B3g    Au   B1u   B2u   B3u 
    DOCC [     5,    2,    0,    2,    0,    2,    4,    2 ]
    SOCC [     0,    0,    0,    0,    0,    0,    0,    0 ]
    NA   [     5,    2,    0,    2,    0,    2,    4,    2 ]
    NB   [     5,    2,    0,    2,    0,    2,    4,    2 ]

  @DF-UKS Final Energy:  -919.11172182985979

   => Energetics <=

    Nuclear Repulsion Energy =            127.4435115696916796
    One-Electron Energy =               -1520.1283214029053852
    Two-Electron Energy =                 519.6569161682638196
    DFT Exchange-Correlation Energy =     -46.0838281649099599
    Empirical Dispersion Energy =           0.0000000000000000
    VV10 Nonlocal Energy =                  0.0000000000000000
    Total Energy =                       -919.1117218298597891

  UHF NO Occupations:
  HONO-2 :    4B2u 2.0000000
  HONO-1 :    2B3g 2.0000000
  HONO-0 :    5 Ag 2.0000000
  LUNO+0 :    6 Ag 0.0000000
  LUNO+1 :    3B1u 0.0000000
  LUNO+2 :    5B2u 0.0000000
  LUNO+3 :    7 Ag 0.0000000


Computation Completed


Properties will be evaluated at   0.000000,   0.000000,   0.000000 [a0]

Properties computed using the SCF density matrix


 Multipole Moments:

 ------------------------------------------------------------------------------------
     Multipole            Electronic (a.u.)      Nuclear  (a.u.)        Total (a.u.)
 ------------------------------------------------------------------------------------

 L = 1.  Multiply by 2.5417464519 to convert [e a0] to [Debye]
 Dipole X            :          0.0000000            0.0000000            0.0000000
 Dipole Y            :          0.0000000            0.0000000            0.0000000
 Dipole Z            :          0.0000000            0.0000000            0.0000000
 Magnitude           :                                                    0.0000000

 ------------------------------------------------------------------------------------

*** tstop() called on Joses-MacBook-Pro-2.local at Wed Jul 16 20:31:55 2025
Module time:
	user time   =      17.21 seconds =       0.29 minutes
	system time =       1.91 seconds =       0.03 minutes
	total time  =          2 seconds =       0.03 minutes
Total time:
	user time   =      17.21 seconds =       0.29 minutes
	system time =       1.91 seconds =       0.03 minutes
	total time  =          2 seconds =       0.03 minutes

*** tstart() called on Joses-MacBook-Pro-2.local
*** at Wed Jul 16 20:31:55 2025


         ------------------------------------------------------------
                                   SCF GRAD                          
                          Rob Parrish, Justin Turney,                
                       Andy Simmonett, and Alex Sokolov              
         ------------------------------------------------------------

  ==> Geometry <==

    Molecular point group: d2h
    Full point group: D_inf_h

    Geometry (in Angstrom), charge = 0, multiplicity = 1:

       Center              X                  Y                   Z               Mass       
    ------------   -----------------  -----------------  -----------------  -----------------
         CL          -0.000000000000     0.600000000000     0.000000000000    34.968852682000
         CL           0.000000000000    -0.600000000000     0.000000000000    34.968852682000

  Nuclear repulsion =  127.443511569691680

  ==> Basis Set <==

  Basis Set: CC-PVDZ
    Blend: CC-PVDZ
    Number of shells: 16
    Number of basis functions: 36
    Number of Cartesian functions: 38
    Spherical Harmonics?: true
    Max angular momentum: 2

  ==> DFJKGrad: Density-Fitted SCF Gradients <==

    Gradient:                    1
    J tasked:                  Yes
    K tasked:                  Yes
    wK tasked:                  No
    OpenMP threads:              1
    Integrals threads:           1
    Memory [MiB]:              375
    Schwarz Cutoff:          1E-12
    Fitting Condition:       1E-10

   => Auxiliary Basis Set <=

  Basis Set: (CC-PVDZ AUX)
    Blend: CC-PVDZ-JKFIT
    Number of shells: 72
    Number of basis functions: 224
    Number of Cartesian functions: 260
    Spherical Harmonics?: true
    Max angular momentum: 3

  ==> DFT Potential <==

   => LibXC <=

    Version 6.2.2
    S. Lehtola, C. Steigemann, M. J.T. Oliveira, and M. A.L. Marques.,  SoftwareX 7, 1–5 (2018) (10.1016/j.softx.2017.11.002)

   => Composite Functional: B3LYP <= 

    B3LYP Hyb-GGA Exchange-Correlation Functional

    P. J. Stephens, F. J. Devlin, C. F. Chabalowski, and M. J. Frisch.,  J. Phys. Chem. 98, 11623 (1994) (10.1021/j100096a001)

    Deriv               =              1
    GGA                 =           TRUE
    Meta                =          FALSE

    Exchange Hybrid     =           TRUE
    MP2 Hybrid          =          FALSE

   => Exchange Functionals <=

    0.0800   Slater exchange
    0.7200         Becke 88

   => Exact (HF) Exchange <=

    0.2000               HF 

   => Correlation Functionals <=

    0.1900   Vosko, Wilk & Nusair (VWN5_RPA)
    0.8100   Lee, Yang & Parr

   => LibXC Density Thresholds  <==

    XC_HYB_GGA_XC_B3LYP:  1.00E-15 

   => Molecular Quadrature <=

    Radial Scheme          =       TREUTLER
    Pruning Scheme         =           NONE
    Nuclear Scheme         =       TREUTLER

    Blocking Scheme        =         OCTREE
    BS radius alpha        =              1
    Pruning alpha          =              1
    Radial Points          =             75
    Spherical Points       =            302
    Total Points           =          39504
    Total Blocks           =            366
    Max Points             =            254
    Max Functions          =             36
    Weights Tolerance      =       1.00E-15


  -Total Gradient:
     Atom            X                  Y                   Z
    ------   -----------------  -----------------  -----------------
       1        0.000000000000    -3.311544844637     0.000000000000
       2       -0.000000000000     3.311544844637    -0.000000000000


*** tstop() called on Joses-MacBook-Pro-2.local at Wed Jul 16 20:31:56 2025
Module time:
	user time   =       2.45 seconds =       0.04 minutes
	system time =       1.62 seconds =       0.03 minutes
	total time  =          1 seconds =       0.02 minutes
Total time:
	user time   =      19.66 seconds =       0.33 minutes
	system time =       3.54 seconds =       0.06 minutes
	total time  =          3 seconds =       0.05 minutes

    			-----------------------------------------

    			 OPTKING 3.0: for geometry optimizations 

    			     By R.A. King, Bethel University     

    			        with contributions from          

    			    A.V. Copan, J. Cayton, A. Heide      

    			-----------------------------------------

    
	                            ===> Fragment 1 <== 

	 Z (Atomic Numbers)          Masses                          Geom                  
	      17.000000            34.968853         -0.00000000  1.13383568  0.00000000   
	      17.000000            34.968853          0.00000000 -1.13383568  0.00000000   

	 - Coordinate -           - BOHR/RAD -       - ANG/DEG -
	 R(1,2)           =         2.267671           1.200000


	        --- Internal Coordinate Step in ANG or DEG, aJ/ANG or AJ/DEG ---
	-------------------------------------------------------------------------------
	           Coordinate      Previous         Force          Change          New 
	           ----------      --------        ------          ------        ------
	               R(1,2)       1.20000       27.28290        0.00804       1.20804
	-------------------------------------------------------------------------------

	                                 ==> Convergence Check <==                                  
    
	Measures of convergence in internal coordinates in au.
    
	Criteria marked as inactive (o), active & met (*), and active & unmet ( ).

	----------------------------------------------------------------------------------------------
	   Step    Total Energy     Delta E     Max Force     RMS Force      Max Disp      RMS Disp   
	----------------------------------------------------------------------------------------------
	  Convergence Criteria     1.00e-06 *    3.00e-04 *             o    1.20e-03 *             o
	----------------------------------------------------------------------------------------------
	     1    -919.11172183   -9.19e+02      3.31e+00      3.31e+00 o    1.52e-02      1.52e-02 o  ~
	----------------------------------------------------------------------------------------------

Next Geometry in Ang 
	Fragment 1 (Ang)

	   Cl  -0.0000000000   0.6040216068   0.0000000000
	   Cl   0.0000000000  -0.6040216068   0.0000000000


    Structure for next step:
    Molecular point group: d2h
    Full point group: D_inf_h

    Geometry (in Angstrom), charge = 0, multiplicity = 1:

    CL          -0.000000000000     0.604021606803     0.000000000000
    CL           0.000000000000    -0.604021606803     0.000000000000


Scratch directory: /tmp/
gradient() will perform analytic gradient computation.
   => Libint2 <=

    Primary   basis highest AM E, G, H:  6, 6, 3
    Auxiliary basis highest AM E, G, H:  7, 7, 4
    Onebody   basis highest AM E, G, H:  -, -, -
    Solid Harmonics ordering:            Gaussian

*** tstart() called on Joses-MacBook-Pro-2.local
*** at Wed Jul 16 20:31:56 2025

   => Loading Basis Set <=

    Name: CC-PVDZ
    Role: ORBITAL
    Keyword: BASIS
    atoms 1-2 entry CL         line   658 file /Users/joseantoniorodriguesromero/anaconda3/share/psi4/basis/cc-pvdz.gbs 


         ---------------------------------------------------------
                                   SCF
               by Justin Turney, Rob Parrish, Andy Simmonett
                          and Daniel G. A. Smith
                              UKS Reference
                        1 Threads,    500 MiB Core
         ---------------------------------------------------------

  ==> Geometry <==

    Molecular point group: d2h
    Full point group: D_inf_h

    Geometry (in Angstrom), charge = 0, multiplicity = 1:

       Center              X                  Y                   Z               Mass       
    ------------   -----------------  -----------------  -----------------  -----------------
         CL          -0.000000000000     0.604021606803     0.000000000000    34.968852682000
         CL           0.000000000000    -0.604021606803     0.000000000000    34.968852682000

  Running in d2h symmetry.

  Rotational constants: A = ************  B =      0.66066  C =      0.66066 [cm^-1]
  Rotational constants: A = ************  B =  19806.18684  C =  19806.18684 [MHz]
  Nuclear repulsion =  126.594986140469302

  Charge       = 0
  Multiplicity = 1
  Electrons    = 34
  Nalpha       = 17
  Nbeta        = 17

  ==> Algorithm <==

  SCF Algorithm Type is DF.
  DIIS enabled.
  MOM disabled.
  Fractional occupation disabled.
  Guess Type is READ.
  Energy threshold   = 1.00e-08
  Density threshold  = 1.00e-08
  Integral threshold = 1.00e-12

  ==> Primary Basis <==

  Basis Set: CC-PVDZ
    Blend: CC-PVDZ
    Number of shells: 16
    Number of basis functions: 36
    Number of Cartesian functions: 38
    Spherical Harmonics?: true
    Max angular momentum: 2

  ==> DFT Potential <==

   => LibXC <=

    Version 6.2.2
    S. Lehtola, C. Steigemann, M. J.T. Oliveira, and M. A.L. Marques.,  SoftwareX 7, 1–5 (2018) (10.1016/j.softx.2017.11.002)

   => Composite Functional: B3LYP <= 

    B3LYP Hyb-GGA Exchange-Correlation Functional

    P. J. Stephens, F. J. Devlin, C. F. Chabalowski, and M. J. Frisch.,  J. Phys. Chem. 98, 11623 (1994) (10.1021/j100096a001)

    Deriv               =              1
    GGA                 =           TRUE
    Meta                =          FALSE

    Exchange Hybrid     =           TRUE
    MP2 Hybrid          =          FALSE

   => Exchange Functionals <=

    0.0800   Slater exchange
    0.7200         Becke 88

   => Exact (HF) Exchange <=

    0.2000               HF 

   => Correlation Functionals <=

    0.1900   Vosko, Wilk & Nusair (VWN5_RPA)
    0.8100   Lee, Yang & Parr

   => LibXC Density Thresholds  <==

    XC_HYB_GGA_XC_B3LYP:  1.00E-15 

   => Molecular Quadrature <=

    Radial Scheme          =       TREUTLER
    Pruning Scheme         =           NONE
    Nuclear Scheme         =       TREUTLER

    Blocking Scheme        =         OCTREE
    BS radius alpha        =              1
    Pruning alpha          =              1
    Radial Points          =             75
    Spherical Points       =            302
    Total Points           =          39504
    Total Blocks           =            366
    Max Points             =            254
    Max Functions          =             36
    Weights Tolerance      =       1.00E-15

   => Loading Basis Set <=

    Name: (CC-PVDZ AUX)
    Role: JKFIT
    Keyword: DF_BASIS_SCF
    atoms 1-2 entry CL         line   667 file /Users/joseantoniorodriguesromero/anaconda3/share/psi4/basis/cc-pvdz-jkfit.gbs 

   => Loading Basis Set <=

    Name: CC-PVDZ
    Role: ORBITAL
    Keyword: BASIS
    atoms 1-2 entry CL         line   658 file /Users/joseantoniorodriguesromero/anaconda3/share/psi4/basis/cc-pvdz.gbs 

  Reading orbitals from file /tmp/singlet_ClCl.default.69810.180.npy, no projection.

  ==> Integral Setup <==

  DFHelper Memory: AOs need 0.003 GiB; user supplied 0.325 GiB. 
  Using in-core AOs.

  ==> MemDFJK: Density-Fitted J/K Matrices <==

    J tasked:                   Yes
    K tasked:                   Yes
    wK tasked:                   No
    OpenMP threads:               1
    Memory [MiB]:               333
    Algorithm:                 Core
    Schwarz Cutoff:           1E-12
    Mask sparsity (%):       0.0000
    Fitting Condition:        1E-10

   => Auxiliary Basis Set <=

  Basis Set: (CC-PVDZ AUX)
    Blend: CC-PVDZ-JKFIT
    Number of shells: 72
    Number of basis functions: 224
    Number of Cartesian functions: 260
    Spherical Harmonics?: true
    Max angular momentum: 3

  Cached 100.0% of DFT collocation blocks in 0.041 [GiB].

  Minimum eigenvalue in the overlap matrix is 1.1584827896E-02.
  Reciprocal condition number of the overlap matrix is 3.9482145499E-03.
    Using symmetric orthogonalization.

  ==> Pre-Iterations <==

  SCF Guess: Orbitals guess was supplied from a previous computation.

   -------------------------------------------------------
    Irrep   Nso     Nmo     Nalpha   Nbeta   Ndocc  Nsocc
   -------------------------------------------------------
     Ag         9       9       5       5       5       0
     B1g        4       4       2       2       2       0
     B2g        1       1       0       0       0       0
     B3g        4       4       2       2       2       0
     Au         1       1       0       0       0       0
     B1u        4       4       2       2       2       0
     B2u        9       9       4       4       4       0
     B3u        4       4       2       2       2       0
   -------------------------------------------------------
    Total      36      36      17      17      17       0
   -------------------------------------------------------

  ==> Iterations <==

                           Total Energy        Delta E     RMS |[F,P]|

   @DF-UKS iter   0:  -919.16742158599789   -9.19167e+02   6.62427e-03 
   @DF-UKS iter   1:  -919.16107656686791    6.34502e-03   7.84488e-04 DIIS/ADIIS
   @DF-UKS iter   2:  -919.16110357960690   -2.70127e-05   6.37116e-04 DIIS/ADIIS/DAMP=1%
   @DF-UKS iter   3:  -919.16199142122070   -8.87842e-04   4.15998e-05 DIIS/DAMP=1%
   @DF-UKS iter   4:  -919.16114916298989    8.42258e-04   2.70243e-06 DIIS/DAMP=1%
   @DF-UKS iter   5:  -919.16115561613981   -6.45315e-06   2.48421e-07 DIIS/DAMP=1%
   @DF-UKS iter   6:  -919.16115177332051    3.84282e-06   4.22153e-09 DIIS/DAMP=1%
   @DF-UKS iter   7:  -919.16115195982013   -1.86500e-07   9.97156e-10 DIIS/DAMP=1%
   @DF-UKS iter   8:  -919.16115195426175    5.55838e-09   4.30815e-11 DIIS/DAMP=1%
  Energy and wave function converged.


  ==> Post-Iterations <==

   Electrons on quadrature grid:
      Nalpha   =   16.9999977319 ; deviation = -2.268e-06
      Nbeta    =   16.9999977319 ; deviation = -2.268e-06
      Ntotal   =   33.9999954639 ; deviation = -4.536e-06 

   @Spin Contamination Metric:  -3.552713679E-14
   @S^2 Expected:                0.000000000E+00
   @S^2 Observed:               -3.552713679E-14
   @S   Expected:                0.000000000E+00
   @S   Observed:                0.000000000E+00

    Orbital Energies [Eh]
    ---------------------

    Alpha Occupied:                                                       

       1Ag  -101.557079     1B2u -101.557076     2Ag    -9.556275  
       2B2u   -9.538953     3Ag    -7.337061     3B2u   -7.295171  
       1B3u   -7.284814     1B1u   -7.284814     1B1g   -7.279888  
       1B3g   -7.279888     4Ag    -1.322562     4B2u   -0.656235  
       2B1u   -0.636777     2B3u   -0.636777     5Ag    -0.497849  
       2B3g   -0.188641     2B1g   -0.188641  

    Alpha Virtual:                                                        

       5B2u    0.194885     6Ag     0.222947     3B3u    0.284874  
       3B1u    0.284874     7Ag     0.461433     1B2g    0.461433  
       8Ag     0.551942     6B2u    0.581204     3B3g    0.605069  
       3B1g    0.605069     4B3u    0.643714     4B1u    0.643714  
       7B2u    0.865411     1Au     0.865411     8B2u    1.115999  
       9Ag     1.127202     4B3g    1.400813     4B1g    1.400813  
       9B2u    2.477258  

    Beta Occupied:                                                        

       1Ag  -101.557079     1B2u -101.557076     2Ag    -9.556275  
       2B2u   -9.538953     3Ag    -7.337061     3B2u   -7.295171  
       1B3u   -7.284814     1B1u   -7.284814     1B1g   -7.279888  
       1B3g   -7.279888     4Ag    -1.322562     4B2u   -0.656235  
       2B1u   -0.636777     2B3u   -0.636777     5Ag    -0.497849  
       2B3g   -0.188641     2B1g   -0.188641  

    Beta Virtual:                                                         

       5B2u    0.194885     6Ag     0.222947     3B3u    0.284874  
       3B1u    0.284874     7Ag     0.461433     1B2g    0.461433  
       8Ag     0.551942     6B2u    0.581204     3B3g    0.605069  
       3B1g    0.605069     4B3u    0.643714     4B1u    0.643714  
       7B2u    0.865411     1Au     0.865411     8B2u    1.115999  
       9Ag     1.127202     4B3g    1.400813     4B1g    1.400813  
       9B2u    2.477258  

    Final Occupation by Irrep:
             Ag   B1g   B2g   B3g    Au   B1u   B2u   B3u 
    DOCC [     5,    2,    0,    2,    0,    2,    4,    2 ]
    SOCC [     0,    0,    0,    0,    0,    0,    0,    0 ]
    NA   [     5,    2,    0,    2,    0,    2,    4,    2 ]
    NB   [     5,    2,    0,    2,    0,    2,    4,    2 ]

  @DF-UKS Final Energy:  -919.16115195426175

   => Energetics <=

    Nuclear Repulsion Energy =            126.5949861404693024
    One-Electron Energy =               -1518.6031694191815404
    Two-Electron Energy =                 518.9195696794336072
    DFT Exchange-Correlation Energy =     -46.0725383549830738
    Empirical Dispersion Energy =           0.0000000000000000
    VV10 Nonlocal Energy =                  0.0000000000000000
    Total Energy =                       -919.1611519542617543

  UHF NO Occupations:
  HONO-2 :    2B1g 2.0000000
  HONO-1 :    4B2u 2.0000000
  HONO-0 :    2B3u 2.0000000
  LUNO+0 :    3B3u 0.0000000
  LUNO+1 :    6 Ag 0.0000000
  LUNO+2 :    3B1g 0.0000000
  LUNO+3 :    4B1g 0.0000000


Computation Completed


Properties will be evaluated at   0.000000,   0.000000,   0.000000 [a0]

Properties computed using the SCF density matrix


 Multipole Moments:

 ------------------------------------------------------------------------------------
     Multipole            Electronic (a.u.)      Nuclear  (a.u.)        Total (a.u.)
 ------------------------------------------------------------------------------------

 L = 1.  Multiply by 2.5417464519 to convert [e a0] to [Debye]
 Dipole X            :          0.0000000            0.0000000            0.0000000
 Dipole Y            :          0.0000000            0.0000000            0.0000000
 Dipole Z            :          0.0000000            0.0000000            0.0000000
 Magnitude           :                                                    0.0000000

 ------------------------------------------------------------------------------------

*** tstop() called on Joses-MacBook-Pro-2.local at Wed Jul 16 20:31:57 2025
Module time:
	user time   =       7.24 seconds =       0.12 minutes
	system time =       2.71 seconds =       0.05 minutes
	total time  =          1 seconds =       0.02 minutes
Total time:
	user time   =      27.16 seconds =       0.45 minutes
	system time =       6.25 seconds =       0.10 minutes
	total time  =          4 seconds =       0.07 minutes

*** tstart() called on Joses-MacBook-Pro-2.local
*** at Wed Jul 16 20:31:57 2025


         ------------------------------------------------------------
                                   SCF GRAD                          
                          Rob Parrish, Justin Turney,                
                       Andy Simmonett, and Alex Sokolov              
         ------------------------------------------------------------

  ==> Geometry <==

    Molecular point group: d2h
    Full point group: D_inf_h

    Geometry (in Angstrom), charge = 0, multiplicity = 1:

       Center              X                  Y                   Z               Mass       
    ------------   -----------------  -----------------  -----------------  -----------------
         CL          -0.000000000000     0.604021606803     0.000000000000    34.968852682000
         CL           0.000000000000    -0.604021606803     0.000000000000    34.968852682000

  Nuclear repulsion =  126.594986140469302

  ==> Basis Set <==

  Basis Set: CC-PVDZ
    Blend: CC-PVDZ
    Number of shells: 16
    Number of basis functions: 36
    Number of Cartesian functions: 38
    Spherical Harmonics?: true
    Max angular momentum: 2

  ==> DFJKGrad: Density-Fitted SCF Gradients <==

    Gradient:                    1
    J tasked:                  Yes
    K tasked:                  Yes
    wK tasked:                  No
    OpenMP threads:              1
    Integrals threads:           1
    Memory [MiB]:              375
    Schwarz Cutoff:          1E-12
    Fitting Condition:       1E-10

   => Auxiliary Basis Set <=

  Basis Set: (CC-PVDZ AUX)
    Blend: CC-PVDZ-JKFIT
    Number of shells: 72
    Number of basis functions: 224
    Number of Cartesian functions: 260
    Spherical Harmonics?: true
    Max angular momentum: 3

  ==> DFT Potential <==

   => LibXC <=

    Version 6.2.2
    S. Lehtola, C. Steigemann, M. J.T. Oliveira, and M. A.L. Marques.,  SoftwareX 7, 1–5 (2018) (10.1016/j.softx.2017.11.002)

   => Composite Functional: B3LYP <= 

    B3LYP Hyb-GGA Exchange-Correlation Functional

    P. J. Stephens, F. J. Devlin, C. F. Chabalowski, and M. J. Frisch.,  J. Phys. Chem. 98, 11623 (1994) (10.1021/j100096a001)

    Deriv               =              1
    GGA                 =           TRUE
    Meta                =          FALSE

    Exchange Hybrid     =           TRUE
    MP2 Hybrid          =          FALSE

   => Exchange Functionals <=

    0.0800   Slater exchange
    0.7200         Becke 88

   => Exact (HF) Exchange <=

    0.2000               HF 

   => Correlation Functionals <=

    0.1900   Vosko, Wilk & Nusair (VWN5_RPA)
    0.8100   Lee, Yang & Parr

   => LibXC Density Thresholds  <==

    XC_HYB_GGA_XC_B3LYP:  1.00E-15 

   => Molecular Quadrature <=

    Radial Scheme          =       TREUTLER
    Pruning Scheme         =           NONE
    Nuclear Scheme         =       TREUTLER

    Blocking Scheme        =         OCTREE
    BS radius alpha        =              1
    Pruning alpha          =              1
    Radial Points          =             75
    Spherical Points       =            302
    Total Points           =          39504
    Total Blocks           =            366
    Max Points             =            254
    Max Functions          =             36
    Weights Tolerance      =       1.00E-15


  -Total Gradient:
     Atom            X                  Y                   Z
    ------   -----------------  -----------------  -----------------
       1        0.000000000000    -3.193255615401     0.000000000000
       2       -0.000000000000     3.193255615401     0.000000000000


*** tstop() called on Joses-MacBook-Pro-2.local at Wed Jul 16 20:31:57 2025
Module time:
	user time   =       2.50 seconds =       0.04 minutes
	system time =       0.91 seconds =       0.02 minutes
	total time  =          0 seconds =       0.00 minutes
Total time:
	user time   =      29.66 seconds =       0.49 minutes
	system time =       7.17 seconds =       0.12 minutes
	total time  =          4 seconds =       0.07 minutes

    			-----------------------------------------

    			 OPTKING 3.0: for geometry optimizations 

    			     By R.A. King, Bethel University     

    			        with contributions from          

    			    A.V. Copan, J. Cayton, A. Heide      

    			-----------------------------------------

    
	                            ===> Fragment 1 <== 

	 Z (Atomic Numbers)          Masses                          Geom                  
	      17.000000            34.968853         -0.00000000  1.14143541  0.00000000   
	      17.000000            34.968853          0.00000000 -1.14143541  0.00000000   

	 - Coordinate -           - BOHR/RAD -       - ANG/DEG -
	 R(1,2)           =         2.282871           1.208043


	        --- Internal Coordinate Step in ANG or DEG, aJ/ANG or AJ/DEG ---
	-------------------------------------------------------------------------------
	           Coordinate      Previous         Force          Change          New 
	           ----------      --------        ------          ------        ------
	               R(1,2)       1.20804       26.30835        0.01550       1.22355
	-------------------------------------------------------------------------------

	                                 ==> Convergence Check <==                                  
    
	Measures of convergence in internal coordinates in au.
    
	Criteria marked as inactive (o), active & met (*), and active & unmet ( ).

	----------------------------------------------------------------------------------------------
	   Step    Total Energy     Delta E     Max Force     RMS Force      Max Disp      RMS Disp   
	----------------------------------------------------------------------------------------------
	  Convergence Criteria     1.00e-06 *    3.00e-04 *             o    1.20e-03 *             o
	----------------------------------------------------------------------------------------------
	     2    -919.16115195   -4.94e-02      3.19e+00      3.19e+00 o    2.93e-02      2.93e-02 o  ~
	----------------------------------------------------------------------------------------------

Next Geometry in Ang 
	Fragment 1 (Ang)

	   Cl  -0.0000000000   0.6117726495   0.0000000000
	   Cl   0.0000000000  -0.6117726495   0.0000000000


    Structure for next step:
    Molecular point group: d2h
    Full point group: D_inf_h

    Geometry (in Angstrom), charge = 0, multiplicity = 1:

    CL          -0.000000000000     0.611772649479     0.000000000000
    CL           0.000000000000    -0.611772649479     0.000000000000


Scratch directory: /tmp/
gradient() will perform analytic gradient computation.
   => Libint2 <=

    Primary   basis highest AM E, G, H:  6, 6, 3
    Auxiliary basis highest AM E, G, H:  7, 7, 4
    Onebody   basis highest AM E, G, H:  -, -, -
    Solid Harmonics ordering:            Gaussian

*** tstart() called on Joses-MacBook-Pro-2.local
*** at Wed Jul 16 20:31:57 2025

   => Loading Basis Set <=

    Name: CC-PVDZ
    Role: ORBITAL
    Keyword: BASIS
    atoms 1-2 entry CL         line   658 file /Users/joseantoniorodriguesromero/anaconda3/share/psi4/basis/cc-pvdz.gbs 


         ---------------------------------------------------------
                                   SCF
               by Justin Turney, Rob Parrish, Andy Simmonett
                          and Daniel G. A. Smith
                              UKS Reference
                        1 Threads,    500 MiB Core
         ---------------------------------------------------------

  ==> Geometry <==

    Molecular point group: d2h
    Full point group: D_inf_h

    Geometry (in Angstrom), charge = 0, multiplicity = 1:

       Center              X                  Y                   Z               Mass       
    ------------   -----------------  -----------------  -----------------  -----------------
         CL          -0.000000000000     0.611772649479     0.000000000000    34.968852682000
         CL           0.000000000000    -0.611772649479     0.000000000000    34.968852682000

  Running in d2h symmetry.

  Rotational constants: A = ************  B =      0.64403  C =      0.64403 [cm^-1]
  Rotational constants: A = ************  B =  19307.48500  C =  19307.48500 [MHz]
  Nuclear repulsion =  124.991051834213650

  Charge       = 0
  Multiplicity = 1
  Electrons    = 34
  Nalpha       = 17
  Nbeta        = 17

  ==> Algorithm <==

  SCF Algorithm Type is DF.
  DIIS enabled.
  MOM disabled.
  Fractional occupation disabled.
  Guess Type is READ.
  Energy threshold   = 1.00e-08
  Density threshold  = 1.00e-08
  Integral threshold = 1.00e-12

  ==> Primary Basis <==

  Basis Set: CC-PVDZ
    Blend: CC-PVDZ
    Number of shells: 16
    Number of basis functions: 36
    Number of Cartesian functions: 38
    Spherical Harmonics?: true
    Max angular momentum: 2

  ==> DFT Potential <==

   => LibXC <=

    Version 6.2.2
    S. Lehtola, C. Steigemann, M. J.T. Oliveira, and M. A.L. Marques.,  SoftwareX 7, 1–5 (2018) (10.1016/j.softx.2017.11.002)

   => Composite Functional: B3LYP <= 

    B3LYP Hyb-GGA Exchange-Correlation Functional

    P. J. Stephens, F. J. Devlin, C. F. Chabalowski, and M. J. Frisch.,  J. Phys. Chem. 98, 11623 (1994) (10.1021/j100096a001)

    Deriv               =              1
    GGA                 =           TRUE
    Meta                =          FALSE

    Exchange Hybrid     =           TRUE
    MP2 Hybrid          =          FALSE

   => Exchange Functionals <=

    0.0800   Slater exchange
    0.7200         Becke 88

   => Exact (HF) Exchange <=

    0.2000               HF 

   => Correlation Functionals <=

    0.1900   Vosko, Wilk & Nusair (VWN5_RPA)
    0.8100   Lee, Yang & Parr

   => LibXC Density Thresholds  <==

    XC_HYB_GGA_XC_B3LYP:  1.00E-15 

   => Molecular Quadrature <=

    Radial Scheme          =       TREUTLER
    Pruning Scheme         =           NONE
    Nuclear Scheme         =       TREUTLER

    Blocking Scheme        =         OCTREE
    BS radius alpha        =              1
    Pruning alpha          =              1
    Radial Points          =             75
    Spherical Points       =            302
    Total Points           =          39504
    Total Blocks           =            370
    Max Points             =            254
    Max Functions          =             36
    Weights Tolerance      =       1.00E-15

   => Loading Basis Set <=

    Name: (CC-PVDZ AUX)
    Role: JKFIT
    Keyword: DF_BASIS_SCF
    atoms 1-2 entry CL         line   667 file /Users/joseantoniorodriguesromero/anaconda3/share/psi4/basis/cc-pvdz-jkfit.gbs 

   => Loading Basis Set <=

    Name: CC-PVDZ
    Role: ORBITAL
    Keyword: BASIS
    atoms 1-2 entry CL         line   658 file /Users/joseantoniorodriguesromero/anaconda3/share/psi4/basis/cc-pvdz.gbs 

  Reading orbitals from file /tmp/singlet_ClCl.default.69810.180.npy, no projection.

  ==> Integral Setup <==

  DFHelper Memory: AOs need 0.003 GiB; user supplied 0.325 GiB. 
  Using in-core AOs.

  ==> MemDFJK: Density-Fitted J/K Matrices <==

    J tasked:                   Yes
    K tasked:                   Yes
    wK tasked:                   No
    OpenMP threads:               1
    Memory [MiB]:               333
    Algorithm:                 Core
    Schwarz Cutoff:           1E-12
    Mask sparsity (%):       0.0000
    Fitting Condition:        1E-10

   => Auxiliary Basis Set <=

  Basis Set: (CC-PVDZ AUX)
    Blend: CC-PVDZ-JKFIT
    Number of shells: 72
    Number of basis functions: 224
    Number of Cartesian functions: 260
    Spherical Harmonics?: true
    Max angular momentum: 3

  Cached 100.0% of DFT collocation blocks in 0.041 [GiB].

  Minimum eigenvalue in the overlap matrix is 1.1921225298E-02.
  Reciprocal condition number of the overlap matrix is 4.0784159451E-03.
    Using symmetric orthogonalization.

  ==> Pre-Iterations <==

  SCF Guess: Orbitals guess was supplied from a previous computation.

   -------------------------------------------------------
    Irrep   Nso     Nmo     Nalpha   Nbeta   Ndocc  Nsocc
   -------------------------------------------------------
     Ag         9       9       5       5       5       0
     B1g        4       4       2       2       2       0
     B2g        1       1       0       0       0       0
     B3g        4       4       2       2       2       0
     Au         1       1       0       0       0       0
     B1u        4       4       2       2       2       0
     B2u        9       9       4       4       4       0
     B3u        4       4       2       2       2       0
   -------------------------------------------------------
    Total      36      36      17      17      17       0
   -------------------------------------------------------

  ==> Iterations <==

                           Total Energy        Delta E     RMS |[F,P]|

   @DF-UKS iter   0:  -919.26278078078701   -9.19263e+02   1.24252e-02 
   @DF-UKS iter   1:  -919.25123587914641    1.15449e-02   1.43610e-03 DIIS/ADIIS
   @DF-UKS iter   2:  -919.25132793220780   -9.20531e-05   1.15945e-03 DIIS/ADIIS/DAMP=1%
   @DF-UKS iter   3:  -919.25301514024011   -1.68721e-03   8.05272e-05 DIIS/DAMP=1%
   @DF-UKS iter   4:  -919.25148114949889    1.53399e-03   4.84205e-06 DIIS/DAMP=1%
   @DF-UKS iter   5:  -919.25149500540977   -1.38559e-05   4.83953e-07 DIIS/DAMP=1%
   @DF-UKS iter   6:  -919.25148808831159    6.91710e-06   7.99839e-09 DIIS/DAMP=1%
   @DF-UKS iter   7:  -919.25148844737373   -3.59062e-07   1.95827e-09 DIIS/DAMP=1%
   @DF-UKS iter   8:  -919.25148843880197    8.57176e-09   9.04336e-11 DIIS/DAMP=1%
  Energy and wave function converged.


  ==> Post-Iterations <==

   Electrons on quadrature grid:
      Nalpha   =   16.9999981804 ; deviation = -1.820e-06
      Nbeta    =   16.9999981804 ; deviation = -1.820e-06
      Ntotal   =   33.9999963609 ; deviation = -3.639e-06 

   @Spin Contamination Metric:   0.000000000E+00
   @S^2 Expected:                0.000000000E+00
   @S^2 Observed:                0.000000000E+00
   @S   Expected:                0.000000000E+00
   @S   Observed:                0.000000000E+00

    Orbital Energies [Eh]
    ---------------------

    Alpha Occupied:                                                       

       1Ag  -101.555854     1B2u -101.555851     2Ag    -9.549610  
       2B2u   -9.534451     3Ag    -7.328920     3B2u   -7.291371  
       1B1u   -7.280314     1B3u   -7.280314     1B3g   -7.275973  
       1B1g   -7.275973     4Ag    -1.314376     4B2u   -0.658206  
       2B1u   -0.628136     2B3u   -0.628136     5Ag    -0.498809  
       2B3g   -0.191557     2B1g   -0.191557  

    Alpha Virtual:                                                        

       5B2u    0.190947     6Ag     0.223809     3B1u    0.289907  
       3B3u    0.289907     7Ag     0.468978     1B2g    0.468979  
       8Ag     0.552283     6B2u    0.575532     3B3g    0.603938  
       3B1g    0.603938     4B1u    0.639911     4B3u    0.639911  
       7B2u    0.861155     1Au     0.861155     8B2u    1.110411  
       9Ag     1.124720     4B1g    1.384561     4B3g    1.384561  
       9B2u    2.417109  

    Beta Occupied:                                                        

       1Ag  -101.555854     1B2u -101.555851     2Ag    -9.549610  
       2B2u   -9.534451     3Ag    -7.328920     3B2u   -7.291371  
       1B1u   -7.280314     1B3u   -7.280314     1B3g   -7.275973  
       1B1g   -7.275973     4Ag    -1.314376     4B2u   -0.658206  
       2B1u   -0.628136     2B3u   -0.628136     5Ag    -0.498809  
       2B3g   -0.191557     2B1g   -0.191557  

    Beta Virtual:                                                         

       5B2u    0.190947     6Ag     0.223809     3B1u    0.289907  
       3B3u    0.289907     7Ag     0.468978     1B2g    0.468979  
       8Ag     0.552283     6B2u    0.575532     3B3g    0.603938  
       3B1g    0.603938     4B1u    0.639911     4B3u    0.639911  
       7B2u    0.861155     1Au     0.861155     8B2u    1.110411  
       9Ag     1.124720     4B1g    1.384561     4B3g    1.384561  
       9B2u    2.417109  

    Final Occupation by Irrep:
             Ag   B1g   B2g   B3g    Au   B1u   B2u   B3u 
    DOCC [     5,    2,    0,    2,    0,    2,    4,    2 ]
    SOCC [     0,    0,    0,    0,    0,    0,    0,    0 ]
    NA   [     5,    2,    0,    2,    0,    2,    4,    2 ]
    NB   [     5,    2,    0,    2,    0,    2,    4,    2 ]

  @DF-UKS Final Energy:  -919.25148843880197

   => Energetics <=

    Nuclear Repulsion Energy =            124.9910518342136498
    One-Electron Energy =               -1515.7085489860364760
    Two-Electron Energy =                 517.5172383415444983
    DFT Exchange-Correlation Energy =     -46.0512296285237994
    Empirical Dispersion Energy =           0.0000000000000000
    VV10 Nonlocal Energy =                  0.0000000000000000
    Total Energy =                       -919.2514884388019709

  UHF NO Occupations:
  HONO-2 :    4B2u 2.0000000
  HONO-1 :    3B2u 2.0000000
  HONO-0 :    2B3g 2.0000000
  LUNO+0 :    3B3u 0.0000000
  LUNO+1 :    3B3g 0.0000000
  LUNO+2 :    5B2u 0.0000000
  LUNO+3 :    6 Ag 0.0000000


Computation Completed


Properties will be evaluated at   0.000000,   0.000000,   0.000000 [a0]

Properties computed using the SCF density matrix


 Multipole Moments:

 ------------------------------------------------------------------------------------
     Multipole            Electronic (a.u.)      Nuclear  (a.u.)        Total (a.u.)
 ------------------------------------------------------------------------------------

 L = 1.  Multiply by 2.5417464519 to convert [e a0] to [Debye]
 Dipole X            :          0.0000000            0.0000000            0.0000000
 Dipole Y            :          0.0000000            0.0000000            0.0000000
 Dipole Z            :          0.0000000            0.0000000            0.0000000
 Magnitude           :                                                    0.0000000

 ------------------------------------------------------------------------------------

*** tstop() called on Joses-MacBook-Pro-2.local at Wed Jul 16 20:31:58 2025
Module time:
	user time   =       5.89 seconds =       0.10 minutes
	system time =       1.94 seconds =       0.03 minutes
	total time  =          1 seconds =       0.02 minutes
Total time:
	user time   =      35.62 seconds =       0.59 minutes
	system time =       9.35 seconds =       0.16 minutes
	total time  =          5 seconds =       0.08 minutes

*** tstart() called on Joses-MacBook-Pro-2.local
*** at Wed Jul 16 20:31:58 2025


         ------------------------------------------------------------
                                   SCF GRAD                          
                          Rob Parrish, Justin Turney,                
                       Andy Simmonett, and Alex Sokolov              
         ------------------------------------------------------------

  ==> Geometry <==

    Molecular point group: d2h
    Full point group: D_inf_h

    Geometry (in Angstrom), charge = 0, multiplicity = 1:

       Center              X                  Y                   Z               Mass       
    ------------   -----------------  -----------------  -----------------  -----------------
         CL          -0.000000000000     0.611772649479     0.000000000000    34.968852682000
         CL           0.000000000000    -0.611772649479     0.000000000000    34.968852682000

  Nuclear repulsion =  124.991051834213650

  ==> Basis Set <==

  Basis Set: CC-PVDZ
    Blend: CC-PVDZ
    Number of shells: 16
    Number of basis functions: 36
    Number of Cartesian functions: 38
    Spherical Harmonics?: true
    Max angular momentum: 2

  ==> DFJKGrad: Density-Fitted SCF Gradients <==

    Gradient:                    1
    J tasked:                  Yes
    K tasked:                  Yes
    wK tasked:                  No
    OpenMP threads:              1
    Integrals threads:           1
    Memory [MiB]:              375
    Schwarz Cutoff:          1E-12
    Fitting Condition:       1E-10

   => Auxiliary Basis Set <=

  Basis Set: (CC-PVDZ AUX)
    Blend: CC-PVDZ-JKFIT
    Number of shells: 72
    Number of basis functions: 224
    Number of Cartesian functions: 260
    Spherical Harmonics?: true
    Max angular momentum: 3

  ==> DFT Potential <==

   => LibXC <=

    Version 6.2.2
    S. Lehtola, C. Steigemann, M. J.T. Oliveira, and M. A.L. Marques.,  SoftwareX 7, 1–5 (2018) (10.1016/j.softx.2017.11.002)

   => Composite Functional: B3LYP <= 

    B3LYP Hyb-GGA Exchange-Correlation Functional

    P. J. Stephens, F. J. Devlin, C. F. Chabalowski, and M. J. Frisch.,  J. Phys. Chem. 98, 11623 (1994) (10.1021/j100096a001)

    Deriv               =              1
    GGA                 =           TRUE
    Meta                =          FALSE

    Exchange Hybrid     =           TRUE
    MP2 Hybrid          =          FALSE

   => Exchange Functionals <=

    0.0800   Slater exchange
    0.7200         Becke 88

   => Exact (HF) Exchange <=

    0.2000               HF 

   => Correlation Functionals <=

    0.1900   Vosko, Wilk & Nusair (VWN5_RPA)
    0.8100   Lee, Yang & Parr

   => LibXC Density Thresholds  <==

    XC_HYB_GGA_XC_B3LYP:  1.00E-15 

   => Molecular Quadrature <=

    Radial Scheme          =       TREUTLER
    Pruning Scheme         =           NONE
    Nuclear Scheme         =       TREUTLER

    Blocking Scheme        =         OCTREE
    BS radius alpha        =              1
    Pruning alpha          =              1
    Radial Points          =             75
    Spherical Points       =            302
    Total Points           =          39504
    Total Blocks           =            370
    Max Points             =            254
    Max Functions          =             36
    Weights Tolerance      =       1.00E-15


  -Total Gradient:
     Atom            X                  Y                   Z
    ------   -----------------  -----------------  -----------------
       1        0.000000000000    -2.976508001474     0.000000000000
       2       -0.000000000000     2.976508001474     0.000000000000


*** tstop() called on Joses-MacBook-Pro-2.local at Wed Jul 16 20:31:58 2025
Module time:
	user time   =       2.43 seconds =       0.04 minutes
	system time =       1.09 seconds =       0.02 minutes
	total time  =          0 seconds =       0.00 minutes
Total time:
	user time   =      38.06 seconds =       0.63 minutes
	system time =      10.44 seconds =       0.17 minutes
	total time  =          5 seconds =       0.08 minutes

    			-----------------------------------------

    			 OPTKING 3.0: for geometry optimizations 

    			     By R.A. King, Bethel University     

    			        with contributions from          

    			    A.V. Copan, J. Cayton, A. Heide      

    			-----------------------------------------

    
	                            ===> Fragment 1 <== 

	 Z (Atomic Numbers)          Masses                          Geom                  
	      17.000000            34.968853         -0.00000000  1.15608276  0.00000000   
	      17.000000            34.968853          0.00000000 -1.15608276  0.00000000   

	 - Coordinate -           - BOHR/RAD -       - ANG/DEG -
	 R(1,2)           =         2.312166           1.223545


	        --- Internal Coordinate Step in ANG or DEG, aJ/ANG or AJ/DEG ---
	-------------------------------------------------------------------------------
	           Coordinate      Previous         Force          Change          New 
	           ----------      --------        ------          ------        ------
	               R(1,2)       1.22355       24.52263        0.05717       1.28072
	-------------------------------------------------------------------------------

	                                 ==> Convergence Check <==                                  
    
	Measures of convergence in internal coordinates in au.
    
	Criteria marked as inactive (o), active & met (*), and active & unmet ( ).

	----------------------------------------------------------------------------------------------
	   Step    Total Energy     Delta E     Max Force     RMS Force      Max Disp      RMS Disp   
	----------------------------------------------------------------------------------------------
	  Convergence Criteria     1.00e-06 *    3.00e-04 *             o    1.20e-03 *             o
	----------------------------------------------------------------------------------------------
	     3    -919.25148844   -9.03e-02      2.98e+00      2.98e+00 o    1.08e-01      1.08e-01 o  ~
	----------------------------------------------------------------------------------------------

Next Geometry in Ang 
	Fragment 1 (Ang)

	   Cl  -0.0000000000   0.6403595391   0.0000000000
	   Cl   0.0000000000  -0.6403595391   0.0000000000


    Structure for next step:
    Molecular point group: d2h
    Full point group: D_inf_h

    Geometry (in Angstrom), charge = 0, multiplicity = 1:

    CL          -0.000000000000     0.640359539099     0.000000000000
    CL           0.000000000000    -0.640359539099     0.000000000000


Scratch directory: /tmp/
gradient() will perform analytic gradient computation.
   => Libint2 <=

    Primary   basis highest AM E, G, H:  6, 6, 3
    Auxiliary basis highest AM E, G, H:  7, 7, 4
    Onebody   basis highest AM E, G, H:  -, -, -
    Solid Harmonics ordering:            Gaussian

*** tstart() called on Joses-MacBook-Pro-2.local
*** at Wed Jul 16 20:31:58 2025

   => Loading Basis Set <=

    Name: CC-PVDZ
    Role: ORBITAL
    Keyword: BASIS
    atoms 1-2 entry CL         line   658 file /Users/joseantoniorodriguesromero/anaconda3/share/psi4/basis/cc-pvdz.gbs 


         ---------------------------------------------------------
                                   SCF
               by Justin Turney, Rob Parrish, Andy Simmonett
                          and Daniel G. A. Smith
                              UKS Reference
                        1 Threads,    500 MiB Core
         ---------------------------------------------------------

  ==> Geometry <==

    Molecular point group: d2h
    Full point group: D_inf_h

    Geometry (in Angstrom), charge = 0, multiplicity = 1:

       Center              X                  Y                   Z               Mass       
    ------------   -----------------  -----------------  -----------------  -----------------
         CL          -0.000000000000     0.640359539099     0.000000000000    34.968852682000
         CL           0.000000000000    -0.640359539099     0.000000000000    34.968852682000

  Running in d2h symmetry.

  Rotational constants: A = ************  B =      0.58781  C =      0.58781 [cm^-1]
  Rotational constants: A = ************  B =  17622.11591  C =  17622.11591 [MHz]
  Nuclear repulsion =  119.411209286318964

  Charge       = 0
  Multiplicity = 1
  Electrons    = 34
  Nalpha       = 17
  Nbeta        = 17

  ==> Algorithm <==

  SCF Algorithm Type is DF.
  DIIS enabled.
  MOM disabled.
  Fractional occupation disabled.
  Guess Type is READ.
  Energy threshold   = 1.00e-08
  Density threshold  = 1.00e-08
  Integral threshold = 1.00e-12

  ==> Primary Basis <==

  Basis Set: CC-PVDZ
    Blend: CC-PVDZ
    Number of shells: 16
    Number of basis functions: 36
    Number of Cartesian functions: 38
    Spherical Harmonics?: true
    Max angular momentum: 2

  ==> DFT Potential <==

   => LibXC <=

    Version 6.2.2
    S. Lehtola, C. Steigemann, M. J.T. Oliveira, and M. A.L. Marques.,  SoftwareX 7, 1–5 (2018) (10.1016/j.softx.2017.11.002)

   => Composite Functional: B3LYP <= 

    B3LYP Hyb-GGA Exchange-Correlation Functional

    P. J. Stephens, F. J. Devlin, C. F. Chabalowski, and M. J. Frisch.,  J. Phys. Chem. 98, 11623 (1994) (10.1021/j100096a001)

    Deriv               =              1
    GGA                 =           TRUE
    Meta                =          FALSE

    Exchange Hybrid     =           TRUE
    MP2 Hybrid          =          FALSE

   => Exchange Functionals <=

    0.0800   Slater exchange
    0.7200         Becke 88

   => Exact (HF) Exchange <=

    0.2000               HF 

   => Correlation Functionals <=

    0.1900   Vosko, Wilk & Nusair (VWN5_RPA)
    0.8100   Lee, Yang & Parr

   => LibXC Density Thresholds  <==

    XC_HYB_GGA_XC_B3LYP:  1.00E-15 

   => Molecular Quadrature <=

    Radial Scheme          =       TREUTLER
    Pruning Scheme         =           NONE
    Nuclear Scheme         =       TREUTLER

    Blocking Scheme        =         OCTREE
    BS radius alpha        =              1
    Pruning alpha          =              1
    Radial Points          =             75
    Spherical Points       =            302
    Total Points           =          39520
    Total Blocks           =            370
    Max Points             =            256
    Max Functions          =             36
    Weights Tolerance      =       1.00E-15

   => Loading Basis Set <=

    Name: (CC-PVDZ AUX)
    Role: JKFIT
    Keyword: DF_BASIS_SCF
    atoms 1-2 entry CL         line   667 file /Users/joseantoniorodriguesromero/anaconda3/share/psi4/basis/cc-pvdz-jkfit.gbs 

   => Loading Basis Set <=

    Name: CC-PVDZ
    Role: ORBITAL
    Keyword: BASIS
    atoms 1-2 entry CL         line   658 file /Users/joseantoniorodriguesromero/anaconda3/share/psi4/basis/cc-pvdz.gbs 

  Reading orbitals from file /tmp/singlet_ClCl.default.69810.180.npy, no projection.

  ==> Integral Setup <==

  DFHelper Memory: AOs need 0.003 GiB; user supplied 0.325 GiB. 
  Using in-core AOs.

  ==> MemDFJK: Density-Fitted J/K Matrices <==

    J tasked:                   Yes
    K tasked:                   Yes
    wK tasked:                   No
    OpenMP threads:               1
    Memory [MiB]:               333
    Algorithm:                 Core
    Schwarz Cutoff:           1E-12
    Mask sparsity (%):       0.0000
    Fitting Condition:        1E-10

   => Auxiliary Basis Set <=

  Basis Set: (CC-PVDZ AUX)
    Blend: CC-PVDZ-JKFIT
    Number of shells: 72
    Number of basis functions: 224
    Number of Cartesian functions: 260
    Spherical Harmonics?: true
    Max angular momentum: 3

  Cached 100.0% of DFT collocation blocks in 0.041 [GiB].

  Minimum eigenvalue in the overlap matrix is 1.3234980642E-02.
  Reciprocal condition number of the overlap matrix is 4.5987571528E-03.
    Using symmetric orthogonalization.

  ==> Pre-Iterations <==

  SCF Guess: Orbitals guess was supplied from a previous computation.

   -------------------------------------------------------
    Irrep   Nso     Nmo     Nalpha   Nbeta   Ndocc  Nsocc
   -------------------------------------------------------
     Ag         9       9       5       5       5       0
     B1g        4       4       2       2       2       0
     B2g        1       1       0       0       0       0
     B3g        4       4       2       2       2       0
     Au         1       1       0       0       0       0
     B1u        4       4       2       2       2       0
     B2u        9       9       4       4       4       0
     B3u        4       4       2       2       2       0
   -------------------------------------------------------
    Total      36      36      17      17      17       0
   -------------------------------------------------------

  ==> Iterations <==

                           Total Energy        Delta E     RMS |[F,P]|

   @DF-UKS iter   0:  -919.57447979687470   -9.19574e+02   4.21423e-02 
   @DF-UKS iter   1:  -919.53203882509729    4.24410e-02   4.56868e-03 DIIS/ADIIS
   @DF-UKS iter   2:  -919.53303589605423   -9.97071e-04   3.59263e-03 DIIS/ADIIS/DAMP=1%
   @DF-UKS iter   3:  -919.53930441874695   -6.26852e-03   3.05364e-04 DIIS/ADIIS/DAMP=1%
   @DF-UKS iter   4:  -919.53453972777720    4.76469e-03   1.46381e-05 DIIS/DAMP=1%
   @DF-UKS iter   5:  -919.53460752300157   -6.77952e-05   1.86898e-06 DIIS/DAMP=1%
   @DF-UKS iter   6:  -919.53458628081091    2.12422e-05   4.36805e-08 DIIS/DAMP=1%
   @DF-UKS iter   7:  -919.53458761709066   -1.33628e-06   7.85199e-09 DIIS/DAMP=1%
   @DF-UKS iter   8:  -919.53458760729677    9.79389e-09   4.27430e-10 DIIS/DAMP=1%
  Energy and wave function converged.


  ==> Post-Iterations <==

   Electrons on quadrature grid:
      Nalpha   =   17.0000000805 ; deviation = 8.053e-08
      Nbeta    =   17.0000000805 ; deviation = 8.053e-08
      Ntotal   =   34.0000001611 ; deviation = 1.611e-07 

   @Spin Contamination Metric:  -3.552713679E-15
   @S^2 Expected:                0.000000000E+00
   @S^2 Observed:               -3.552713679E-15
   @S   Expected:                0.000000000E+00
   @S   Observed:                0.000000000E+00

    Orbital Energies [Eh]
    ---------------------

    Alpha Occupied:                                                       

       1Ag  -101.553737     1B2u -101.553735     2Ag    -9.530559  
       2B2u   -9.521298     3Ag    -7.305265     3B2u   -7.280282  
       1B1u   -7.267529     1B3u   -7.267529     1B3g   -7.264804  
       1B1g   -7.264804     4Ag    -1.282074     4B2u   -0.665876  
       2B3u   -0.598290     2B1u   -0.598290     5Ag    -0.501325  
       2B3g   -0.202393     2B1g   -0.202393  

    Alpha Virtual:                                                        

       5B2u    0.174678     6Ag     0.228888     3B3u    0.308859  
       3B1u    0.308859     7Ag     0.495282     1B2g    0.495284  
       8Ag     0.553251     6B2u    0.556077     3B3g    0.599392  
       3B1g    0.599392     4B1u    0.625913     4B3u    0.625913  
       7B2u    0.845952     1Au     0.845953     8B2u    1.088103  
       9Ag     1.115568     4B1g    1.327996     4B3g    1.327996  
       9B2u    2.217061  

    Beta Occupied:                                                        

       1Ag  -101.553737     1B2u -101.553735     2Ag    -9.530559  
       2B2u   -9.521298     3Ag    -7.305265     3B2u   -7.280282  
       1B1u   -7.267529     1B3u   -7.267529     1B3g   -7.264804  
       1B1g   -7.264804     4Ag    -1.282074     4B2u   -0.665876  
       2B3u   -0.598290     2B1u   -0.598290     5Ag    -0.501325  
       2B3g   -0.202393     2B1g   -0.202393  

    Beta Virtual:                                                         

       5B2u    0.174678     6Ag     0.228888     3B3u    0.308859  
       3B1u    0.308859     7Ag     0.495282     1B2g    0.495284  
       8Ag     0.553251     6B2u    0.556077     3B3g    0.599392  
       3B1g    0.599392     4B1u    0.625913     4B3u    0.625913  
       7B2u    0.845952     1Au     0.845953     8B2u    1.088103  
       9Ag     1.115568     4B1g    1.327996     4B3g    1.327996  
       9B2u    2.217061  

    Final Occupation by Irrep:
             Ag   B1g   B2g   B3g    Au   B1u   B2u   B3u 
    DOCC [     5,    2,    0,    2,    0,    2,    4,    2 ]
    SOCC [     0,    0,    0,    0,    0,    0,    0,    0 ]
    NA   [     5,    2,    0,    2,    0,    2,    4,    2 ]
    NB   [     5,    2,    0,    2,    0,    2,    4,    2 ]

  @DF-UKS Final Energy:  -919.53458760729677

   => Energetics <=

    Nuclear Repulsion Energy =            119.4112092863189645
    One-Electron Energy =               -1505.5231603645977430
    Two-Electron Energy =                 512.5550173040016944
    DFT Exchange-Correlation Energy =     -45.9776538330197653
    Empirical Dispersion Energy =           0.0000000000000000
    VV10 Nonlocal Energy =                  0.0000000000000000
    Total Energy =                       -919.5345876072967712

  UHF NO Occupations:
  HONO-2 :    2B3g 2.0000000
  HONO-1 :    2B3u 2.0000000
  HONO-0 :    4B2u 2.0000000
  LUNO+0 :    5B2u 0.0000000
  LUNO+1 :    6 Ag 0.0000000
  LUNO+2 :    6B2u 0.0000000
  LUNO+3 :    3B3g 0.0000000


Computation Completed


Properties will be evaluated at   0.000000,   0.000000,   0.000000 [a0]

Properties computed using the SCF density matrix


 Multipole Moments:

 ------------------------------------------------------------------------------------
     Multipole            Electronic (a.u.)      Nuclear  (a.u.)        Total (a.u.)
 ------------------------------------------------------------------------------------

 L = 1.  Multiply by 2.5417464519 to convert [e a0] to [Debye]
 Dipole X            :          0.0000000            0.0000000            0.0000000
 Dipole Y            :          0.0000000            0.0000000            0.0000000
 Dipole Z            :          0.0000000            0.0000000            0.0000000
 Magnitude           :                                                    0.0000000

 ------------------------------------------------------------------------------------

*** tstop() called on Joses-MacBook-Pro-2.local at Wed Jul 16 20:31:59 2025
Module time:
	user time   =       6.98 seconds =       0.12 minutes
	system time =       1.81 seconds =       0.03 minutes
	total time  =          1 seconds =       0.02 minutes
Total time:
	user time   =      45.26 seconds =       0.75 minutes
	system time =      12.25 seconds =       0.20 minutes
	total time  =          6 seconds =       0.10 minutes

*** tstart() called on Joses-MacBook-Pro-2.local
*** at Wed Jul 16 20:31:59 2025


         ------------------------------------------------------------
                                   SCF GRAD                          
                          Rob Parrish, Justin Turney,                
                       Andy Simmonett, and Alex Sokolov              
         ------------------------------------------------------------

  ==> Geometry <==

    Molecular point group: d2h
    Full point group: D_inf_h

    Geometry (in Angstrom), charge = 0, multiplicity = 1:

       Center              X                  Y                   Z               Mass       
    ------------   -----------------  -----------------  -----------------  -----------------
         CL          -0.000000000000     0.640359539099     0.000000000000    34.968852682000
         CL           0.000000000000    -0.640359539099     0.000000000000    34.968852682000

  Nuclear repulsion =  119.411209286318964

  ==> Basis Set <==

  Basis Set: CC-PVDZ
    Blend: CC-PVDZ
    Number of shells: 16
    Number of basis functions: 36
    Number of Cartesian functions: 38
    Spherical Harmonics?: true
    Max angular momentum: 2

  ==> DFJKGrad: Density-Fitted SCF Gradients <==

    Gradient:                    1
    J tasked:                  Yes
    K tasked:                  Yes
    wK tasked:                  No
    OpenMP threads:              1
    Integrals threads:           1
    Memory [MiB]:              375
    Schwarz Cutoff:          1E-12
    Fitting Condition:       1E-10

   => Auxiliary Basis Set <=

  Basis Set: (CC-PVDZ AUX)
    Blend: CC-PVDZ-JKFIT
    Number of shells: 72
    Number of basis functions: 224
    Number of Cartesian functions: 260
    Spherical Harmonics?: true
    Max angular momentum: 3

  ==> DFT Potential <==

   => LibXC <=

    Version 6.2.2
    S. Lehtola, C. Steigemann, M. J.T. Oliveira, and M. A.L. Marques.,  SoftwareX 7, 1–5 (2018) (10.1016/j.softx.2017.11.002)

   => Composite Functional: B3LYP <= 

    B3LYP Hyb-GGA Exchange-Correlation Functional

    P. J. Stephens, F. J. Devlin, C. F. Chabalowski, and M. J. Frisch.,  J. Phys. Chem. 98, 11623 (1994) (10.1021/j100096a001)

    Deriv               =              1
    GGA                 =           TRUE
    Meta                =          FALSE

    Exchange Hybrid     =           TRUE
    MP2 Hybrid          =          FALSE

   => Exchange Functionals <=

    0.0800   Slater exchange
    0.7200         Becke 88

   => Exact (HF) Exchange <=

    0.2000               HF 

   => Correlation Functionals <=

    0.1900   Vosko, Wilk & Nusair (VWN5_RPA)
    0.8100   Lee, Yang & Parr

   => LibXC Density Thresholds  <==

    XC_HYB_GGA_XC_B3LYP:  1.00E-15 

   => Molecular Quadrature <=

    Radial Scheme          =       TREUTLER
    Pruning Scheme         =           NONE
    Nuclear Scheme         =       TREUTLER

    Blocking Scheme        =         OCTREE
    BS radius alpha        =              1
    Pruning alpha          =              1
    Radial Points          =             75
    Spherical Points       =            302
    Total Points           =          39520
    Total Blocks           =            370
    Max Points             =            256
    Max Functions          =             36
    Weights Tolerance      =       1.00E-15


  -Total Gradient:
     Atom            X                  Y                   Z
    ------   -----------------  -----------------  -----------------
       1        0.000000000000    -2.292369474740     0.000000000000
       2       -0.000000000000     2.292369474740     0.000000000000


*** tstop() called on Joses-MacBook-Pro-2.local at Wed Jul 16 20:31:59 2025
Module time:
	user time   =       2.25 seconds =       0.04 minutes
	system time =       0.99 seconds =       0.02 minutes
	total time  =          0 seconds =       0.00 minutes
Total time:
	user time   =      47.52 seconds =       0.79 minutes
	system time =      13.24 seconds =       0.22 minutes
	total time  =          6 seconds =       0.10 minutes

    			-----------------------------------------

    			 OPTKING 3.0: for geometry optimizations 

    			     By R.A. King, Bethel University     

    			        with contributions from          

    			    A.V. Copan, J. Cayton, A. Heide      

    			-----------------------------------------

    
	                            ===> Fragment 1 <== 

	 Z (Atomic Numbers)          Masses                          Geom                  
	      17.000000            34.968853         -0.00000000  1.21010415  0.00000000   
	      17.000000            34.968853          0.00000000 -1.21010415  0.00000000   

	 - Coordinate -           - BOHR/RAD -       - ANG/DEG -
	 R(1,2)           =         2.420208           1.280719


	        --- Internal Coordinate Step in ANG or DEG, aJ/ANG or AJ/DEG ---
	-------------------------------------------------------------------------------
	           Coordinate      Previous         Force          Change          New 
	           ----------      --------        ------          ------        ------
	               R(1,2)       1.28072       18.88620        0.16410       1.44482
	-------------------------------------------------------------------------------

	                                 ==> Convergence Check <==                                  
    
	Measures of convergence in internal coordinates in au.
    
	Criteria marked as inactive (o), active & met (*), and active & unmet ( ).

	----------------------------------------------------------------------------------------------
	   Step    Total Energy     Delta E     Max Force     RMS Force      Max Disp      RMS Disp   
	----------------------------------------------------------------------------------------------
	  Convergence Criteria     1.00e-06 *    3.00e-04 *             o    1.20e-03 *             o
	----------------------------------------------------------------------------------------------
	     4    -919.53458761   -2.83e-01      2.29e+00      2.29e+00 o    3.10e-01      3.10e-01 o  ~
	----------------------------------------------------------------------------------------------

Next Geometry in Ang 
	Fragment 1 (Ang)

	   Cl  -0.0000000000   0.7224084007   0.0000000000
	   Cl   0.0000000000  -0.7224084007   0.0000000000


    Structure for next step:
    Molecular point group: d2h
    Full point group: D_inf_h

    Geometry (in Angstrom), charge = 0, multiplicity = 1:

    CL          -0.000000000000     0.722408400707     0.000000000000
    CL           0.000000000000    -0.722408400707     0.000000000000


Scratch directory: /tmp/
gradient() will perform analytic gradient computation.
   => Libint2 <=

    Primary   basis highest AM E, G, H:  6, 6, 3
    Auxiliary basis highest AM E, G, H:  7, 7, 4
    Onebody   basis highest AM E, G, H:  -, -, -
    Solid Harmonics ordering:            Gaussian

*** tstart() called on Joses-MacBook-Pro-2.local
*** at Wed Jul 16 20:31:59 2025

   => Loading Basis Set <=

    Name: CC-PVDZ
    Role: ORBITAL
    Keyword: BASIS
    atoms 1-2 entry CL         line   658 file /Users/joseantoniorodriguesromero/anaconda3/share/psi4/basis/cc-pvdz.gbs 


         ---------------------------------------------------------
                                   SCF
               by Justin Turney, Rob Parrish, Andy Simmonett
                          and Daniel G. A. Smith
                              UKS Reference
                        1 Threads,    500 MiB Core
         ---------------------------------------------------------

  ==> Geometry <==

    Molecular point group: d2h
    Full point group: D_inf_h

    Geometry (in Angstrom), charge = 0, multiplicity = 1:

       Center              X                  Y                   Z               Mass       
    ------------   -----------------  -----------------  -----------------  -----------------
         CL          -0.000000000000     0.722408400707     0.000000000000    34.968852682000
         CL           0.000000000000    -0.722408400707     0.000000000000    34.968852682000

  Running in d2h symmetry.

  Rotational constants: A = ************  B =      0.46187  C =      0.46187 [cm^-1]
  Rotational constants: A = ************  B =  13846.50749  C =  13846.50749 [MHz]
  Nuclear repulsion =  105.848861761613520

  Charge       = 0
  Multiplicity = 1
  Electrons    = 34
  Nalpha       = 17
  Nbeta        = 17

  ==> Algorithm <==

  SCF Algorithm Type is DF.
  DIIS enabled.
  MOM disabled.
  Fractional occupation disabled.
  Guess Type is READ.
  Energy threshold   = 1.00e-08
  Density threshold  = 1.00e-08
  Integral threshold = 1.00e-12

  ==> Primary Basis <==

  Basis Set: CC-PVDZ
    Blend: CC-PVDZ
    Number of shells: 16
    Number of basis functions: 36
    Number of Cartesian functions: 38
    Spherical Harmonics?: true
    Max angular momentum: 2

  ==> DFT Potential <==

   => LibXC <=

    Version 6.2.2
    S. Lehtola, C. Steigemann, M. J.T. Oliveira, and M. A.L. Marques.,  SoftwareX 7, 1–5 (2018) (10.1016/j.softx.2017.11.002)

   => Composite Functional: B3LYP <= 

    B3LYP Hyb-GGA Exchange-Correlation Functional

[...]
    
	Measures of convergence in internal coordinates in au.
    
	Criteria marked as inactive (o), active & met (*), and active & unmet ( ).

	----------------------------------------------------------------------------------------------
	   Step    Total Energy     Delta E     Max Force     RMS Force      Max Disp      RMS Disp   
	----------------------------------------------------------------------------------------------
	  Convergence Criteria     1.00e-06 *    3.00e-04 *             o    1.20e-03 *             o
	----------------------------------------------------------------------------------------------
	    15    -920.39680829   -6.74e-06      3.47e-04      3.47e-04 o    1.65e-03      1.65e-03 o  ~
	----------------------------------------------------------------------------------------------

Next Geometry in Ang 
	Fragment 1 (Ang)

	   Cl  -0.0000000000   1.0239925869   0.0000000000
	   Cl   0.0000000000  -1.0239925869   0.0000000000


    Structure for next step:
    Molecular point group: d2h
    Full point group: D_inf_h

    Geometry (in Angstrom), charge = 0, multiplicity = 1:

    CL          -0.000000000000     1.023992586897     0.000000000000
    CL           0.000000000000    -1.023992586897     0.000000000000


Scratch directory: /tmp/
gradient() will perform analytic gradient computation.
   => Libint2 <=

    Primary   basis highest AM E, G, H:  6, 6, 3
    Auxiliary basis highest AM E, G, H:  7, 7, 4
    Onebody   basis highest AM E, G, H:  -, -, -
    Solid Harmonics ordering:            Gaussian

*** tstart() called on Joses-MacBook-Pro-2.local
*** at Wed Jul 16 20:32:12 2025

   => Loading Basis Set <=

    Name: CC-PVDZ
    Role: ORBITAL
    Keyword: BASIS
    atoms 1-2 entry CL         line   658 file /Users/joseantoniorodriguesromero/anaconda3/share/psi4/basis/cc-pvdz.gbs 


         ---------------------------------------------------------
                                   SCF
               by Justin Turney, Rob Parrish, Andy Simmonett
                          and Daniel G. A. Smith
                              UKS Reference
                        1 Threads,    500 MiB Core
         ---------------------------------------------------------

  ==> Geometry <==

    Molecular point group: d2h
    Full point group: D_inf_h

    Geometry (in Angstrom), charge = 0, multiplicity = 1:

       Center              X                  Y                   Z               Mass       
    ------------   -----------------  -----------------  -----------------  -----------------
         CL          -0.000000000000     1.023992586897     0.000000000000    34.968852682000
         CL           0.000000000000    -1.023992586897     0.000000000000    34.968852682000

  Running in d2h symmetry.

  Rotational constants: A = ************  B =      0.22987  C =      0.22987 [cm^-1]
  Rotational constants: A = ************  B =   6891.47516  C =   6891.47516 [MHz]
  Nuclear repulsion =   74.674473155628021

  Charge       = 0
  Multiplicity = 1
  Electrons    = 34
  Nalpha       = 17
  Nbeta        = 17

  ==> Algorithm <==

  SCF Algorithm Type is DF.
  DIIS enabled.
  MOM disabled.
  Fractional occupation disabled.
  Guess Type is READ.
  Energy threshold   = 1.00e-08
  Density threshold  = 1.00e-08
  Integral threshold = 1.00e-12

  ==> Primary Basis <==

  Basis Set: CC-PVDZ
    Blend: CC-PVDZ
    Number of shells: 16
    Number of basis functions: 36
    Number of Cartesian functions: 38
    Spherical Harmonics?: true
    Max angular momentum: 2

  ==> DFT Potential <==

   => LibXC <=

    Version 6.2.2
    S. Lehtola, C. Steigemann, M. J.T. Oliveira, and M. A.L. Marques.,  SoftwareX 7, 1–5 (2018) (10.1016/j.softx.2017.11.002)

   => Composite Functional: B3LYP <= 

    B3LYP Hyb-GGA Exchange-Correlation Functional

    P. J. Stephens, F. J. Devlin, C. F. Chabalowski, and M. J. Frisch.,  J. Phys. Chem. 98, 11623 (1994) (10.1021/j100096a001)

    Deriv               =              1
    GGA                 =           TRUE
    Meta                =          FALSE

    Exchange Hybrid     =           TRUE
    MP2 Hybrid          =          FALSE

   => Exchange Functionals <=

    0.0800   Slater exchange
    0.7200         Becke 88

   => Exact (HF) Exchange <=

    0.2000               HF 

   => Correlation Functionals <=

    0.1900   Vosko, Wilk & Nusair (VWN5_RPA)
    0.8100   Lee, Yang & Parr

   => LibXC Density Thresholds  <==

    XC_HYB_GGA_XC_B3LYP:  1.00E-15 

   => Molecular Quadrature <=

    Radial Scheme          =       TREUTLER
    Pruning Scheme         =           NONE
    Nuclear Scheme         =       TREUTLER

    Blocking Scheme        =         OCTREE
    BS radius alpha        =              1
    Pruning alpha          =              1
    Radial Points          =             75
    Spherical Points       =            302
    Total Points           =          39654
    Total Blocks           =            368
    Max Points             =            251
    Max Functions          =             36
    Weights Tolerance      =       1.00E-15

   => Loading Basis Set <=

    Name: (CC-PVDZ AUX)
    Role: JKFIT
    Keyword: DF_BASIS_SCF
    atoms 1-2 entry CL         line   667 file /Users/joseantoniorodriguesromero/anaconda3/share/psi4/basis/cc-pvdz-jkfit.gbs 

   => Loading Basis Set <=

    Name: CC-PVDZ
    Role: ORBITAL
    Keyword: BASIS
    atoms 1-2 entry CL         line   658 file /Users/joseantoniorodriguesromero/anaconda3/share/psi4/basis/cc-pvdz.gbs 

  Reading orbitals from file /tmp/singlet_ClCl.default.69810.180.npy, no projection.

  ==> Integral Setup <==

  DFHelper Memory: AOs need 0.003 GiB; user supplied 0.326 GiB. 
  Using in-core AOs.

  ==> MemDFJK: Density-Fitted J/K Matrices <==

    J tasked:                   Yes
    K tasked:                   Yes
    wK tasked:                   No
    OpenMP threads:               1
    Memory [MiB]:               333
    Algorithm:                 Core
    Schwarz Cutoff:           1E-12
    Mask sparsity (%):       0.0000
    Fitting Condition:        1E-10

   => Auxiliary Basis Set <=

  Basis Set: (CC-PVDZ AUX)
    Blend: CC-PVDZ-JKFIT
    Number of shells: 72
    Number of basis functions: 224
    Number of Cartesian functions: 260
    Spherical Harmonics?: true
    Max angular momentum: 3

  Cached 100.0% of DFT collocation blocks in 0.040 [GiB].

  Minimum eigenvalue in the overlap matrix is 4.4687695464E-02.
  Reciprocal condition number of the overlap matrix is 1.9732692977E-02.
    Using symmetric orthogonalization.

  ==> Pre-Iterations <==

  SCF Guess: Orbitals guess was supplied from a previous computation.

   -------------------------------------------------------
    Irrep   Nso     Nmo     Nalpha   Nbeta   Ndocc  Nsocc
   -------------------------------------------------------
     Ag         9       9       5       5       5       0
     B1g        4       4       2       2       2       0
     B2g        1       1       0       0       0       0
     B3g        4       4       2       2       2       0
     Au         1       1       0       0       0       0
     B1u        4       4       2       2       2       0
     B2u        9       9       4       4       4       0
     B3u        4       4       2       2       2       0
   -------------------------------------------------------
    Total      36      36      17      17      17       0
   -------------------------------------------------------

  ==> Iterations <==

                           Total Energy        Delta E     RMS |[F,P]|

   @DF-UKS iter   0:  -920.39652308564791   -9.20397e+02   9.68132e-05 
   @DF-UKS iter   1:  -920.39680855778988   -2.85472e-04   1.96340e-05 DIIS
   @DF-UKS iter   2:  -920.39680856678694   -8.99706e-09   1.76690e-05 DIIS/DAMP=1%
   @DF-UKS iter   3:  -920.39680048835112    8.07844e-06   8.45334e-07 DIIS/DAMP=1%
   @DF-UKS iter   4:  -920.39680967728441   -9.18893e-06   8.68526e-08 DIIS/DAMP=1%
   @DF-UKS iter   5:  -920.39680850970126    1.16758e-06   4.90368e-09 DIIS/DAMP=1%
   @DF-UKS iter   6:  -920.39680861083036   -1.01129e-07   5.75771e-10 DIIS/DAMP=1%
   @DF-UKS iter   7:  -920.39680860502244    5.80792e-09   1.95547e-11 DIIS/DAMP=1%
  Energy and wave function converged.


  ==> Post-Iterations <==

   Electrons on quadrature grid:
      Nalpha   =   17.0000007032 ; deviation = 7.032e-07
      Nbeta    =   17.0000007032 ; deviation = 7.032e-07
      Ntotal   =   34.0000014064 ; deviation = 1.406e-06 

   @Spin Contamination Metric:  -7.105427358E-15
   @S^2 Expected:                0.000000000E+00
   @S^2 Observed:               -7.105427358E-15
   @S   Expected:                0.000000000E+00
   @S   Observed:                0.000000000E+00

    Orbital Energies [Eh]
    ---------------------

    Alpha Occupied:                                                       

       1Ag  -101.596902     1B2u -101.596902     2B2u   -9.513090  
       2Ag    -9.513037     3Ag    -7.279613     3B2u   -7.279511  
       1B3u   -7.263951     1B1u   -7.263951     1B3g   -7.263945  
       1B1g   -7.263945     4Ag    -0.926933     4B2u   -0.775148  
       5Ag    -0.469457     2B3u   -0.402644     2B1u   -0.402644  
       2B1g   -0.310252     2B3g   -0.310252  

    Alpha Virtual:                                                        

       5B2u   -0.138518     6Ag     0.430233     6B2u    0.468647  
       3B1u    0.495477     3B3u    0.495477     3B3g    0.550957  
       3B1g    0.550957     7Ag     0.556874     4B1u    0.568314  
       4B3u    0.568314     1B2g    0.678557     8Ag     0.678557  
       7B2u    0.717362     1Au     0.724906     8B2u    0.724906  
       9Ag     0.777753     4B3g    0.880109     4B1g    0.880109  
       9B2u    1.328403  

    Beta Occupied:                                                        

       1Ag  -101.596902     1B2u -101.596902     2B2u   -9.513090  
       2Ag    -9.513037     3Ag    -7.279613     3B2u   -7.279511  
       1B3u   -7.263951     1B1u   -7.263951     1B1g   -7.263945  
       1B3g   -7.263945     4Ag    -0.926933     4B2u   -0.775148  
       5Ag    -0.469457     2B3u   -0.402644     2B1u   -0.402644  
       2B1g   -0.310252     2B3g   -0.310252  

    Beta Virtual:                                                         

       5B2u   -0.138518     6Ag     0.430233     6B2u    0.468647  
       3B1u    0.495477     3B3u    0.495477     3B3g    0.550957  
       3B1g    0.550957     7Ag     0.556874     4B1u    0.568314  
       4B3u    0.568314     1B2g    0.678557     8Ag     0.678557  
       7B2u    0.717362     1Au     0.724906     8B2u    0.724906  
       9Ag     0.777753     4B3g    0.880109     4B1g    0.880109  
       9B2u    1.328403  

    Final Occupation by Irrep:
             Ag   B1g   B2g   B3g    Au   B1u   B2u   B3u 
    DOCC [     5,    2,    0,    2,    0,    2,    4,    2 ]
    SOCC [     0,    0,    0,    0,    0,    0,    0,    0 ]
    NA   [     5,    2,    0,    2,    0,    2,    4,    2 ]
    NB   [     5,    2,    0,    2,    0,    2,    4,    2 ]

  @DF-UKS Final Energy:  -920.39680860502244

   => Energetics <=

    Nuclear Repulsion Energy =             74.6744731556280215
    One-Electron Energy =               -1418.9560899609527951
    Two-Electron Energy =                 469.3742178232620859
    DFT Exchange-Correlation Energy =     -45.4894096229598262
    Empirical Dispersion Energy =           0.0000000000000000
    VV10 Nonlocal Energy =                  0.0000000000000000
    Total Energy =                       -920.3968086050224429

  UHF NO Occupations:
  HONO-2 :    3B2u 2.0000000
  HONO-1 :    2B1g 2.0000000
  HONO-0 :    4B2u 2.0000000
  LUNO+0 :    5B2u 0.0000000
  LUNO+1 :    3B1g 0.0000000
  LUNO+2 :    6B2u 0.0000000
  LUNO+3 :    6 Ag 0.0000000


Computation Completed


Properties will be evaluated at   0.000000,   0.000000,   0.000000 [a0]

Properties computed using the SCF density matrix


 Multipole Moments:

 ------------------------------------------------------------------------------------
     Multipole            Electronic (a.u.)      Nuclear  (a.u.)        Total (a.u.)
 ------------------------------------------------------------------------------------

 L = 1.  Multiply by 2.5417464519 to convert [e a0] to [Debye]
 Dipole X            :          0.0000000            0.0000000            0.0000000
 Dipole Y            :          0.0000000            0.0000000            0.0000000
 Dipole Z            :          0.0000000            0.0000000            0.0000000
 Magnitude           :                                                    0.0000000

 ------------------------------------------------------------------------------------

*** tstop() called on Joses-MacBook-Pro-2.local at Wed Jul 16 20:32:13 2025
Module time:
	user time   =       5.71 seconds =       0.10 minutes
	system time =       1.79 seconds =       0.03 minutes
	total time  =          1 seconds =       0.02 minutes
Total time:
	user time   =     154.00 seconds =       2.57 minutes
	system time =      54.87 seconds =       0.91 minutes
	total time  =         20 seconds =       0.33 minutes

*** tstart() called on Joses-MacBook-Pro-2.local
*** at Wed Jul 16 20:32:13 2025


         ------------------------------------------------------------
                                   SCF GRAD                          
                          Rob Parrish, Justin Turney,                
                       Andy Simmonett, and Alex Sokolov              
         ------------------------------------------------------------

  ==> Geometry <==

    Molecular point group: d2h
    Full point group: D_inf_h

    Geometry (in Angstrom), charge = 0, multiplicity = 1:

       Center              X                  Y                   Z               Mass       
    ------------   -----------------  -----------------  -----------------  -----------------
         CL          -0.000000000000     1.023992586897     0.000000000000    34.968852682000
         CL           0.000000000000    -1.023992586897     0.000000000000    34.968852682000

  Nuclear repulsion =   74.674473155628021

  ==> Basis Set <==

  Basis Set: CC-PVDZ
    Blend: CC-PVDZ
    Number of shells: 16
    Number of basis functions: 36
    Number of Cartesian functions: 38
    Spherical Harmonics?: true
    Max angular momentum: 2

  ==> DFJKGrad: Density-Fitted SCF Gradients <==

    Gradient:                    1
    J tasked:                  Yes
    K tasked:                  Yes
    wK tasked:                  No
    OpenMP threads:              1
    Integrals threads:           1
    Memory [MiB]:              375
    Schwarz Cutoff:          1E-12
    Fitting Condition:       1E-10

   => Auxiliary Basis Set <=

  Basis Set: (CC-PVDZ AUX)
    Blend: CC-PVDZ-JKFIT
    Number of shells: 72
    Number of basis functions: 224
    Number of Cartesian functions: 260
    Spherical Harmonics?: true
    Max angular momentum: 3

  ==> DFT Potential <==

   => LibXC <=

    Version 6.2.2
    S. Lehtola, C. Steigemann, M. J.T. Oliveira, and M. A.L. Marques.,  SoftwareX 7, 1–5 (2018) (10.1016/j.softx.2017.11.002)

   => Composite Functional: B3LYP <= 

    B3LYP Hyb-GGA Exchange-Correlation Functional

    P. J. Stephens, F. J. Devlin, C. F. Chabalowski, and M. J. Frisch.,  J. Phys. Chem. 98, 11623 (1994) (10.1021/j100096a001)

    Deriv               =              1
    GGA                 =           TRUE
    Meta                =          FALSE

    Exchange Hybrid     =           TRUE
    MP2 Hybrid          =          FALSE

   => Exchange Functionals <=

    0.0800   Slater exchange
    0.7200         Becke 88

   => Exact (HF) Exchange <=

    0.2000               HF 

   => Correlation Functionals <=

    0.1900   Vosko, Wilk & Nusair (VWN5_RPA)
    0.8100   Lee, Yang & Parr

   => LibXC Density Thresholds  <==

    XC_HYB_GGA_XC_B3LYP:  1.00E-15 

   => Molecular Quadrature <=

    Radial Scheme          =       TREUTLER
    Pruning Scheme         =           NONE
    Nuclear Scheme         =       TREUTLER

    Blocking Scheme        =         OCTREE
    BS radius alpha        =              1
    Pruning alpha          =              1
    Radial Points          =             75
    Spherical Points       =            302
    Total Points           =          39654
    Total Blocks           =            368
    Max Points             =            251
    Max Functions          =             36
    Weights Tolerance      =       1.00E-15


  -Total Gradient:
     Atom            X                  Y                   Z
    ------   -----------------  -----------------  -----------------
       1        0.000000000000    -0.000045555682     0.000000000000
       2       -0.000000000000     0.000045555682     0.000000000000


*** tstop() called on Joses-MacBook-Pro-2.local at Wed Jul 16 20:32:13 2025
Module time:
	user time   =       2.36 seconds =       0.04 minutes
	system time =       0.89 seconds =       0.01 minutes
	total time  =          0 seconds =       0.00 minutes
Total time:
	user time   =     156.36 seconds =       2.61 minutes
	system time =      55.76 seconds =       0.93 minutes
	total time  =         20 seconds =       0.33 minutes

    			-----------------------------------------

    			 OPTKING 3.0: for geometry optimizations 

    			     By R.A. King, Bethel University     

    			        with contributions from          

    			    A.V. Copan, J. Cayton, A. Heide      

    			-----------------------------------------

    
	                            ===> Fragment 1 <== 

	 Z (Atomic Numbers)          Masses                          Geom                  
	      17.000000            34.968853         -0.00000000  1.93506554  0.00000000   
	      17.000000            34.968853          0.00000000 -1.93506554  0.00000000   

	 - Coordinate -           - BOHR/RAD -       - ANG/DEG -
	 R(1,2)           =         3.870131           2.047985


	        --- Internal Coordinate Step in ANG or DEG, aJ/ANG or AJ/DEG ---
	-------------------------------------------------------------------------------
	           Coordinate      Previous         Force          Change          New 
	           ----------      --------        ------          ------        ------
	               R(1,2)       2.04799        0.00038        0.00012       2.04811
	-------------------------------------------------------------------------------

	                                 ==> Convergence Check <==                                  
    
	Measures of convergence in internal coordinates in au.
    
	Criteria marked as inactive (o), active & met (*), and active & unmet ( ).

	----------------------------------------------------------------------------------------------
	   Step    Total Energy     Delta E     Max Force     RMS Force      Max Disp      RMS Disp   
	----------------------------------------------------------------------------------------------
	  Convergence Criteria     1.00e-06 *    3.00e-04 *             o    1.20e-03 *             o
	----------------------------------------------------------------------------------------------
	    16    -920.39680861   -3.15e-07 *    4.56e-05 *    4.56e-05 o    2.34e-04 *    2.34e-04 o  ~
	----------------------------------------------------------------------------------------------

Next Geometry in Ang 
	Fragment 1 (Ang)

	   Cl  -0.0000000000   1.0240546102   0.0000000000
	   Cl   0.0000000000  -1.0240546102   0.0000000000


    Final optimized geometry and variables:
    Molecular point group: d2h
    Full point group: D_inf_h

    Geometry (in Angstrom), charge = 0, multiplicity = 1:

    CL          -0.000000000000     1.023992586897     0.000000000000
    CL           0.000000000000    -1.023992586897     0.000000000000


    Psi4 stopped on: Wednesday, 16 July 2025 08:32PM
    Psi4 wall time for execution: 0:00:20.68

*** Psi4 exiting successfully. Buy a developer a beer!
