
    -----------------------------------------------------------------------
          Psi4: An Open-Source Ab Initio Electronic Structure Package
                               Psi4 1.9.1 release

                         Git: Rev {} zzzzzzz 


    D. G. A. Smith, L. A. Burns, A. C. Simmonett, R. M. Parrish,
    M. C. Schieber, R. Galvelis, P. Kraus, H. Kruse, R. Di Remigio,
    A. Alenaizan, A. M. James, S. Lehtola, J. P. Misiewicz, M. Scheurer,
    R. A. Shaw, J. B. Schriber, Y. Xie, Z. L. Glick, D. A. Sirianni,
    J. S. O'Brien, J. M. Waldrop, A. Kumar, E. G. Hohenstein,
    B. P. Pritchard, B. R. Brooks, H. F. Schaefer III, A. Yu. Sokolov,
    K. Patkowski, A. E. DePrince III, U. Bozkaya, R. A. King,
    F. A. Evangelista, J. M. Turney, T. D. Crawford, C. D. Sherrill,
    J. Chem. Phys. 152(18) 184108 (2020). https://doi.org/10.1063/5.0006002

                            Additional Code Authors
    E. T. Seidl, C. L. Janssen, E. F. Valeev, M. L. Leininger,
    J. F. Gonthier, R. M. Richard, H. R. McAlexander, M. Saitow, X. Wang,
    P. Verma, M. H. Lechner, A. Jiang, S. Behnle, A. G. Heide,
    M. F. Herbst, and D. L. Poole

             Previous Authors, Complete List of Code Contributors,
                       and Citations for Specific Modules
    https://github.com/psi4/psi4/blob/master/codemeta.json
    https://github.com/psi4/psi4/graphs/contributors
    http://psicode.org/psi4manual/master/introduction.html#citing-psifour

    -----------------------------------------------------------------------


    Psi4 started on: Wednesday, 16 July 2025 06:48PM

    Process ID: 68527
    Host:       Joses-MacBook-Pro-2.local
    PSIDATADIR: /Users/joseantoniorodriguesromero/anaconda3/share/psi4
    Memory:     500.0 MiB
    Threads:    1
    
  ==> Input File <==

--------------------------------------------------------------------------
molecule { 
0 3
Be   0.00000        0.60000        0.00000
Ar   0.00000       -0.60000        0.00000
}

set { 
basis              cc-pvdz
reference          uks
maxiter            500
geom_maxiter       500
DAMPING_PERCENTAGE 1
guess              SAP
}

optimize('b3lyp')
--------------------------------------------------------------------------

Scratch directory: /tmp/
gradient() will perform analytic gradient computation.
   => Libint2 <=

    Primary   basis highest AM E, G, H:  6, 6, 3
    Auxiliary basis highest AM E, G, H:  7, 7, 4
    Onebody   basis highest AM E, G, H:  -, -, -
    Solid Harmonics ordering:            Gaussian

*** tstart() called on Joses-MacBook-Pro-2.local
*** at Wed Jul 16 18:48:01 2025

   => Loading Basis Set <=

    Name: CC-PVDZ
    Role: ORBITAL
    Keyword: BASIS
    atoms 1 entry BE         line    75 file /Users/joseantoniorodriguesromero/anaconda3/share/psi4/basis/cc-pvdz.gbs 
    atoms 2 entry AR         line   718 file /Users/joseantoniorodriguesromero/anaconda3/share/psi4/basis/cc-pvdz.gbs 


         ---------------------------------------------------------
                                   SCF
               by Justin Turney, Rob Parrish, Andy Simmonett
                          and Daniel G. A. Smith
                              UKS Reference
                        1 Threads,    500 MiB Core
         ---------------------------------------------------------

  ==> Geometry <==

    Molecular point group: c2v
    Full point group: C_inf_v

    Geometry (in Angstrom), charge = 0, multiplicity = 3:

       Center              X                  Y                   Z               Mass       
    ------------   -----------------  -----------------  -----------------  -----------------
         BE           0.000000000000     0.000000000000     0.979178857117     9.012183065000
         AR           0.000000000000     0.000000000000    -0.220821142883    39.962383123700

  Running in c2v symmetry.

  Rotational constants: A = ************  B =      1.59193  C =      1.59193 [cm^-1]
  Rotational constants: A = ************  B =  47724.77844  C =  47724.77844 [MHz]
  Nuclear repulsion =   31.750632640200006

  Charge       = 0
  Multiplicity = 3
  Electrons    = 22
  Nalpha       = 12
  Nbeta        = 10

  ==> Algorithm <==

  SCF Algorithm Type is DF.
  DIIS enabled.
  MOM disabled.
  Fractional occupation disabled.
  Guess Type is SAP.
  Energy threshold   = 1.00e-08
  Density threshold  = 1.00e-08
  Integral threshold = 1.00e-12

  ==> Primary Basis <==

  Basis Set: CC-PVDZ
    Blend: CC-PVDZ
    Number of shells: 14
    Number of basis functions: 32
    Number of Cartesian functions: 34
    Spherical Harmonics?: true
    Max angular momentum: 2

  ==> DFT Potential <==

   => LibXC <=

    Version 6.2.2
    S. Lehtola, C. Steigemann, M. J.T. Oliveira, and M. A.L. Marques.,  SoftwareX 7, 1–5 (2018) (10.1016/j.softx.2017.11.002)

   => Composite Functional: B3LYP <= 

    B3LYP Hyb-GGA Exchange-Correlation Functional

    P. J. Stephens, F. J. Devlin, C. F. Chabalowski, and M. J. Frisch.,  J. Phys. Chem. 98, 11623 (1994) (10.1021/j100096a001)

    Deriv               =              1
    GGA                 =           TRUE
    Meta                =          FALSE

    Exchange Hybrid     =           TRUE
    MP2 Hybrid          =          FALSE

   => Exchange Functionals <=

    0.0800   Slater exchange
    0.7200         Becke 88

   => Exact (HF) Exchange <=

    0.2000               HF 

   => Correlation Functionals <=

    0.1900   Vosko, Wilk & Nusair (VWN5_RPA)
    0.8100   Lee, Yang & Parr

   => LibXC Density Thresholds  <==

    XC_HYB_GGA_XC_B3LYP:  1.00E-15 

   => Molecular Quadrature <=

    Radial Scheme          =       TREUTLER
    Pruning Scheme         =           NONE
    Nuclear Scheme         =       TREUTLER

    Blocking Scheme        =         OCTREE
    BS radius alpha        =              1
    Pruning alpha          =              1
    Radial Points          =             75
    Spherical Points       =            302
    Total Points           =          42682
    Total Blocks           =            399
    Max Points             =            256
    Max Functions          =             32
    Weights Tolerance      =       1.00E-15

   => Loading Basis Set <=

    Name: (CC-PVDZ AUX)
    Role: JKFIT
    Keyword: DF_BASIS_SCF
    atoms 1 entry BE         line    96 file /Users/joseantoniorodriguesromero/anaconda3/share/psi4/basis/def2-universal-jkfit.gbs 
    atoms 2 entry AR         line   741 file /Users/joseantoniorodriguesromero/anaconda3/share/psi4/basis/cc-pvdz-jkfit.gbs 

  ==> Integral Setup <==

  DFHelper Memory: AOs need 0.002 GiB; user supplied 0.328 GiB. 
  Using in-core AOs.

  ==> MemDFJK: Density-Fitted J/K Matrices <==

    J tasked:                   Yes
    K tasked:                   Yes
    wK tasked:                   No
    OpenMP threads:               1
    Memory [MiB]:               336
    Algorithm:                 Core
    Schwarz Cutoff:           1E-12
    Mask sparsity (%):       0.0000
    Fitting Condition:        1E-10

   => Auxiliary Basis Set <=

  Basis Set: (CC-PVDZ AUX)
    Blend: CC-PVDZ-JKFIT + DEF2-UNIVERSAL-JKFIT
    Number of shells: 53
    Number of basis functions: 163
    Number of Cartesian functions: 190
    Spherical Harmonics?: true
    Max angular momentum: 3

  Cached 100.0% of DFT collocation blocks in 0.038 [GiB].

  Minimum eigenvalue in the overlap matrix is 2.7036887706E-03.
  Reciprocal condition number of the overlap matrix is 8.5738114989E-04.
    Using symmetric orthogonalization.

  ==> Pre-Iterations <==

  SCF Guess: Superposition of Atomic Potentials (doi:10.1021/acs.jctc.8b01089).

  ==> SAP guess <==

   => Molecular Quadrature <=

    Radial Scheme          =       TREUTLER
    Pruning Scheme         =           NONE
    Nuclear Scheme         =       TREUTLER

    Blocking Scheme        =         OCTREE
    BS radius alpha        =              1
    Pruning alpha          =              1
    Radial Points          =             75
    Spherical Points       =            302
    Total Points           =          42682
    Total Blocks           =            399
    Max Points             =            256
    Max Functions          =             32
    Weights Tolerance      =       1.00E-15

   -------------------------------------------------------
    Irrep   Nso     Nmo     Nalpha   Nbeta   Ndocc  Nsocc
   -------------------------------------------------------
     A1        16      16       7       6       6       1
     A2         2       2       0       0       0       0
     B1         7       7       2       2       2       0
     B2         7       7       3       2       2       1
   -------------------------------------------------------
    Total      32      32      12      10      10       2
   -------------------------------------------------------

  ==> Iterations <==

                           Total Energy        Delta E     RMS |[F,P]|

   @DF-UKS iter   1:  -541.47334713530518   -5.41473e+02   2.70285e-02 DIIS/ADIIS
   @DF-UKS iter   2:  -541.53148166648555   -5.81345e-02   2.38182e-02 DIIS/ADIIS/DAMP=1%
   @DF-UKS iter   3:  -541.63464805438809   -1.03166e-01   7.21433e-04 DIIS/ADIIS/DAMP=1%
   @DF-UKS iter   4:  -541.64686375843962   -1.22157e-02   2.73370e-04 DIIS/ADIIS/DAMP=1%
   @DF-UKS iter   5:  -541.64741774859021   -5.53990e-04   7.18471e-05 DIIS/DAMP=1%
   @DF-UKS iter   6:  -541.64708488236022    3.32866e-04   4.33358e-06 DIIS/DAMP=1%
   @DF-UKS iter   7:  -541.64716624619155   -8.13638e-05   9.09793e-07 DIIS/DAMP=1%
   @DF-UKS iter   8:  -541.64716560799081    6.38201e-07   1.11524e-07 DIIS/DAMP=1%
   @DF-UKS iter   9:  -541.64716578980779   -1.81817e-07   1.43060e-08 DIIS/DAMP=1%
   @DF-UKS iter  10:  -541.64716583351674   -4.37090e-08   1.75933e-09 DIIS/DAMP=1%
   @DF-UKS iter  11:  -541.64716582243534    1.10814e-08   1.94487e-10 DIIS/DAMP=1%
   @DF-UKS iter  12:  -541.64716582338497   -9.49626e-10   1.74175e-11 DIIS/DAMP=1%
  Energy and wave function converged.


  ==> Post-Iterations <==

   Electrons on quadrature grid:
      Nalpha   =   11.9999995225 ; deviation = -4.775e-07
      Nbeta    =    9.9999995021 ; deviation = -4.979e-07
      Ntotal   =   21.9999990246 ; deviation = -9.754e-07 

   @Spin Contamination Metric:   7.021760965E-04
   @S^2 Expected:                2.000000000E+00
   @S^2 Observed:                2.000702176E+00
   @S   Expected:                1.000000000E+00
   @S   Observed:                1.000000000E+00

    Orbital Energies [Eh]
    ---------------------

    Alpha Occupied:                                                       

       1A1  -115.211162     2A1   -11.277318     3A1    -8.829107  
       1B1    -8.822518     1B2    -8.820470     4A1    -4.096637  
       5A1    -1.160405     6A1    -0.630566     2B1    -0.600799  
       2B2    -0.598490     7A1    -0.186712     3B2    -0.075837  

    Alpha Virtual:                                                        

       3B1    -0.012600     8A1     0.037949     4B2     0.106100  
       4B1     0.115433     9A1     0.194877     1A2     0.354507  
      10A1     0.357438    11A1     0.419194     5B2     0.456571  
       5B1     0.461093    12A1     0.463026     6B1     0.613345  
       6B2     0.616172    13A1     0.793916     2A2     0.829595  
      14A1     0.831261     7B2     1.184950     7B1     1.186396  
      15A1     1.220228    16A1     2.483594  

    Beta Occupied:                                                        

       1A1  -115.210061     2A1   -11.276106     3A1    -8.828111  
       1B1    -8.821996     1B2    -8.817564     4A1    -4.081696  
       5A1    -1.151601     6A1    -0.617474     2B1    -0.597230  
       2B2    -0.579460  

    Beta Virtual:                                                         

       7A1    -0.051805     3B1     0.022553     3B2     0.044698  
       8A1     0.056620     4B1     0.127782     4B2     0.144041  
       9A1     0.249982    10A1     0.397285     1A2     0.397436  
      11A1     0.428760     5B1     0.498922     5B2     0.515717  
      12A1     0.527791     6B1     0.636001     6B2     0.655043  
      13A1     0.801522     2A2     0.855567    14A1     0.855951  
       7B1     1.204186     7B2     1.221673    15A1     1.246400  
      16A1     2.506627  

    Final Occupation by Irrep:
             A1    A2    B1    B2 
    DOCC [     6,    0,    2,    2 ]
    SOCC [     1,    0,    0,    1 ]
    NA   [     7,    0,    2,    3 ]
    NB   [     6,    0,    2,    2 ]

  @DF-UKS Final Energy:  -541.64716582338497

   => Energetics <=

    Nuclear Repulsion Energy =             31.7506326402000063
    One-Electron Energy =                -807.0281807670119179
    Two-Electron Energy =                 261.0310635301008801
    DFT Exchange-Correlation Energy =     -27.4006812266739210
    Empirical Dispersion Energy =           0.0000000000000000
    VV10 Nonlocal Energy =                  0.0000000000000000
    Total Energy =                       -541.6471658233849666

  UHF NO Occupations:
  HONO-2 :    2 B2 1.9998181
  HONO-1 :    3 B2 1.0000000
  HONO-0 :    7 A1 1.0000000
  LUNO+0 :    4 B2 0.0001819
  LUNO+1 :    3 B1 0.0000993
  LUNO+2 :    8 A1 0.0000563
  LUNO+3 :    9 A1 0.0000132


Computation Completed


Properties will be evaluated at   0.000000,   0.000000,   0.000000 [a0]

Properties computed using the SCF density matrix


 Multipole Moments:

 ------------------------------------------------------------------------------------
     Multipole            Electronic (a.u.)      Nuclear  (a.u.)        Total (a.u.)
 ------------------------------------------------------------------------------------

 L = 1.  Multiply by 2.5417464519 to convert [e a0] to [Debye]
 Dipole X            :          0.0000000            0.0000000            0.0000000
 Dipole Y            :          0.0000000            0.0000000            0.0000000
 Dipole Z            :         -1.6443369           -0.1097272           -1.7540641
 Magnitude           :                                                    1.7540641

 ------------------------------------------------------------------------------------

*** tstop() called on Joses-MacBook-Pro-2.local at Wed Jul 16 18:48:02 2025
Module time:
	user time   =       3.34 seconds =       0.06 minutes
	system time =       5.99 seconds =       0.10 minutes
	total time  =          1 seconds =       0.02 minutes
Total time:
	user time   =       3.34 seconds =       0.06 minutes
	system time =       5.99 seconds =       0.10 minutes
	total time  =          1 seconds =       0.02 minutes

*** tstart() called on Joses-MacBook-Pro-2.local
*** at Wed Jul 16 18:48:02 2025


         ------------------------------------------------------------
                                   SCF GRAD                          
                          Rob Parrish, Justin Turney,                
                       Andy Simmonett, and Alex Sokolov              
         ------------------------------------------------------------

  ==> Geometry <==

    Molecular point group: c2v
    Full point group: C_inf_v

    Geometry (in Angstrom), charge = 0, multiplicity = 3:

       Center              X                  Y                   Z               Mass       
    ------------   -----------------  -----------------  -----------------  -----------------
         BE           0.000000000000     0.000000000000     0.979178857117     9.012183065000
         AR           0.000000000000     0.000000000000    -0.220821142883    39.962383123700

  Nuclear repulsion =   31.750632640200006

  ==> Basis Set <==

  Basis Set: CC-PVDZ
    Blend: CC-PVDZ
    Number of shells: 14
    Number of basis functions: 32
    Number of Cartesian functions: 34
    Spherical Harmonics?: true
    Max angular momentum: 2

  ==> DFJKGrad: Density-Fitted SCF Gradients <==

    Gradient:                    1
    J tasked:                  Yes
    K tasked:                  Yes
    wK tasked:                  No
    OpenMP threads:              1
    Integrals threads:           1
    Memory [MiB]:              375
    Schwarz Cutoff:          1E-12
    Fitting Condition:       1E-10

   => Auxiliary Basis Set <=

  Basis Set: (CC-PVDZ AUX)
    Blend: CC-PVDZ-JKFIT + DEF2-UNIVERSAL-JKFIT
    Number of shells: 53
    Number of basis functions: 163
    Number of Cartesian functions: 190
    Spherical Harmonics?: true
    Max angular momentum: 3

  ==> DFT Potential <==

   => LibXC <=

    Version 6.2.2
    S. Lehtola, C. Steigemann, M. J.T. Oliveira, and M. A.L. Marques.,  SoftwareX 7, 1–5 (2018) (10.1016/j.softx.2017.11.002)

   => Composite Functional: B3LYP <= 

    B3LYP Hyb-GGA Exchange-Correlation Functional

    P. J. Stephens, F. J. Devlin, C. F. Chabalowski, and M. J. Frisch.,  J. Phys. Chem. 98, 11623 (1994) (10.1021/j100096a001)

    Deriv               =              1
    GGA                 =           TRUE
    Meta                =          FALSE

    Exchange Hybrid     =           TRUE
    MP2 Hybrid          =          FALSE

   => Exchange Functionals <=

    0.0800   Slater exchange
    0.7200         Becke 88

   => Exact (HF) Exchange <=

    0.2000               HF 

   => Correlation Functionals <=

    0.1900   Vosko, Wilk & Nusair (VWN5_RPA)
    0.8100   Lee, Yang & Parr

   => LibXC Density Thresholds  <==

    XC_HYB_GGA_XC_B3LYP:  1.00E-15 

   => Molecular Quadrature <=

    Radial Scheme          =       TREUTLER
    Pruning Scheme         =           NONE
    Nuclear Scheme         =       TREUTLER

    Blocking Scheme        =         OCTREE
    BS radius alpha        =              1
    Pruning alpha          =              1
    Radial Points          =             75
    Spherical Points       =            302
    Total Points           =          42682
    Total Blocks           =            399
    Max Points             =            256
    Max Functions          =             32
    Weights Tolerance      =       1.00E-15


  -Total Gradient:
     Atom            X                  Y                   Z
    ------   -----------------  -----------------  -----------------
       1        0.000000000000     0.000000000000    -1.112991181708
       2        0.000000000000    -0.000000000000     1.112956713482


*** tstop() called on Joses-MacBook-Pro-2.local at Wed Jul 16 18:48:03 2025
Module time:
	user time   =       0.83 seconds =       0.01 minutes
	system time =       1.87 seconds =       0.03 minutes
	total time  =          1 seconds =       0.02 minutes
Total time:
	user time   =       4.17 seconds =       0.07 minutes
	system time =       7.88 seconds =       0.13 minutes
	total time  =          2 seconds =       0.03 minutes

    			-----------------------------------------

    			 OPTKING 3.0: for geometry optimizations 

    			     By R.A. King, Bethel University     

    			        with contributions from          

    			    A.V. Copan, J. Cayton, A. Heide      

    			-----------------------------------------

    
	                            ===> Fragment 1 <== 

	 Z (Atomic Numbers)          Masses                          Geom                  
	       4.000000             9.012183          0.00000000  0.00000000  1.85037987   
	      18.000000            39.962383          0.00000000  0.00000000 -0.41729148   

	 - Coordinate -           - BOHR/RAD -       - ANG/DEG -
	 R(1,2)           =         2.267671           1.200000


	        --- Internal Coordinate Step in ANG or DEG, aJ/ANG or AJ/DEG ---
	-------------------------------------------------------------------------------
	           Coordinate      Previous         Force          Change          New 
	           ----------      --------        ------          ------        ------
	               R(1,2)       1.20000        9.16948        0.13206       1.33206
	-------------------------------------------------------------------------------

	                                 ==> Convergence Check <==                                  
    
	Measures of convergence in internal coordinates in au.
    
	Criteria marked as inactive (o), active & met (*), and active & unmet ( ).

	----------------------------------------------------------------------------------------------
	   Step    Total Energy     Delta E     Max Force     RMS Force      Max Disp      RMS Disp   
	----------------------------------------------------------------------------------------------
	  Convergence Criteria     1.00e-06 *    3.00e-04 *             o    1.20e-03 *             o
	----------------------------------------------------------------------------------------------
	     1    -541.64716582   -5.42e+02      1.11e+00      1.11e+00 o    2.50e-01      2.50e-01 o  ~
	----------------------------------------------------------------------------------------------

Next Geometry in Ang 
	Fragment 1 (Ang)

	   Be   0.0000000000   0.0000000000   1.0452064207
	   Ar   0.0000000000   0.0000000000  -0.2868487065


    Structure for next step:
    Molecular point group: c2v
    Full point group: C_inf_v

    Geometry (in Angstrom), charge = 0, multiplicity = 3:

    BE           0.000000000000     0.000000000000     1.086933514217
    AR           0.000000000000     0.000000000000    -0.245121612975


Scratch directory: /tmp/
gradient() will perform analytic gradient computation.
   => Libint2 <=

    Primary   basis highest AM E, G, H:  6, 6, 3
    Auxiliary basis highest AM E, G, H:  7, 7, 4
    Onebody   basis highest AM E, G, H:  -, -, -
    Solid Harmonics ordering:            Gaussian

*** tstart() called on Joses-MacBook-Pro-2.local
*** at Wed Jul 16 18:48:03 2025

   => Loading Basis Set <=

    Name: CC-PVDZ
    Role: ORBITAL
    Keyword: BASIS
    atoms 1 entry BE         line    75 file /Users/joseantoniorodriguesromero/anaconda3/share/psi4/basis/cc-pvdz.gbs 
    atoms 2 entry AR         line   718 file /Users/joseantoniorodriguesromero/anaconda3/share/psi4/basis/cc-pvdz.gbs 


         ---------------------------------------------------------
                                   SCF
               by Justin Turney, Rob Parrish, Andy Simmonett
                          and Daniel G. A. Smith
                              UKS Reference
                        1 Threads,    500 MiB Core
         ---------------------------------------------------------

  ==> Geometry <==

    Molecular point group: c2v
    Full point group: C_inf_v

    Geometry (in Angstrom), charge = 0, multiplicity = 3:

       Center              X                  Y                   Z               Mass       
    ------------   -----------------  -----------------  -----------------  -----------------
         BE           0.000000000000     0.000000000000     1.086933514217     9.012183065000
         AR           0.000000000000     0.000000000000    -0.245121612975    39.962383123700

  Running in c2v symmetry.

  Rotational constants: A = ************  B =      1.29194  C =      1.29194 [cm^-1]
  Rotational constants: A = ************  B =  38731.29481  C =  38731.29481 [MHz]
  Nuclear repulsion =   28.602989764067949

  Charge       = 0
  Multiplicity = 3
  Electrons    = 22
  Nalpha       = 12
  Nbeta        = 10

  ==> Algorithm <==

  SCF Algorithm Type is DF.
  DIIS enabled.
  MOM disabled.
  Fractional occupation disabled.
  Guess Type is READ.
  Energy threshold   = 1.00e-08
  Density threshold  = 1.00e-08
  Integral threshold = 1.00e-12

  ==> Primary Basis <==

  Basis Set: CC-PVDZ
    Blend: CC-PVDZ
    Number of shells: 14
    Number of basis functions: 32
    Number of Cartesian functions: 34
    Spherical Harmonics?: true
    Max angular momentum: 2

  ==> DFT Potential <==

   => LibXC <=

    Version 6.2.2
    S. Lehtola, C. Steigemann, M. J.T. Oliveira, and M. A.L. Marques.,  SoftwareX 7, 1–5 (2018) (10.1016/j.softx.2017.11.002)

   => Composite Functional: B3LYP <= 

    B3LYP Hyb-GGA Exchange-Correlation Functional

    P. J. Stephens, F. J. Devlin, C. F. Chabalowski, and M. J. Frisch.,  J. Phys. Chem. 98, 11623 (1994) (10.1021/j100096a001)

    Deriv               =              1
    GGA                 =           TRUE
    Meta                =          FALSE

    Exchange Hybrid     =           TRUE
    MP2 Hybrid          =          FALSE

   => Exchange Functionals <=

    0.0800   Slater exchange
    0.7200         Becke 88

   => Exact (HF) Exchange <=

    0.2000               HF 

   => Correlation Functionals <=

    0.1900   Vosko, Wilk & Nusair (VWN5_RPA)
    0.8100   Lee, Yang & Parr

   => LibXC Density Thresholds  <==

    XC_HYB_GGA_XC_B3LYP:  1.00E-15 

   => Molecular Quadrature <=

    Radial Scheme          =       TREUTLER
    Pruning Scheme         =           NONE
    Nuclear Scheme         =       TREUTLER

    Blocking Scheme        =         OCTREE
    BS radius alpha        =              1
    Pruning alpha          =              1
    Radial Points          =             75
    Spherical Points       =            302
    Total Points           =          42708
    Total Blocks           =            396
    Max Points             =            256
    Max Functions          =             32
    Weights Tolerance      =       1.00E-15

   => Loading Basis Set <=

    Name: (CC-PVDZ AUX)
    Role: JKFIT
    Keyword: DF_BASIS_SCF
    atoms 1 entry BE         line    96 file /Users/joseantoniorodriguesromero/anaconda3/share/psi4/basis/def2-universal-jkfit.gbs 
    atoms 2 entry AR         line   741 file /Users/joseantoniorodriguesromero/anaconda3/share/psi4/basis/cc-pvdz-jkfit.gbs 

   => Loading Basis Set <=

    Name: CC-PVDZ
    Role: ORBITAL
    Keyword: BASIS
    atoms 1 entry BE         line    75 file /Users/joseantoniorodriguesromero/anaconda3/share/psi4/basis/cc-pvdz.gbs 
    atoms 2 entry AR         line   718 file /Users/joseantoniorodriguesromero/anaconda3/share/psi4/basis/cc-pvdz.gbs 

  Reading orbitals from file /tmp/triplet_BeAr.default.68527.180.npy, no projection.

  ==> Integral Setup <==

  DFHelper Memory: AOs need 0.002 GiB; user supplied 0.328 GiB. 
  Using in-core AOs.

  ==> MemDFJK: Density-Fitted J/K Matrices <==

    J tasked:                   Yes
    K tasked:                   Yes
    wK tasked:                   No
    OpenMP threads:               1
    Memory [MiB]:               336
    Algorithm:                 Core
    Schwarz Cutoff:           1E-12
    Mask sparsity (%):       0.0000
    Fitting Condition:        1E-10

   => Auxiliary Basis Set <=

  Basis Set: (CC-PVDZ AUX)
    Blend: CC-PVDZ-JKFIT + DEF2-UNIVERSAL-JKFIT
    Number of shells: 53
    Number of basis functions: 163
    Number of Cartesian functions: 190
    Spherical Harmonics?: true
    Max angular momentum: 3

  Cached 100.0% of DFT collocation blocks in 0.038 [GiB].

  Minimum eigenvalue in the overlap matrix is 4.2781142023E-03.
  Reciprocal condition number of the overlap matrix is 1.3624541669E-03.
    Using symmetric orthogonalization.

  ==> Pre-Iterations <==

  SCF Guess: Orbitals guess was supplied from a previous computation.

   -------------------------------------------------------
    Irrep   Nso     Nmo     Nalpha   Nbeta   Ndocc  Nsocc
   -------------------------------------------------------
     A1        16      16       7       6       6       1
     A2         2       2       0       0       0       0
     B1         7       7       2       2       2       0
     B2         7       7       3       2       2       1
   -------------------------------------------------------
    Total      32      32      12      10      10       2
   -------------------------------------------------------

  ==> Iterations <==

                           Total Energy        Delta E     RMS |[F,P]|

   @DF-UKS iter   0:  -541.88285541797154   -5.41883e+02   3.53109e-02 
   @DF-UKS iter   1:  -541.85353679159743    2.93186e-02   3.95758e-03 DIIS/ADIIS
   @DF-UKS iter   2:  -541.85587999683980   -2.34321e-03   3.04919e-03 DIIS/ADIIS/DAMP=1%
   @DF-UKS iter   3:  -541.86019322974892   -4.31323e-03   1.87432e-04 DIIS/ADIIS/DAMP=1%
   @DF-UKS iter   4:  -541.85800469019500    2.18854e-03   5.48597e-05 DIIS/DAMP=1%
   @DF-UKS iter   5:  -541.85777529340010    2.29397e-04   1.74329e-05 DIIS/DAMP=1%
   @DF-UKS iter   6:  -541.85782273840982   -4.74450e-05   1.21449e-06 DIIS/DAMP=1%
   @DF-UKS iter   7:  -541.85780823038522    1.45080e-05   2.43849e-07 DIIS/DAMP=1%
   @DF-UKS iter   8:  -541.85780963195270   -1.40157e-06   1.48433e-08 DIIS/DAMP=1%
   @DF-UKS iter   9:  -541.85780946822456    1.63728e-07   1.49654e-09 DIIS/DAMP=1%
   @DF-UKS iter  10:  -541.85780946019815    8.02640e-09   1.91407e-10 DIIS/DAMP=1%
  Energy and wave function converged.


  ==> Post-Iterations <==

   Electrons on quadrature grid:
      Nalpha   =   12.0000015764 ; deviation = 1.576e-06
      Nbeta    =   10.0000015533 ; deviation = 1.553e-06
      Ntotal   =   22.0000031297 ; deviation = 3.130e-06 

   @Spin Contamination Metric:   5.875535976E-04
   @S^2 Expected:                2.000000000E+00
   @S^2 Observed:                2.000587554E+00
   @S   Expected:                1.000000000E+00
   @S   Observed:                1.000000000E+00

    Orbital Energies [Eh]
    ---------------------

    Alpha Occupied:                                                       

       1A1  -115.215458     2A1   -11.271238     3A1    -8.822391  
       1B1    -8.818294     1B2    -8.816592     4A1    -4.068281  
       5A1    -1.150048     6A1    -0.634519     2B1    -0.581659  
       2B2    -0.579455     7A1    -0.186767     3B2    -0.086220  

    Alpha Virtual:                                                        

       3B1    -0.022334     8A1     0.037571     4B2     0.122253  
       4B1     0.132862     9A1     0.198475    10A1     0.375566  
       1A2     0.376238    11A1     0.385079    12A1     0.426160  
       5B2     0.446665     5B1     0.450990     6B1     0.587583  
       6B2     0.591191    13A1     0.796303     2A2     0.802974  
      14A1     0.805134    15A1     1.108977     7B2     1.129601  
       7B1     1.131299    16A1     1.984523  

    Beta Occupied:                                                        

       1A1  -115.214465     2A1   -11.270167     3A1    -8.821507  
       1B1    -8.817793     1B2    -8.814016     4A1    -4.053238  
       5A1    -1.142723     6A1    -0.623599     2B1    -0.578951  
       2B2    -0.563705  

    Beta Virtual:                                                         

       7A1    -0.049590     3B1     0.014137     3B2     0.037484  
       8A1     0.056899     4B1     0.145880     4B2     0.162848  
       9A1     0.253816    10A1     0.390089    11A1     0.424486  
       1A2     0.425453    12A1     0.486887     5B1     0.491729  
       5B2     0.508535     6B1     0.605696     6B2     0.623194  
      13A1     0.805459     2A2     0.826757    14A1     0.826992  
      15A1     1.137843     7B1     1.150090     7B2     1.166704  
      16A1     2.001411  

    Final Occupation by Irrep:
             A1    A2    B1    B2 
    DOCC [     6,    0,    2,    2 ]
    SOCC [     1,    0,    0,    1 ]
    NA   [     7,    0,    2,    3 ]
    NB   [     6,    0,    2,    2 ]

  @DF-UKS Final Energy:  -541.85780946019815

   => Energetics <=

    Nuclear Repulsion Energy =             28.6029897640679494
    One-Electron Energy =                -801.3648310877862286
    Two-Electron Energy =                 258.2310521131385599
    DFT Exchange-Correlation Energy =     -27.3270202496183856
    Empirical Dispersion Energy =           0.0000000000000000
    VV10 Nonlocal Energy =                  0.0000000000000000
    Total Energy =                       -541.8578094601981547

  UHF NO Occupations:
  HONO-2 :    2 B2 1.9998575
  HONO-1 :    3 B2 1.0000000
  HONO-0 :    7 A1 1.0000000
  LUNO+0 :    4 B2 0.0001425
  LUNO+1 :    3 B1 0.0000797
  LUNO+2 :    8 A1 0.0000623
  LUNO+3 :    9 A1 0.0000089


Computation Completed


Properties will be evaluated at   0.000000,   0.000000,   0.000000 [a0]

Properties computed using the SCF density matrix


 Multipole Moments:

 ------------------------------------------------------------------------------------
     Multipole            Electronic (a.u.)      Nuclear  (a.u.)        Total (a.u.)
 ------------------------------------------------------------------------------------

 L = 1.  Multiply by 2.5417464519 to convert [e a0] to [Debye]
 Dipole X            :          0.0000000            0.0000000            0.0000000
 Dipole Y            :          0.0000000            0.0000000            0.0000000
 Dipole Z            :         -1.6258928           -0.1218023           -1.7476951
 Magnitude           :                                                    1.7476951

 ------------------------------------------------------------------------------------

*** tstop() called on Joses-MacBook-Pro-2.local at Wed Jul 16 18:48:04 2025
Module time:
	user time   =       5.46 seconds =       0.09 minutes
	system time =       3.79 seconds =       0.06 minutes
	total time  =          1 seconds =       0.02 minutes
Total time:
	user time   =       9.67 seconds =       0.16 minutes
	system time =      11.89 seconds =       0.20 minutes
	total time  =          3 seconds =       0.05 minutes

*** tstart() called on Joses-MacBook-Pro-2.local
*** at Wed Jul 16 18:48:04 2025


         ------------------------------------------------------------
                                   SCF GRAD                          
                          Rob Parrish, Justin Turney,                
                       Andy Simmonett, and Alex Sokolov              
         ------------------------------------------------------------

  ==> Geometry <==

    Molecular point group: c2v
    Full point group: C_inf_v

    Geometry (in Angstrom), charge = 0, multiplicity = 3:

       Center              X                  Y                   Z               Mass       
    ------------   -----------------  -----------------  -----------------  -----------------
         BE           0.000000000000     0.000000000000     1.086933514217     9.012183065000
         AR           0.000000000000     0.000000000000    -0.245121612975    39.962383123700

  Nuclear repulsion =   28.602989764067949

  ==> Basis Set <==

  Basis Set: CC-PVDZ
    Blend: CC-PVDZ
    Number of shells: 14
    Number of basis functions: 32
    Number of Cartesian functions: 34
    Spherical Harmonics?: true
    Max angular momentum: 2

  ==> DFJKGrad: Density-Fitted SCF Gradients <==

    Gradient:                    1
    J tasked:                  Yes
    K tasked:                  Yes
    wK tasked:                  No
    OpenMP threads:              1
    Integrals threads:           1
    Memory [MiB]:              375
    Schwarz Cutoff:          1E-12
    Fitting Condition:       1E-10

   => Auxiliary Basis Set <=

  Basis Set: (CC-PVDZ AUX)
    Blend: CC-PVDZ-JKFIT + DEF2-UNIVERSAL-JKFIT
    Number of shells: 53
    Number of basis functions: 163
    Number of Cartesian functions: 190
    Spherical Harmonics?: true
    Max angular momentum: 3

  ==> DFT Potential <==

   => LibXC <=

    Version 6.2.2
    S. Lehtola, C. Steigemann, M. J.T. Oliveira, and M. A.L. Marques.,  SoftwareX 7, 1–5 (2018) (10.1016/j.softx.2017.11.002)

   => Composite Functional: B3LYP <= 

    B3LYP Hyb-GGA Exchange-Correlation Functional

    P. J. Stephens, F. J. Devlin, C. F. Chabalowski, and M. J. Frisch.,  J. Phys. Chem. 98, 11623 (1994) (10.1021/j100096a001)

    Deriv               =              1
    GGA                 =           TRUE
    Meta                =          FALSE

    Exchange Hybrid     =           TRUE
    MP2 Hybrid          =          FALSE

   => Exchange Functionals <=

    0.0800   Slater exchange
    0.7200         Becke 88

   => Exact (HF) Exchange <=

    0.2000               HF 

   => Correlation Functionals <=

    0.1900   Vosko, Wilk & Nusair (VWN5_RPA)
    0.8100   Lee, Yang & Parr

   => LibXC Density Thresholds  <==

    XC_HYB_GGA_XC_B3LYP:  1.00E-15 

   => Molecular Quadrature <=

    Radial Scheme          =       TREUTLER
    Pruning Scheme         =           NONE
    Nuclear Scheme         =       TREUTLER

    Blocking Scheme        =         OCTREE
    BS radius alpha        =              1
    Pruning alpha          =              1
    Radial Points          =             75
    Spherical Points       =            302
    Total Points           =          42708
    Total Blocks           =            396
    Max Points             =            256
    Max Functions          =             32
    Weights Tolerance      =       1.00E-15


  -Total Gradient:
     Atom            X                  Y                   Z
    ------   -----------------  -----------------  -----------------
       1       -0.000000000000     0.000000000000    -0.621545952833
       2        0.000000000000    -0.000000000000     0.621498033989


*** tstop() called on Joses-MacBook-Pro-2.local at Wed Jul 16 18:48:04 2025
Module time:
	user time   =       1.52 seconds =       0.03 minutes
	system time =       1.32 seconds =       0.02 minutes
	total time  =          0 seconds =       0.00 minutes
Total time:
	user time   =      11.19 seconds =       0.19 minutes
	system time =      13.22 seconds =       0.22 minutes
	total time  =          3 seconds =       0.05 minutes

    			-----------------------------------------

    			 OPTKING 3.0: for geometry optimizations 

    			     By R.A. King, Bethel University     

    			        with contributions from          

    			    A.V. Copan, J. Cayton, A. Heide      

    			-----------------------------------------

    
	                            ===> Fragment 1 <== 

	 Z (Atomic Numbers)          Masses                          Geom                  
	       4.000000             9.012183          0.00000000  0.00000000  2.05400666   
	      18.000000            39.962383          0.00000000  0.00000000 -0.46321272   

	 - Coordinate -           - BOHR/RAD -       - ANG/DEG -
	 R(1,2)           =         2.517219           1.332055


	        --- Internal Coordinate Step in ANG or DEG, aJ/ANG or AJ/DEG ---
	-------------------------------------------------------------------------------
	           Coordinate      Previous         Force          Change          New 
	           ----------      --------        ------          ------        ------
	               R(1,2)       1.33206        5.12055        0.14541       1.47746
	-------------------------------------------------------------------------------

	                                 ==> Convergence Check <==                                  
    
	Measures of convergence in internal coordinates in au.
    
	Criteria marked as inactive (o), active & met (*), and active & unmet ( ).

	----------------------------------------------------------------------------------------------
	   Step    Total Energy     Delta E     Max Force     RMS Force      Max Disp      RMS Disp   
	----------------------------------------------------------------------------------------------
	  Convergence Criteria     1.00e-06 *    3.00e-04 *             o    1.20e-03 *             o
	----------------------------------------------------------------------------------------------
	     2    -541.85780946   -2.11e-01      6.22e-01      6.22e-01 o    2.75e-01      2.75e-01 o  ~
	----------------------------------------------------------------------------------------------

Next Geometry in Ang 
	Fragment 1 (Ang)

	   Be   0.0000000000   0.0000000000   1.1596371238
	   Ar   0.0000000000   0.0000000000  -0.3178252225


    Structure for next step:
    Molecular point group: c2v
    Full point group: C_inf_v

    Geometry (in Angstrom), charge = 0, multiplicity = 3:

    BE           0.000000000000     0.000000000000     1.205583243081
    AR           0.000000000000     0.000000000000    -0.271879103234


Scratch directory: /tmp/
gradient() will perform analytic gradient computation.
   => Libint2 <=

    Primary   basis highest AM E, G, H:  6, 6, 3
    Auxiliary basis highest AM E, G, H:  7, 7, 4
    Onebody   basis highest AM E, G, H:  -, -, -
    Solid Harmonics ordering:            Gaussian

*** tstart() called on Joses-MacBook-Pro-2.local
*** at Wed Jul 16 18:48:04 2025

   => Loading Basis Set <=

    Name: CC-PVDZ
    Role: ORBITAL
    Keyword: BASIS
    atoms 1 entry BE         line    75 file /Users/joseantoniorodriguesromero/anaconda3/share/psi4/basis/cc-pvdz.gbs 
    atoms 2 entry AR         line   718 file /Users/joseantoniorodriguesromero/anaconda3/share/psi4/basis/cc-pvdz.gbs 


         ---------------------------------------------------------
                                   SCF
               by Justin Turney, Rob Parrish, Andy Simmonett
                          and Daniel G. A. Smith
                              UKS Reference
                        1 Threads,    500 MiB Core
         ---------------------------------------------------------

  ==> Geometry <==

    Molecular point group: c2v
    Full point group: C_inf_v

    Geometry (in Angstrom), charge = 0, multiplicity = 3:

       Center              X                  Y                   Z               Mass       
    ------------   -----------------  -----------------  -----------------  -----------------
         BE           0.000000000000     0.000000000000     1.205583243081     9.012183065000
         AR           0.000000000000     0.000000000000    -0.271879103234    39.962383123700

  Running in c2v symmetry.

  Rotational constants: A = ************  B =      1.05015  C =      1.05015 [cm^-1]
  Rotational constants: A = ************  B =  31482.81591  C =  31482.81591 [MHz]
  Nuclear repulsion =   25.787973049377531

  Charge       = 0
  Multiplicity = 3
  Electrons    = 22
  Nalpha       = 12
  Nbeta        = 10

  ==> Algorithm <==

  SCF Algorithm Type is DF.
  DIIS enabled.
  MOM disabled.
  Fractional occupation disabled.
  Guess Type is READ.
  Energy threshold   = 1.00e-08
  Density threshold  = 1.00e-08
  Integral threshold = 1.00e-12

  ==> Primary Basis <==

  Basis Set: CC-PVDZ
    Blend: CC-PVDZ
    Number of shells: 14
    Number of basis functions: 32
    Number of Cartesian functions: 34
    Spherical Harmonics?: true
    Max angular momentum: 2

  ==> DFT Potential <==

   => LibXC <=

    Version 6.2.2
    S. Lehtola, C. Steigemann, M. J.T. Oliveira, and M. A.L. Marques.,  SoftwareX 7, 1–5 (2018) (10.1016/j.softx.2017.11.002)

   => Composite Functional: B3LYP <= 

    B3LYP Hyb-GGA Exchange-Correlation Functional

    P. J. Stephens, F. J. Devlin, C. F. Chabalowski, and M. J. Frisch.,  J. Phys. Chem. 98, 11623 (1994) (10.1021/j100096a001)

    Deriv               =              1
    GGA                 =           TRUE
    Meta                =          FALSE

    Exchange Hybrid     =           TRUE
    MP2 Hybrid          =          FALSE

   => Exchange Functionals <=

    0.0800   Slater exchange
    0.7200         Becke 88

   => Exact (HF) Exchange <=

    0.2000               HF 

   => Correlation Functionals <=

    0.1900   Vosko, Wilk & Nusair (VWN5_RPA)
    0.8100   Lee, Yang & Parr

   => LibXC Density Thresholds  <==

    XC_HYB_GGA_XC_B3LYP:  1.00E-15 

   => Molecular Quadrature <=

    Radial Scheme          =       TREUTLER
    Pruning Scheme         =           NONE
    Nuclear Scheme         =       TREUTLER

    Blocking Scheme        =         OCTREE
    BS radius alpha        =              1
    Pruning alpha          =              1
    Radial Points          =             75
    Spherical Points       =            302
    Total Points           =          42715
    Total Blocks           =            397
    Max Points             =            254
    Max Functions          =             32
    Weights Tolerance      =       1.00E-15

   => Loading Basis Set <=

    Name: (CC-PVDZ AUX)
    Role: JKFIT
    Keyword: DF_BASIS_SCF
    atoms 1 entry BE         line    96 file /Users/joseantoniorodriguesromero/anaconda3/share/psi4/basis/def2-universal-jkfit.gbs 
    atoms 2 entry AR         line   741 file /Users/joseantoniorodriguesromero/anaconda3/share/psi4/basis/cc-pvdz-jkfit.gbs 

   => Loading Basis Set <=

    Name: CC-PVDZ
    Role: ORBITAL
    Keyword: BASIS
    atoms 1 entry BE         line    75 file /Users/joseantoniorodriguesromero/anaconda3/share/psi4/basis/cc-pvdz.gbs 
    atoms 2 entry AR         line   718 file /Users/joseantoniorodriguesromero/anaconda3/share/psi4/basis/cc-pvdz.gbs 

  Reading orbitals from file /tmp/triplet_BeAr.default.68527.180.npy, no projection.

  ==> Integral Setup <==

  DFHelper Memory: AOs need 0.002 GiB; user supplied 0.328 GiB. 
  Using in-core AOs.

  ==> MemDFJK: Density-Fitted J/K Matrices <==

    J tasked:                   Yes
    K tasked:                   Yes
    wK tasked:                   No
    OpenMP threads:               1
    Memory [MiB]:               336
    Algorithm:                 Core
    Schwarz Cutoff:           1E-12
    Mask sparsity (%):       0.0000
    Fitting Condition:        1E-10

   => Auxiliary Basis Set <=

  Basis Set: (CC-PVDZ AUX)
    Blend: CC-PVDZ-JKFIT + DEF2-UNIVERSAL-JKFIT
    Number of shells: 53
    Number of basis functions: 163
    Number of Cartesian functions: 190
    Spherical Harmonics?: true
    Max angular momentum: 3

  Cached 100.0% of DFT collocation blocks in 0.038 [GiB].

  Minimum eigenvalue in the overlap matrix is 7.4364638363E-03.
  Reciprocal condition number of the overlap matrix is 2.3854014226E-03.
    Using symmetric orthogonalization.

  ==> Pre-Iterations <==

  SCF Guess: Orbitals guess was supplied from a previous computation.

   -------------------------------------------------------
    Irrep   Nso     Nmo     Nalpha   Nbeta   Ndocc  Nsocc
   -------------------------------------------------------
     A1        16      16       7       6       6       1
     A2         2       2       0       0       0       0
     B1         7       7       2       2       2       0
     B2         7       7       3       2       2       1
   -------------------------------------------------------
    Total      32      32      12      10      10       2
   -------------------------------------------------------

  ==> Iterations <==

                           Total Energy        Delta E     RMS |[F,P]|

   @DF-UKS iter   0:  -541.98575268457569   -5.41986e+02   3.00841e-02 
   @DF-UKS iter   1:  -541.98212228255784    3.63040e-03   2.11057e-03 DIIS/ADIIS
   @DF-UKS iter   2:  -541.98299834697048   -8.76064e-04   1.58373e-03 DIIS/ADIIS/DAMP=1%
   @DF-UKS iter   3:  -541.98427236871532   -1.27402e-03   1.34026e-04 DIIS/ADIIS/DAMP=1%
   @DF-UKS iter   4:  -541.98366934401611    6.03025e-04   2.93897e-05 DIIS/DAMP=1%
   @DF-UKS iter   5:  -541.98352597614212    1.43368e-04   1.30616e-05 DIIS/DAMP=1%
   @DF-UKS iter   6:  -541.98357338437154   -4.74082e-05   6.74111e-07 DIIS/DAMP=1%
   @DF-UKS iter   7:  -541.98356108462235    1.22997e-05   1.31925e-07 DIIS/DAMP=1%
   @DF-UKS iter   8:  -541.98356167088343   -5.86261e-07   7.89116e-09 DIIS/DAMP=1%
   @DF-UKS iter   9:  -541.98356154966928    1.21214e-07   7.37786e-10 DIIS/DAMP=1%
   @DF-UKS iter  10:  -541.98356155480315   -5.13387e-09   5.61490e-11 DIIS/DAMP=1%
  Energy and wave function converged.


  ==> Post-Iterations <==

   Electrons on quadrature grid:
      Nalpha   =   12.0000007122 ; deviation = 7.122e-07
      Nbeta    =   10.0000007263 ; deviation = 7.263e-07
      Ntotal   =   22.0000014385 ; deviation = 1.438e-06 

   @Spin Contamination Metric:   4.866093595E-04
   @S^2 Expected:                2.000000000E+00
   @S^2 Observed:                2.000486609E+00
   @S   Expected:                1.000000000E+00
   @S   Observed:                1.000000000E+00

    Orbital Energies [Eh]
    ---------------------

    Alpha Occupied:                                                       

       1A1  -115.217081     2A1   -11.265345     3A1    -8.816614  
       1B1    -8.813359     1B2    -8.811985     4A1    -4.060765  
       5A1    -1.131990     6A1    -0.625190     2B1    -0.563747  
       2B2    -0.561595     7A1    -0.189186     3B2    -0.095273  

    Alpha Virtual:                                                        

       3B1    -0.030429     8A1     0.037559     4B2     0.138208  
       4B1     0.150659     9A1     0.200799    10A1     0.315034  
      11A1     0.396648     1A2     0.398350    12A1     0.405977  
       5B2     0.436809     5B1     0.441053     6B1     0.568315  
       6B2     0.572458     2A2     0.781133    13A1     0.782215  
      14A1     0.803092    15A1     1.002275     7B2     1.074730  
       7B1     1.076649    16A1     1.663539  

    Beta Occupied:                                                        

       1A1  -115.216163     2A1   -11.264367     3A1    -8.815730  
       1B1    -8.812856     1B2    -8.809739     4A1    -4.045621  
       5A1    -1.125877     6A1    -0.616019     2B1    -0.561669  
       2B2    -0.549015  

    Beta Virtual:                                                         

       7A1    -0.049643     3B1     0.007576     3B2     0.031981  
       8A1     0.057541     4B1     0.164718     4B2     0.182810  
       9A1     0.256610    10A1     0.329817    11A1     0.441390  
       1A2     0.455285    12A1     0.461226     5B1     0.485703  
       5B2     0.503042     6B1     0.580300     6B2     0.595367  
       2A2     0.801765    13A1     0.801797    14A1     0.813650  
      15A1     1.033482     7B1     1.096166     7B2     1.111817  
      16A1     1.675508  

    Final Occupation by Irrep:
             A1    A2    B1    B2 
    DOCC [     6,    0,    2,    2 ]
    SOCC [     1,    0,    0,    1 ]
    NA   [     7,    0,    2,    3 ]
    NB   [     6,    0,    2,    2 ]

  @DF-UKS Final Energy:  -541.98356155480315

   => Energetics <=

    Nuclear Repulsion Energy =             25.7879730493775305
    One-Electron Energy =                -796.1900748205812306
    Two-Electron Energy =                 255.6844394740622874
    DFT Exchange-Correlation Energy =     -27.2658992576617152
    Empirical Dispersion Energy =           0.0000000000000000
    VV10 Nonlocal Energy =                  0.0000000000000000
    Total Energy =                       -541.9835615548031456

  UHF NO Occupations:
  HONO-2 :    2 B2 1.9998946
  HONO-1 :    7 A1 1.0000000
  HONO-0 :    3 B2 1.0000000
  LUNO+0 :    4 B2 0.0001054
  LUNO+1 :    8 A1 0.0000717
  LUNO+2 :    3 B1 0.0000605
  LUNO+3 :    9 A1 0.0000054


Computation Completed


Properties will be evaluated at   0.000000,   0.000000,   0.000000 [a0]

Properties computed using the SCF density matrix


 Multipole Moments:

 ------------------------------------------------------------------------------------
     Multipole            Electronic (a.u.)      Nuclear  (a.u.)        Total (a.u.)
 ------------------------------------------------------------------------------------

 L = 1.  Multiply by 2.5417464519 to convert [e a0] to [Debye]
 Dipole X            :          0.0000000            0.0000000            0.0000000
 Dipole Y            :          0.0000000            0.0000000            0.0000000
 Dipole Z            :         -1.5760419           -0.1350982           -1.7111401
 Magnitude           :                                                    1.7111401

 ------------------------------------------------------------------------------------

*** tstop() called on Joses-MacBook-Pro-2.local at Wed Jul 16 18:48:05 2025
Module time:
	user time   =       7.57 seconds =       0.13 minutes
	system time =       2.06 seconds =       0.03 minutes
	total time  =          1 seconds =       0.02 minutes
Total time:
	user time   =      18.92 seconds =       0.32 minutes
	system time =      15.41 seconds =       0.26 minutes
	total time  =          4 seconds =       0.07 minutes

*** tstart() called on Joses-MacBook-Pro-2.local
*** at Wed Jul 16 18:48:05 2025


         ------------------------------------------------------------
                                   SCF GRAD                          
                          Rob Parrish, Justin Turney,                
                       Andy Simmonett, and Alex Sokolov              
         ------------------------------------------------------------

  ==> Geometry <==

    Molecular point group: c2v
    Full point group: C_inf_v

    Geometry (in Angstrom), charge = 0, multiplicity = 3:

       Center              X                  Y                   Z               Mass       
    ------------   -----------------  -----------------  -----------------  -----------------
         BE           0.000000000000     0.000000000000     1.205583243081     9.012183065000
         AR           0.000000000000     0.000000000000    -0.271879103234    39.962383123700

  Nuclear repulsion =   25.787973049377531

  ==> Basis Set <==

  Basis Set: CC-PVDZ
    Blend: CC-PVDZ
    Number of shells: 14
    Number of basis functions: 32
    Number of Cartesian functions: 34
    Spherical Harmonics?: true
    Max angular momentum: 2

  ==> DFJKGrad: Density-Fitted SCF Gradients <==

    Gradient:                    1
    J tasked:                  Yes
    K tasked:                  Yes
    wK tasked:                  No
    OpenMP threads:              1
    Integrals threads:           1
    Memory [MiB]:              375
    Schwarz Cutoff:          1E-12
    Fitting Condition:       1E-10

   => Auxiliary Basis Set <=

  Basis Set: (CC-PVDZ AUX)
    Blend: CC-PVDZ-JKFIT + DEF2-UNIVERSAL-JKFIT
    Number of shells: 53
    Number of basis functions: 163
    Number of Cartesian functions: 190
    Spherical Harmonics?: true
    Max angular momentum: 3

  ==> DFT Potential <==

   => LibXC <=

    Version 6.2.2
    S. Lehtola, C. Steigemann, M. J.T. Oliveira, and M. A.L. Marques.,  SoftwareX 7, 1–5 (2018) (10.1016/j.softx.2017.11.002)

   => Composite Functional: B3LYP <= 

    B3LYP Hyb-GGA Exchange-Correlation Functional

    P. J. Stephens, F. J. Devlin, C. F. Chabalowski, and M. J. Frisch.,  J. Phys. Chem. 98, 11623 (1994) (10.1021/j100096a001)

    Deriv               =              1
    GGA                 =           TRUE
    Meta                =          FALSE

    Exchange Hybrid     =           TRUE
    MP2 Hybrid          =          FALSE

   => Exchange Functionals <=

    0.0800   Slater exchange
    0.7200         Becke 88

   => Exact (HF) Exchange <=

    0.2000               HF 

   => Correlation Functionals <=

    0.1900   Vosko, Wilk & Nusair (VWN5_RPA)
    0.8100   Lee, Yang & Parr

   => LibXC Density Thresholds  <==

    XC_HYB_GGA_XC_B3LYP:  1.00E-15 

   => Molecular Quadrature <=

    Radial Scheme          =       TREUTLER
    Pruning Scheme         =           NONE
    Nuclear Scheme         =       TREUTLER

    Blocking Scheme        =         OCTREE
    BS radius alpha        =              1
    Pruning alpha          =              1
    Radial Points          =             75
    Spherical Points       =            302
    Total Points           =          42715
    Total Blocks           =            397
    Max Points             =            254
    Max Functions          =             32
    Weights Tolerance      =       1.00E-15


  -Total Gradient:
     Atom            X                  Y                   Z
    ------   -----------------  -----------------  -----------------
       1       -0.000000000000     0.000000000000    -0.325164228241
       2       -0.000000000000     0.000000000000     0.325129358567


*** tstop() called on Joses-MacBook-Pro-2.local at Wed Jul 16 18:48:06 2025
Module time:
	user time   =       1.15 seconds =       0.02 minutes
	system time =       1.56 seconds =       0.03 minutes
	total time  =          1 seconds =       0.02 minutes
Total time:
	user time   =      20.07 seconds =       0.33 minutes
	system time =      16.99 seconds =       0.28 minutes
	total time  =          5 seconds =       0.08 minutes

    			-----------------------------------------

    			 OPTKING 3.0: for geometry optimizations 

    			     By R.A. King, Bethel University     

    			        with contributions from          

    			    A.V. Copan, J. Cayton, A. Heide      

    			-----------------------------------------

    
	                            ===> Fragment 1 <== 

	 Z (Atomic Numbers)          Masses                          Geom                  
	       4.000000             9.012183          0.00000000  0.00000000  2.27822215   
	      18.000000            39.962383          0.00000000  0.00000000 -0.51377704   

	 - Coordinate -           - BOHR/RAD -       - ANG/DEG -
	 R(1,2)           =         2.791999           1.477462


	        --- Internal Coordinate Step in ANG or DEG, aJ/ANG or AJ/DEG ---
	-------------------------------------------------------------------------------
	           Coordinate      Previous         Force          Change          New 
	           ----------      --------        ------          ------        ------
	               R(1,2)       1.47746        2.67879        0.14718       1.62464
	-------------------------------------------------------------------------------

	                                 ==> Convergence Check <==                                  
    
	Measures of convergence in internal coordinates in au.
    
	Criteria marked as inactive (o), active & met (*), and active & unmet ( ).

	----------------------------------------------------------------------------------------------
	   Step    Total Energy     Delta E     Max Force     RMS Force      Max Disp      RMS Disp   
	----------------------------------------------------------------------------------------------
	  Convergence Criteria     1.00e-06 *    3.00e-04 *             o    1.20e-03 *             o
	----------------------------------------------------------------------------------------------
	     3    -541.98356155   -1.26e-01      3.25e-01      3.25e-01 o    2.78e-01      2.78e-01 o  ~
	----------------------------------------------------------------------------------------------

Next Geometry in Ang 
	Fragment 1 (Ang)

	   Be   0.0000000000   0.0000000000   1.2791745253
	   Ar   0.0000000000   0.0000000000  -0.3454703855


    Structure for next step:
    Molecular point group: c2v
    Full point group: C_inf_v

    Geometry (in Angstrom), charge = 0, multiplicity = 3:

    BE           0.000000000000     0.000000000000     1.325681622479
    AR           0.000000000000     0.000000000000    -0.298963288318


Scratch directory: /tmp/
gradient() will perform analytic gradient computation.
   => Libint2 <=

    Primary   basis highest AM E, G, H:  6, 6, 3
    Auxiliary basis highest AM E, G, H:  7, 7, 4
    Onebody   basis highest AM E, G, H:  -, -, -
    Solid Harmonics ordering:            Gaussian

*** tstart() called on Joses-MacBook-Pro-2.local
*** at Wed Jul 16 18:48:06 2025

   => Loading Basis Set <=

    Name: CC-PVDZ
    Role: ORBITAL
    Keyword: BASIS
    atoms 1 entry BE         line    75 file /Users/joseantoniorodriguesromero/anaconda3/share/psi4/basis/cc-pvdz.gbs 
    atoms 2 entry AR         line   718 file /Users/joseantoniorodriguesromero/anaconda3/share/psi4/basis/cc-pvdz.gbs 


         ---------------------------------------------------------
                                   SCF
               by Justin Turney, Rob Parrish, Andy Simmonett
                          and Daniel G. A. Smith
                              UKS Reference
                        1 Threads,    500 MiB Core
         ---------------------------------------------------------

  ==> Geometry <==

    Molecular point group: c2v
    Full point group: C_inf_v

    Geometry (in Angstrom), charge = 0, multiplicity = 3:

       Center              X                  Y                   Z               Mass       
    ------------   -----------------  -----------------  -----------------  -----------------
         BE           0.000000000000     0.000000000000     1.325681622479     9.012183065000
         AR           0.000000000000     0.000000000000    -0.298963288318    39.962383123700

  Running in c2v symmetry.

  Rotational constants: A = ************  B =      0.86850  C =      0.86850 [cm^-1]
  Rotational constants: A = ************  B =  26036.91373  C =  26036.91373 [MHz]
  Nuclear repulsion =   23.451745618391211

  Charge       = 0
  Multiplicity = 3
  Electrons    = 22
  Nalpha       = 12
  Nbeta        = 10

  ==> Algorithm <==

  SCF Algorithm Type is DF.
  DIIS enabled.
  MOM disabled.
  Fractional occupation disabled.
  Guess Type is READ.
  Energy threshold   = 1.00e-08
  Density threshold  = 1.00e-08
  Integral threshold = 1.00e-12

  ==> Primary Basis <==

  Basis Set: CC-PVDZ
    Blend: CC-PVDZ
    Number of shells: 14
    Number of basis functions: 32
    Number of Cartesian functions: 34
    Spherical Harmonics?: true
    Max angular momentum: 2

  ==> DFT Potential <==

   => LibXC <=

    Version 6.2.2
    S. Lehtola, C. Steigemann, M. J.T. Oliveira, and M. A.L. Marques.,  SoftwareX 7, 1–5 (2018) (10.1016/j.softx.2017.11.002)

   => Composite Functional: B3LYP <= 

    B3LYP Hyb-GGA Exchange-Correlation Functional

    P. J. Stephens, F. J. Devlin, C. F. Chabalowski, and M. J. Frisch.,  J. Phys. Chem. 98, 11623 (1994) (10.1021/j100096a001)

    Deriv               =              1
    GGA                 =           TRUE
    Meta                =          FALSE

    Exchange Hybrid     =           TRUE
    MP2 Hybrid          =          FALSE

   => Exchange Functionals <=

    0.0800   Slater exchange
    0.7200         Becke 88

   => Exact (HF) Exchange <=

    0.2000               HF 

   => Correlation Functionals <=

    0.1900   Vosko, Wilk & Nusair (VWN5_RPA)
    0.8100   Lee, Yang & Parr

   => LibXC Density Thresholds  <==

    XC_HYB_GGA_XC_B3LYP:  1.00E-15 

   => Molecular Quadrature <=

    Radial Scheme          =       TREUTLER
    Pruning Scheme         =           NONE
    Nuclear Scheme         =       TREUTLER

    Blocking Scheme        =         OCTREE
    BS radius alpha        =              1
    Pruning alpha          =              1
    Radial Points          =             75
    Spherical Points       =            302
    Total Points           =          42734
    Total Blocks           =            398
    Max Points             =            255
    Max Functions          =             32
    Weights Tolerance      =       1.00E-15

   => Loading Basis Set <=

    Name: (CC-PVDZ AUX)
    Role: JKFIT
    Keyword: DF_BASIS_SCF
    atoms 1 entry BE         line    96 file /Users/joseantoniorodriguesromero/anaconda3/share/psi4/basis/def2-universal-jkfit.gbs 
    atoms 2 entry AR         line   741 file /Users/joseantoniorodriguesromero/anaconda3/share/psi4/basis/cc-pvdz-jkfit.gbs 

   => Loading Basis Set <=

    Name: CC-PVDZ
    Role: ORBITAL
    Keyword: BASIS
    atoms 1 entry BE         line    75 file /Users/joseantoniorodriguesromero/anaconda3/share/psi4/basis/cc-pvdz.gbs 
    atoms 2 entry AR         line   718 file /Users/joseantoniorodriguesromero/anaconda3/share/psi4/basis/cc-pvdz.gbs 

  Reading orbitals from file /tmp/triplet_BeAr.default.68527.180.npy, no projection.

  ==> Integral Setup <==

  DFHelper Memory: AOs need 0.002 GiB; user supplied 0.328 GiB. 
  Using in-core AOs.

  ==> MemDFJK: Density-Fitted J/K Matrices <==

    J tasked:                   Yes
    K tasked:                   Yes
    wK tasked:                   No
    OpenMP threads:               1
    Memory [MiB]:               336
    Algorithm:                 Core
    Schwarz Cutoff:           1E-12
    Mask sparsity (%):       0.0000
    Fitting Condition:        1E-10

   => Auxiliary Basis Set <=

  Basis Set: (CC-PVDZ AUX)
    Blend: CC-PVDZ-JKFIT + DEF2-UNIVERSAL-JKFIT
    Number of shells: 53
    Number of basis functions: 163
    Number of Cartesian functions: 190
    Spherical Harmonics?: true
    Max angular momentum: 3

  Cached 100.0% of DFT collocation blocks in 0.038 [GiB].

  Minimum eigenvalue in the overlap matrix is 1.2443873599E-02.
  Reciprocal condition number of the overlap matrix is 4.0332238447E-03.
    Using symmetric orthogonalization.

  ==> Pre-Iterations <==

  SCF Guess: Orbitals guess was supplied from a previous computation.

   -------------------------------------------------------
    Irrep   Nso     Nmo     Nalpha   Nbeta   Ndocc  Nsocc
   -------------------------------------------------------
     A1        16      16       7       6       6       1
     A2         2       2       0       0       0       0
     B1         7       7       2       2       2       0
     B2         7       7       3       2       2       1
   -------------------------------------------------------
    Total      32      32      12      10      10       2
   -------------------------------------------------------

  ==> Iterations <==

                           Total Energy        Delta E     RMS |[F,P]|

   @DF-UKS iter   0:  -542.02882424084407   -5.42029e+02   2.33428e-02 
   @DF-UKS iter   1:  -542.04927722963714   -2.04530e-02   1.17502e-03 DIIS/ADIIS
   @DF-UKS iter   2:  -542.04962367300459   -3.46443e-04   8.60130e-04 DIIS/ADIIS/DAMP=1%
   @DF-UKS iter   3:  -542.04939707434869    2.26599e-04   1.03930e-04 DIIS/ADIIS/DAMP=1%
   @DF-UKS iter   4:  -542.04985053378755   -4.53459e-04   8.83773e-06 DIIS/DAMP=1%
   @DF-UKS iter   5:  -542.04979009011049    6.04437e-05   1.89018e-06 DIIS/DAMP=1%
   @DF-UKS iter   6:  -542.04979902469688   -8.93459e-06   9.20140e-07 DIIS/DAMP=1%
   @DF-UKS iter   7:  -542.04979551733857    3.50736e-06   5.65843e-08 DIIS/DAMP=1%
   @DF-UKS iter   8:  -542.04979632290349   -8.05565e-07   5.38346e-09 DIIS/DAMP=1%
   @DF-UKS iter   9:  -542.04979634688402   -2.39805e-08   4.82979e-10 DIIS/DAMP=1%
   @DF-UKS iter  10:  -542.04979635199982   -5.11579e-09   2.81417e-11 DIIS/DAMP=1%
  Energy and wave function converged.


  ==> Post-Iterations <==

   Electrons on quadrature grid:
      Nalpha   =   11.9999991691 ; deviation = -8.309e-07
      Nbeta    =    9.9999991978 ; deviation = -8.022e-07
      Ntotal   =   21.9999983669 ; deviation = -1.633e-06 

   @Spin Contamination Metric:   4.103224807E-04
   @S^2 Expected:                2.000000000E+00
   @S^2 Observed:                2.000410322E+00
   @S   Expected:                1.000000000E+00
   @S   Observed:                1.000000000E+00

    Orbital Energies [Eh]
    ---------------------

    Alpha Occupied:                                                       

       1A1  -115.213543     2A1   -11.257145     3A1    -8.808672  
       1B1    -8.805598     1B2    -8.804504     4A1    -4.063097  
       5A1    -1.111688     6A1    -0.607792     2B1    -0.547285  
       2B2    -0.545181     7A1    -0.193974     3B2    -0.102529  

    Alpha Virtual:                                                        

       3B1    -0.036690     8A1     0.036936     4B2     0.151678  
       4B1     0.166113     9A1     0.200259    10A1     0.254775  
      11A1     0.384027     1A2     0.417276    12A1     0.424068  
       5B2     0.428250     5B1     0.432751     6B1     0.558191  
       6B2     0.562643     2A2     0.767265    13A1     0.768187  
      14A1     0.802076    15A1     0.918732     7B2     1.024442  
       7B1     1.026544    16A1     1.488451  

    Beta Occupied:                                                        

       1A1  -115.212668     2A1   -11.256220     3A1    -8.807701  
       1B1    -8.805080     1B2    -8.802555     4A1    -4.047702  
       5A1    -1.106455     6A1    -0.599747     2B1    -0.545582  
       2B2    -0.535260  

    Beta Virtual:                                                         

       7A1    -0.052633     3B1     0.003094     3B2     0.028387  
       8A1     0.058385     4B1     0.181712     4B2     0.201210  
       9A1     0.254315    10A1     0.275250    11A1     0.421063  
       5B1     0.480722     1A2     0.482803    12A1     0.484049  
       5B2     0.499384     6B1     0.564257     6B2     0.576063  
      13A1     0.783980     2A2     0.784097    14A1     0.817478  
      15A1     0.948853     7B1     1.046154     7B2     1.060818  
      16A1     1.497548  

    Final Occupation by Irrep:
             A1    A2    B1    B2 
    DOCC [     6,    0,    2,    2 ]
    SOCC [     1,    0,    0,    1 ]
    NA   [     7,    0,    2,    3 ]
    NB   [     6,    0,    2,    2 ]

  @DF-UKS Final Energy:  -542.04979635199982

   => Energetics <=

    Nuclear Repulsion Energy =             23.4517456183912110
    One-Electron Energy =                -791.8690512241782926
    Two-Electron Energy =                 253.5899007459038614
    DFT Exchange-Correlation Energy =     -27.2223914921166212
    Empirical Dispersion Energy =           0.0000000000000000
    VV10 Nonlocal Energy =                  0.0000000000000000
    Total Energy =                       -542.0497963519998166

  UHF NO Occupations:
  HONO-2 :    6 A1 1.9999205
  HONO-1 :    7 A1 1.0000000
  HONO-0 :    3 B2 1.0000000
  LUNO+0 :    8 A1 0.0000795
  LUNO+1 :    4 B2 0.0000764
  LUNO+2 :    3 B1 0.0000457
  LUNO+3 :    9 A1 0.0000033


Computation Completed


Properties will be evaluated at   0.000000,   0.000000,   0.000000 [a0]

Properties computed using the SCF density matrix


 Multipole Moments:

 ------------------------------------------------------------------------------------
     Multipole            Electronic (a.u.)      Nuclear  (a.u.)        Total (a.u.)
 ------------------------------------------------------------------------------------

 L = 1.  Multiply by 2.5417464519 to convert [e a0] to [Debye]
 Dipole X            :          0.0000000            0.0000000            0.0000000
 Dipole Y            :          0.0000000            0.0000000            0.0000000
 Dipole Z            :         -1.4875135           -0.1485565           -1.6360700
 Magnitude           :                                                    1.6360700

 ------------------------------------------------------------------------------------

*** tstop() called on Joses-MacBook-Pro-2.local at Wed Jul 16 18:48:07 2025
Module time:
	user time   =       6.90 seconds =       0.11 minutes
	system time =       3.32 seconds =       0.06 minutes
	total time  =          1 seconds =       0.02 minutes
Total time:
	user time   =      27.01 seconds =       0.45 minutes
	system time =      20.56 seconds =       0.34 minutes
	total time  =          6 seconds =       0.10 minutes

*** tstart() called on Joses-MacBook-Pro-2.local
*** at Wed Jul 16 18:48:07 2025


         ------------------------------------------------------------
                                   SCF GRAD                          
                          Rob Parrish, Justin Turney,                
                       Andy Simmonett, and Alex Sokolov              
         ------------------------------------------------------------

  ==> Geometry <==

    Molecular point group: c2v
    Full point group: C_inf_v

    Geometry (in Angstrom), charge = 0, multiplicity = 3:

       Center              X                  Y                   Z               Mass       
    ------------   -----------------  -----------------  -----------------  -----------------
         BE           0.000000000000     0.000000000000     1.325681622479     9.012183065000
         AR           0.000000000000     0.000000000000    -0.298963288318    39.962383123700

  Nuclear repulsion =   23.451745618391211

  ==> Basis Set <==

  Basis Set: CC-PVDZ
    Blend: CC-PVDZ
    Number of shells: 14
    Number of basis functions: 32
    Number of Cartesian functions: 34
    Spherical Harmonics?: true
    Max angular momentum: 2

  ==> DFJKGrad: Density-Fitted SCF Gradients <==

    Gradient:                    1
    J tasked:                  Yes
    K tasked:                  Yes
    wK tasked:                  No
    OpenMP threads:              1
    Integrals threads:           1
    Memory [MiB]:              375
    Schwarz Cutoff:          1E-12
    Fitting Condition:       1E-10

   => Auxiliary Basis Set <=

  Basis Set: (CC-PVDZ AUX)
    Blend: CC-PVDZ-JKFIT + DEF2-UNIVERSAL-JKFIT
    Number of shells: 53
    Number of basis functions: 163
    Number of Cartesian functions: 190
    Spherical Harmonics?: true
    Max angular momentum: 3

  ==> DFT Potential <==

   => LibXC <=

    Version 6.2.2
    S. Lehtola, C. Steigemann, M. J.T. Oliveira, and M. A.L. Marques.,  SoftwareX 7, 1–5 (2018) (10.1016/j.softx.2017.11.002)

   => Composite Functional: B3LYP <= 

    B3LYP Hyb-GGA Exchange-Correlation Functional

    P. J. Stephens, F. J. Devlin, C. F. Chabalowski, and M. J. Frisch.,  J. Phys. Chem. 98, 11623 (1994) (10.1021/j100096a001)

    Deriv               =              1
    GGA                 =           TRUE
    Meta                =          FALSE

    Exchange Hybrid     =           TRUE
    MP2 Hybrid          =          FALSE

   => Exchange Functionals <=

    0.0800   Slater exchange
    0.7200         Becke 88

   => Exact (HF) Exchange <=

    0.2000               HF 

   => Correlation Functionals <=

    0.1900   Vosko, Wilk & Nusair (VWN5_RPA)
    0.8100   Lee, Yang & Parr

   => LibXC Density Thresholds  <==

    XC_HYB_GGA_XC_B3LYP:  1.00E-15 

   => Molecular Quadrature <=

    Radial Scheme          =       TREUTLER
    Pruning Scheme         =           NONE
    Nuclear Scheme         =       TREUTLER

    Blocking Scheme        =         OCTREE
    BS radius alpha        =              1
    Pruning alpha          =              1
    Radial Points          =             75
    Spherical Points       =            302
    Total Points           =          42734
    Total Blocks           =            398
    Max Points             =            255
    Max Functions          =             32
    Weights Tolerance      =       1.00E-15


  -Total Gradient:
     Atom            X                  Y                   Z
    ------   -----------------  -----------------  -----------------
       1       -0.000000000000    -0.000000000000    -0.168207809615
       2        0.000000000000    -0.000000000000     0.168204158139


*** tstop() called on Joses-MacBook-Pro-2.local at Wed Jul 16 18:48:07 2025
Module time:
	user time   =       1.16 seconds =       0.02 minutes
	system time =       1.33 seconds =       0.02 minutes
	total time  =          0 seconds =       0.00 minutes
Total time:
	user time   =      28.17 seconds =       0.47 minutes
	system time =      21.89 seconds =       0.36 minutes
	total time  =          6 seconds =       0.10 minutes

    			-----------------------------------------

    			 OPTKING 3.0: for geometry optimizations 

    			     By R.A. King, Bethel University     

    			        with contributions from          

    			    A.V. Copan, J. Cayton, A. Heide      

    			-----------------------------------------

    
	                            ===> Fragment 1 <== 

	 Z (Atomic Numbers)          Masses                          Geom                  
	       4.000000             9.012183          0.00000000  0.00000000  2.50517520   
	      18.000000            39.962383          0.00000000  0.00000000 -0.56495874   

	 - Coordinate -           - BOHR/RAD -       - ANG/DEG -
	 R(1,2)           =         3.070134           1.624645


	        --- Internal Coordinate Step in ANG or DEG, aJ/ANG or AJ/DEG ---
	-------------------------------------------------------------------------------
	           Coordinate      Previous         Force          Change          New 
	           ----------      --------        ------          ------        ------
	               R(1,2)       1.62464        1.38580        0.14578       1.77042
	-------------------------------------------------------------------------------

	                                 ==> Convergence Check <==                                  
    
	Measures of convergence in internal coordinates in au.
    
	Criteria marked as inactive (o), active & met (*), and active & unmet ( ).

	----------------------------------------------------------------------------------------------
	   Step    Total Energy     Delta E     Max Force     RMS Force      Max Disp      RMS Disp   
	----------------------------------------------------------------------------------------------
	  Convergence Criteria     1.00e-06 *    3.00e-04 *             o    1.20e-03 *             o
	----------------------------------------------------------------------------------------------
	     4    -542.04979635   -6.62e-02      1.68e-01      1.68e-01 o    2.75e-01      2.75e-01 o  ~
	----------------------------------------------------------------------------------------------

Next Geometry in Ang 
	Fragment 1 (Ang)

	   Be   0.0000000000   0.0000000000   1.3985697337
	   Ar   0.0000000000   0.0000000000  -0.3718513995


    Structure for next step:
    Molecular point group: c2v
    Full point group: C_inf_v

    Geometry (in Angstrom), charge = 0, multiplicity = 3:

    BE           0.000000000000     0.000000000000     1.444632451559
    AR           0.000000000000     0.000000000000    -0.325788681691


Scratch directory: /tmp/
gradient() will perform analytic gradient computation.
   => Libint2 <=

    Primary   basis highest AM E, G, H:  6, 6, 3
    Auxiliary basis highest AM E, G, H:  7, 7, 4
    Onebody   basis highest AM E, G, H:  -, -, -
    Solid Harmonics ordering:            Gaussian

*** tstart() called on Joses-MacBook-Pro-2.local
*** at Wed Jul 16 18:48:07 2025

   => Loading Basis Set <=

    Name: CC-PVDZ
    Role: ORBITAL
    Keyword: BASIS
    atoms 1 entry BE         line    75 file /Users/joseantoniorodriguesromero/anaconda3/share/psi4/basis/cc-pvdz.gbs 
    atoms 2 entry AR         line   718 file /Users/joseantoniorodriguesromero/anaconda3/share/psi4/basis/cc-pvdz.gbs 


         ---------------------------------------------------------
                                   SCF
               by Justin Turney, Rob Parrish, Andy Simmonett
                          and Daniel G. A. Smith
                              UKS Reference
                        1 Threads,    500 MiB Core
         ---------------------------------------------------------

  ==> Geometry <==

    Molecular point group: c2v
    Full point group: C_inf_v

    Geometry (in Angstrom), charge = 0, multiplicity = 3:

       Center              X                  Y                   Z               Mass       
    ------------   -----------------  -----------------  -----------------  -----------------
         BE           0.000000000000     0.000000000000     1.444632451559     9.012183065000
         AR           0.000000000000     0.000000000000    -0.325788681691    39.962383123700

  Running in c2v symmetry.

  Rotational constants: A = ************  B =      0.73136  C =      0.73136 [cm^-1]
  Rotational constants: A = ************  B =  21925.68866  C =  21925.68866 [MHz]
  Nuclear repulsion =   21.520732244261975

  Charge       = 0
  Multiplicity = 3
  Electrons    = 22
  Nalpha       = 12
  Nbeta        = 10

  ==> Algorithm <==

  SCF Algorithm Type is DF.
  DIIS enabled.
  MOM disabled.
  Fractional occupation disabled.
  Guess Type is READ.
  Energy threshold   = 1.00e-08
  Density threshold  = 1.00e-08
  Integral threshold = 1.00e-12

  ==> Primary Basis <==

  Basis Set: CC-PVDZ
    Blend: CC-PVDZ
    Number of shells: 14
    Number of basis functions: 32
    Number of Cartesian functions: 34
    Spherical Harmonics?: true
    Max angular momentum: 2

  ==> DFT Potential <==

   => LibXC <=

    Version 6.2.2
    S. Lehtola, C. Steigemann, M. J.T. Oliveira, and M. A.L. Marques.,  SoftwareX 7, 1–5 (2018) (10.1016/j.softx.2017.11.002)

   => Composite Functional: B3LYP <= 

[...]

	                                 ==> Convergence Check <==                                  
    
	Measures of convergence in internal coordinates in au.
    
	Criteria marked as inactive (o), active & met (*), and active & unmet ( ).

	----------------------------------------------------------------------------------------------
	   Step    Total Energy     Delta E     Max Force     RMS Force      Max Disp      RMS Disp   
	----------------------------------------------------------------------------------------------
	  Convergence Criteria     1.00e-06 *    3.00e-04 *             o    1.20e-03 *             o
	----------------------------------------------------------------------------------------------
	    16    -542.12300437   -1.93e-06      1.84e-05 *    1.84e-05 o    1.88e-02      1.88e-02 o  ~
	----------------------------------------------------------------------------------------------

Next Geometry in Ang 
	Fragment 1 (Ang)

	   Be   0.0000000000   0.0000000000   2.7023358096
	   Ar   0.0000000000   0.0000000000  -0.6132643414


    Structure for next step:
    Molecular point group: c2v
    Full point group: C_inf_v

    Geometry (in Angstrom), charge = 0, multiplicity = 3:

    BE           0.000000000000     0.000000000000     2.705471305461
    AR           0.000000000000     0.000000000000    -0.610128845581


Scratch directory: /tmp/
gradient() will perform analytic gradient computation.
   => Libint2 <=

    Primary   basis highest AM E, G, H:  6, 6, 3
    Auxiliary basis highest AM E, G, H:  7, 7, 4
    Onebody   basis highest AM E, G, H:  -, -, -
    Solid Harmonics ordering:            Gaussian

*** tstart() called on Joses-MacBook-Pro-2.local
*** at Wed Jul 16 18:48:21 2025

   => Loading Basis Set <=

    Name: CC-PVDZ
    Role: ORBITAL
    Keyword: BASIS
    atoms 1 entry BE         line    75 file /Users/joseantoniorodriguesromero/anaconda3/share/psi4/basis/cc-pvdz.gbs 
    atoms 2 entry AR         line   718 file /Users/joseantoniorodriguesromero/anaconda3/share/psi4/basis/cc-pvdz.gbs 


         ---------------------------------------------------------
                                   SCF
               by Justin Turney, Rob Parrish, Andy Simmonett
                          and Daniel G. A. Smith
                              UKS Reference
                        1 Threads,    500 MiB Core
         ---------------------------------------------------------

  ==> Geometry <==

    Molecular point group: c2v
    Full point group: C_inf_v

    Geometry (in Angstrom), charge = 0, multiplicity = 3:

       Center              X                  Y                   Z               Mass       
    ------------   -----------------  -----------------  -----------------  -----------------
         BE           0.000000000000     0.000000000000     2.705471305461     9.012183065000
         AR           0.000000000000     0.000000000000    -0.610128845581    39.962383123700

  Running in c2v symmetry.

  Rotational constants: A = ************  B =      0.20853  C =      0.20853 [cm^-1]
  Rotational constants: A = ************  B =   6251.46943  C =   6251.46943 [MHz]
  Nuclear repulsion =   11.491361271737027

  Charge       = 0
  Multiplicity = 3
  Electrons    = 22
  Nalpha       = 12
  Nbeta        = 10

  ==> Algorithm <==

  SCF Algorithm Type is DF.
  DIIS enabled.
  MOM disabled.
  Fractional occupation disabled.
  Guess Type is READ.
  Energy threshold   = 1.00e-08
  Density threshold  = 1.00e-08
  Integral threshold = 1.00e-12

  ==> Primary Basis <==

  Basis Set: CC-PVDZ
    Blend: CC-PVDZ
    Number of shells: 14
    Number of basis functions: 32
    Number of Cartesian functions: 34
    Spherical Harmonics?: true
    Max angular momentum: 2

  ==> DFT Potential <==

   => LibXC <=

    Version 6.2.2
    S. Lehtola, C. Steigemann, M. J.T. Oliveira, and M. A.L. Marques.,  SoftwareX 7, 1–5 (2018) (10.1016/j.softx.2017.11.002)

   => Composite Functional: B3LYP <= 

    B3LYP Hyb-GGA Exchange-Correlation Functional

    P. J. Stephens, F. J. Devlin, C. F. Chabalowski, and M. J. Frisch.,  J. Phys. Chem. 98, 11623 (1994) (10.1021/j100096a001)

    Deriv               =              1
    GGA                 =           TRUE
    Meta                =          FALSE

    Exchange Hybrid     =           TRUE
    MP2 Hybrid          =          FALSE

   => Exchange Functionals <=

    0.0800   Slater exchange
    0.7200         Becke 88

   => Exact (HF) Exchange <=

    0.2000               HF 

   => Correlation Functionals <=

    0.1900   Vosko, Wilk & Nusair (VWN5_RPA)
    0.8100   Lee, Yang & Parr

   => LibXC Density Thresholds  <==

    XC_HYB_GGA_XC_B3LYP:  1.00E-15 

   => Molecular Quadrature <=

    Radial Scheme          =       TREUTLER
    Pruning Scheme         =           NONE
    Nuclear Scheme         =       TREUTLER

    Blocking Scheme        =         OCTREE
    BS radius alpha        =              1
    Pruning alpha          =              1
    Radial Points          =             75
    Spherical Points       =            302
    Total Points           =          42853
    Total Blocks           =            403
    Max Points             =            256
    Max Functions          =             32
    Weights Tolerance      =       1.00E-15

   => Loading Basis Set <=

    Name: (CC-PVDZ AUX)
    Role: JKFIT
    Keyword: DF_BASIS_SCF
    atoms 1 entry BE         line    96 file /Users/joseantoniorodriguesromero/anaconda3/share/psi4/basis/def2-universal-jkfit.gbs 
    atoms 2 entry AR         line   741 file /Users/joseantoniorodriguesromero/anaconda3/share/psi4/basis/cc-pvdz-jkfit.gbs 

   => Loading Basis Set <=

    Name: CC-PVDZ
    Role: ORBITAL
    Keyword: BASIS
    atoms 1 entry BE         line    75 file /Users/joseantoniorodriguesromero/anaconda3/share/psi4/basis/cc-pvdz.gbs 
    atoms 2 entry AR         line   718 file /Users/joseantoniorodriguesromero/anaconda3/share/psi4/basis/cc-pvdz.gbs 

  Reading orbitals from file /tmp/triplet_BeAr.default.68527.180.npy, no projection.

  ==> Integral Setup <==

  DFHelper Memory: AOs need 0.002 GiB; user supplied 0.330 GiB. 
  Using in-core AOs.

  ==> MemDFJK: Density-Fitted J/K Matrices <==

    J tasked:                   Yes
    K tasked:                   Yes
    wK tasked:                   No
    OpenMP threads:               1
    Memory [MiB]:               337
    Algorithm:                 Core
    Schwarz Cutoff:           1E-12
    Mask sparsity (%):       0.0000
    Fitting Condition:        1E-10

   => Auxiliary Basis Set <=

  Basis Set: (CC-PVDZ AUX)
    Blend: CC-PVDZ-JKFIT + DEF2-UNIVERSAL-JKFIT
    Number of shells: 53
    Number of basis functions: 163
    Number of Cartesian functions: 190
    Spherical Harmonics?: true
    Max angular momentum: 3

  Cached 100.0% of DFT collocation blocks in 0.036 [GiB].

  Minimum eigenvalue in the overlap matrix is 3.5099270347E-02.
  Reciprocal condition number of the overlap matrix is 1.5197342031E-02.
    Using symmetric orthogonalization.

  ==> Pre-Iterations <==

  SCF Guess: Orbitals guess was supplied from a previous computation.

   -------------------------------------------------------
    Irrep   Nso     Nmo     Nalpha   Nbeta   Ndocc  Nsocc
   -------------------------------------------------------
     A1        16      16       7       6       6       1
     A2         2       2       0       0       0       0
     B1         7       7       2       2       2       0
     B2         7       7       3       2       2       1
   -------------------------------------------------------
    Total      32      32      12      10      10       2
   -------------------------------------------------------

  ==> Iterations <==

                           Total Energy        Delta E     RMS |[F,P]|

   @DF-UKS iter   0:  -542.12274868077611   -5.42123e+02   1.03934e-04 
   @DF-UKS iter   1:  -542.12300454723118   -2.55866e-04   8.85189e-06 DIIS
   @DF-UKS iter   2:  -542.12300455837249   -1.11413e-08   6.36097e-06 DIIS/DAMP=1%
   @DF-UKS iter   3:  -542.12299753391289    7.02446e-06   2.33096e-07 DIIS/DAMP=1%
   @DF-UKS iter   4:  -542.12300461130837   -7.07740e-06   7.78494e-08 DIIS/DAMP=1%
   @DF-UKS iter   5:  -542.12300452334648    8.79619e-08   2.73797e-08 DIIS/DAMP=1%
   @DF-UKS iter   6:  -542.12300456876426   -4.54178e-08   2.76456e-09 DIIS/DAMP=1%
   @DF-UKS iter   7:  -542.12300456728315    1.48111e-09   2.60246e-10 DIIS/DAMP=1%
  Energy and wave function converged.


  ==> Post-Iterations <==

   Electrons on quadrature grid:
      Nalpha   =   11.9999993797 ; deviation = -6.203e-07
      Nbeta    =    9.9999993942 ; deviation = -6.058e-07
      Ntotal   =   21.9999987739 ; deviation = -1.226e-06 

   @Spin Contamination Metric:   6.523097795E-05
   @S^2 Expected:                2.000000000E+00
   @S^2 Observed:                2.000065231E+00
   @S   Expected:                1.000000000E+00
   @S   Observed:                1.000000000E+00

    Orbital Energies [Eh]
    ---------------------

    Alpha Occupied:                                                       

       1A1  -115.113581     2A1   -11.149626     3A1    -8.699867  
       1B1    -8.699355     1B2    -8.699287     4A1    -4.112007  
       5A1    -0.977646     6A1    -0.438774     2B1    -0.434206  
       2B2    -0.433625     7A1    -0.264365     3B2    -0.136011  

    Alpha Virtual:                                                        

       3B1    -0.064315     8A1    -0.057483     4B2     0.167560  
       9A1     0.181611     4B1     0.186608    10A1     0.198053  
      11A1     0.428801     5B2     0.435688     1A2     0.444143  
       5B1     0.452724    12A1     0.454388     6B2     0.593833  
       6B1     0.593921    13A1     0.630405    14A1     0.809181  
      15A1     0.823905     2A2     0.823920     7B1     0.824269  
       7B2     0.824636    16A1     0.906080  

    Beta Occupied:                                                        

       1A1  -115.113414     2A1   -11.149460     3A1    -8.699489  
       1B1    -8.699234     1B2    -8.699117     4A1    -4.093436  
       5A1    -0.976937     6A1    -0.437445     2B1    -0.434030  
       2B2    -0.433268  

    Beta Virtual:                                                         

       7A1    -0.115604     3B1    -0.005707     8A1    -0.000600  
       3B2     0.022765     4B1     0.212012     9A1     0.217006  
      10A1     0.231520     4B2     0.238707    11A1     0.482660  
       5B1     0.508005     5B2     0.529162     1A2     0.558250  
      12A1     0.558976     6B1     0.602916     6B2     0.611867  
      13A1     0.637530    14A1     0.810498    15A1     0.824207  
       2A2     0.824221     7B1     0.825096     7B2     0.825767  
      16A1     0.918126  

    Final Occupation by Irrep:
             A1    A2    B1    B2 
    DOCC [     6,    0,    2,    2 ]
    SOCC [     1,    0,    0,    1 ]
    NA   [     7,    0,    2,    3 ]
    NB   [     6,    0,    2,    2 ]

  @DF-UKS Final Energy:  -542.12300456728315

   => Energetics <=

    Nuclear Repulsion Energy =             11.4913612717370270
    One-Electron Energy =                -770.0336171798940086
    Two-Electron Energy =                 243.5618696808142261
    DFT Exchange-Correlation Energy =     -27.1426183399403200
    Empirical Dispersion Energy =           0.0000000000000000
    VV10 Nonlocal Energy =                  0.0000000000000000
    Total Energy =                       -542.1230045672831466

  UHF NO Occupations:
  HONO-2 :    6 A1 1.9999708
  HONO-1 :    7 A1 1.0000000
  HONO-0 :    3 B2 1.0000000
  LUNO+0 :    8 A1 0.0000292
  LUNO+1 :    3 B1 0.0000016
  LUNO+2 :    4 B2 0.0000010
  LUNO+3 :    9 A1 0.0000006


Computation Completed


Properties will be evaluated at   0.000000,   0.000000,   0.000000 [a0]

Properties computed using the SCF density matrix


 Multipole Moments:

 ------------------------------------------------------------------------------------
     Multipole            Electronic (a.u.)      Nuclear  (a.u.)        Total (a.u.)
 ------------------------------------------------------------------------------------

 L = 1.  Multiply by 2.5417464519 to convert [e a0] to [Debye]
 Dipole X            :          0.0000000            0.0000000            0.0000000
 Dipole Y            :          0.0000000            0.0000000            0.0000000
 Dipole Z            :          0.1381990           -0.3031763           -0.1649773
 Magnitude           :                                                    0.1649773

 ------------------------------------------------------------------------------------

*** tstop() called on Joses-MacBook-Pro-2.local at Wed Jul 16 18:48:22 2025
Module time:
	user time   =       2.48 seconds =       0.04 minutes
	system time =       4.05 seconds =       0.07 minutes
	total time  =          1 seconds =       0.02 minutes
Total time:
	user time   =      75.66 seconds =       1.26 minutes
	system time =     114.17 seconds =       1.90 minutes
	total time  =         21 seconds =       0.35 minutes

*** tstart() called on Joses-MacBook-Pro-2.local
*** at Wed Jul 16 18:48:22 2025


         ------------------------------------------------------------
                                   SCF GRAD                          
                          Rob Parrish, Justin Turney,                
                       Andy Simmonett, and Alex Sokolov              
         ------------------------------------------------------------

  ==> Geometry <==

    Molecular point group: c2v
    Full point group: C_inf_v

    Geometry (in Angstrom), charge = 0, multiplicity = 3:

       Center              X                  Y                   Z               Mass       
    ------------   -----------------  -----------------  -----------------  -----------------
         BE           0.000000000000     0.000000000000     2.705471305461     9.012183065000
         AR           0.000000000000     0.000000000000    -0.610128845581    39.962383123700

  Nuclear repulsion =   11.491361271737027

  ==> Basis Set <==

  Basis Set: CC-PVDZ
    Blend: CC-PVDZ
    Number of shells: 14
    Number of basis functions: 32
    Number of Cartesian functions: 34
    Spherical Harmonics?: true
    Max angular momentum: 2

  ==> DFJKGrad: Density-Fitted SCF Gradients <==

    Gradient:                    1
    J tasked:                  Yes
    K tasked:                  Yes
    wK tasked:                  No
    OpenMP threads:              1
    Integrals threads:           1
    Memory [MiB]:              375
    Schwarz Cutoff:          1E-12
    Fitting Condition:       1E-10

   => Auxiliary Basis Set <=

  Basis Set: (CC-PVDZ AUX)
    Blend: CC-PVDZ-JKFIT + DEF2-UNIVERSAL-JKFIT
    Number of shells: 53
    Number of basis functions: 163
    Number of Cartesian functions: 190
    Spherical Harmonics?: true
    Max angular momentum: 3

  ==> DFT Potential <==

   => LibXC <=

    Version 6.2.2
    S. Lehtola, C. Steigemann, M. J.T. Oliveira, and M. A.L. Marques.,  SoftwareX 7, 1–5 (2018) (10.1016/j.softx.2017.11.002)

   => Composite Functional: B3LYP <= 

    B3LYP Hyb-GGA Exchange-Correlation Functional

    P. J. Stephens, F. J. Devlin, C. F. Chabalowski, and M. J. Frisch.,  J. Phys. Chem. 98, 11623 (1994) (10.1021/j100096a001)

    Deriv               =              1
    GGA                 =           TRUE
    Meta                =          FALSE

    Exchange Hybrid     =           TRUE
    MP2 Hybrid          =          FALSE

   => Exchange Functionals <=

    0.0800   Slater exchange
    0.7200         Becke 88

   => Exact (HF) Exchange <=

    0.2000               HF 

   => Correlation Functionals <=

    0.1900   Vosko, Wilk & Nusair (VWN5_RPA)
    0.8100   Lee, Yang & Parr

   => LibXC Density Thresholds  <==

    XC_HYB_GGA_XC_B3LYP:  1.00E-15 

   => Molecular Quadrature <=

    Radial Scheme          =       TREUTLER
    Pruning Scheme         =           NONE
    Nuclear Scheme         =       TREUTLER

    Blocking Scheme        =         OCTREE
    BS radius alpha        =              1
    Pruning alpha          =              1
    Radial Points          =             75
    Spherical Points       =            302
    Total Points           =          42853
    Total Blocks           =            403
    Max Points             =            256
    Max Functions          =             32
    Weights Tolerance      =       1.00E-15


  -Total Gradient:
     Atom            X                  Y                   Z
    ------   -----------------  -----------------  -----------------
       1        0.000000000000     0.000000000000    -0.000000888746
       2        0.000000000000    -0.000000000000     0.000011110353


*** tstop() called on Joses-MacBook-Pro-2.local at Wed Jul 16 18:48:22 2025
Module time:
	user time   =       0.79 seconds =       0.01 minutes
	system time =       2.19 seconds =       0.04 minutes
	total time  =          0 seconds =       0.00 minutes
Total time:
	user time   =      76.45 seconds =       1.27 minutes
	system time =     116.36 seconds =       1.94 minutes
	total time  =         21 seconds =       0.35 minutes

    			-----------------------------------------

    			 OPTKING 3.0: for geometry optimizations 

    			     By R.A. King, Bethel University     

    			        with contributions from          

    			    A.V. Copan, J. Cayton, A. Heide      

    			-----------------------------------------

    
	                            ===> Fragment 1 <== 

	 Z (Atomic Numbers)          Masses                          Geom                  
	       4.000000             9.012183          0.00000000  0.00000000  5.11259981   
	      18.000000            39.962383          0.00000000  0.00000000 -1.15297642   

	 - Coordinate -           - BOHR/RAD -       - ANG/DEG -
	 R(1,2)           =         6.265576           3.315600


	        --- Internal Coordinate Step in ANG or DEG, aJ/ANG or AJ/DEG ---
	-------------------------------------------------------------------------------
	           Coordinate      Previous         Force          Change          New 
	           ----------      --------        ------          ------        ------
	               R(1,2)       3.31560        0.00005        0.00329       3.31889
	-------------------------------------------------------------------------------

	                                 ==> Convergence Check <==                                  
    
	Measures of convergence in internal coordinates in au.
    
	Criteria marked as inactive (o), active & met (*), and active & unmet ( ).

	----------------------------------------------------------------------------------------------
	   Step    Total Energy     Delta E     Max Force     RMS Force      Max Disp      RMS Disp   
	----------------------------------------------------------------------------------------------
	  Convergence Criteria     1.00e-06 *    3.00e-04 *             o    1.20e-03 *             o
	----------------------------------------------------------------------------------------------
	    17    -542.12300457   -1.97e-07 *    6.00e-06 *    6.00e-06 o    6.21e-03      6.21e-03 o  ~
	----------------------------------------------------------------------------------------------

Next Geometry in Ang 
	Fragment 1 (Ang)

	   Be   0.0000000000   0.0000000000   2.7071141448
	   Ar   0.0000000000   0.0000000000  -0.6117716849


    Final optimized geometry and variables:
    Molecular point group: c2v
    Full point group: C_inf_v

    Geometry (in Angstrom), charge = 0, multiplicity = 3:

    BE           0.000000000000     0.000000000000     2.705471305461
    AR           0.000000000000     0.000000000000    -0.610128845581


    Psi4 stopped on: Wednesday, 16 July 2025 06:48PM
    Psi4 wall time for execution: 0:00:22.18

*** Psi4 exiting successfully. Buy a developer a beer!
