
    -----------------------------------------------------------------------
          Psi4: An Open-Source Ab Initio Electronic Structure Package
                               Psi4 1.9.1 release

                         Git: Rev {} zzzzzzz 


    D. G. A. Smith, L. A. Burns, A. C. Simmonett, R. M. Parrish,
    M. C. Schieber, R. Galvelis, P. Kraus, H. Kruse, R. Di Remigio,
    A. Alenaizan, A. M. James, S. Lehtola, J. P. Misiewicz, M. Scheurer,
    R. A. Shaw, J. B. Schriber, Y. Xie, Z. L. Glick, D. A. Sirianni,
    J. S. O'Brien, J. M. Waldrop, A. Kumar, E. G. Hohenstein,
    B. P. Pritchard, B. R. Brooks, H. F. Schaefer III, A. Yu. Sokolov,
    K. Patkowski, A. E. DePrince III, U. Bozkaya, R. A. King,
    F. A. Evangelista, J. M. Turney, T. D. Crawford, C. D. Sherrill,
    J. Chem. Phys. 152(18) 184108 (2020). https://doi.org/10.1063/5.0006002

                            Additional Code Authors
    E. T. Seidl, C. L. Janssen, E. F. Valeev, M. L. Leininger,
    J. F. Gonthier, R. M. Richard, H. R. McAlexander, M. Saitow, X. Wang,
    P. Verma, M. H. Lechner, A. Jiang, S. Behnle, A. G. Heide,
    M. F. Herbst, and D. L. Poole

             Previous Authors, Complete List of Code Contributors,
                       and Citations for Specific Modules
    https://github.com/psi4/psi4/blob/master/codemeta.json
    https://github.com/psi4/psi4/graphs/contributors
    http://psicode.org/psi4manual/master/introduction.html#citing-psifour

    -----------------------------------------------------------------------


    Psi4 started on: Wednesday, 16 July 2025 06:35PM

    Process ID: 68378
    Host:       Joses-MacBook-Pro-2.local
    PSIDATADIR: /Users/joseantoniorodriguesromero/anaconda3/share/psi4
    Memory:     500.0 MiB
    Threads:    1
    
  ==> Input File <==

--------------------------------------------------------------------------
molecule { 
0 3
Li   0.00000        0.60000        0.00000
P   0.00000       -0.60000        0.00000
}

set { 
basis              cc-pvdz
reference          uks
maxiter            500
geom_maxiter       500
DAMPING_PERCENTAGE 1
guess              SAP
}

optimize('b3lyp')
--------------------------------------------------------------------------

Scratch directory: /tmp/
gradient() will perform analytic gradient computation.
   => Libint2 <=

    Primary   basis highest AM E, G, H:  6, 6, 3
    Auxiliary basis highest AM E, G, H:  7, 7, 4
    Onebody   basis highest AM E, G, H:  -, -, -
    Solid Harmonics ordering:            Gaussian

*** tstart() called on Joses-MacBook-Pro-2.local
*** at Wed Jul 16 18:35:27 2025

   => Loading Basis Set <=

    Name: CC-PVDZ
    Role: ORBITAL
    Keyword: BASIS
    atoms 1 entry LI         line    42 file /Users/joseantoniorodriguesromero/anaconda3/share/psi4/basis/cc-pvdz.gbs 
    atoms 2 entry P          line   538 file /Users/joseantoniorodriguesromero/anaconda3/share/psi4/basis/cc-pvdz.gbs 


         ---------------------------------------------------------
                                   SCF
               by Justin Turney, Rob Parrish, Andy Simmonett
                          and Daniel G. A. Smith
                              UKS Reference
                        1 Threads,    500 MiB Core
         ---------------------------------------------------------

  ==> Geometry <==

    Molecular point group: c2v
    Full point group: C_inf_v

    Geometry (in Angstrom), charge = 0, multiplicity = 3:

       Center              X                  Y                   Z               Mass       
    ------------   -----------------  -----------------  -----------------  -----------------
         LI           0.000000000000     0.000000000000     0.978382308300     7.016003436600
         P            0.000000000000     0.000000000000    -0.221617691700    30.973761998420

  Running in c2v symmetry.

  Rotational constants: A = ************  B =      2.04652  C =      2.04652 [cm^-1]
  Rotational constants: A = ************  B =  61353.24946  C =  61353.24946 [MHz]
  Nuclear repulsion =   19.844145400124997

  Charge       = 0
  Multiplicity = 3
  Electrons    = 18
  Nalpha       = 10
  Nbeta        = 8

  ==> Algorithm <==

  SCF Algorithm Type is DF.
  DIIS enabled.
  MOM disabled.
  Fractional occupation disabled.
  Guess Type is SAP.
  Energy threshold   = 1.00e-08
  Density threshold  = 1.00e-08
  Integral threshold = 1.00e-12

  ==> Primary Basis <==

  Basis Set: CC-PVDZ
    Blend: CC-PVDZ
    Number of shells: 14
    Number of basis functions: 32
    Number of Cartesian functions: 34
    Spherical Harmonics?: true
    Max angular momentum: 2

  ==> DFT Potential <==

   => LibXC <=

    Version 6.2.2
    S. Lehtola, C. Steigemann, M. J.T. Oliveira, and M. A.L. Marques.,  SoftwareX 7, 1–5 (2018) (10.1016/j.softx.2017.11.002)

   => Composite Functional: B3LYP <= 

    B3LYP Hyb-GGA Exchange-Correlation Functional

    P. J. Stephens, F. J. Devlin, C. F. Chabalowski, and M. J. Frisch.,  J. Phys. Chem. 98, 11623 (1994) (10.1021/j100096a001)

    Deriv               =              1
    GGA                 =           TRUE
    Meta                =          FALSE

    Exchange Hybrid     =           TRUE
    MP2 Hybrid          =          FALSE

   => Exchange Functionals <=

    0.0800   Slater exchange
    0.7200         Becke 88

   => Exact (HF) Exchange <=

    0.2000               HF 

   => Correlation Functionals <=

    0.1900   Vosko, Wilk & Nusair (VWN5_RPA)
    0.8100   Lee, Yang & Parr

   => LibXC Density Thresholds  <==

    XC_HYB_GGA_XC_B3LYP:  1.00E-15 

   => Molecular Quadrature <=

    Radial Scheme          =       TREUTLER
    Pruning Scheme         =           NONE
    Nuclear Scheme         =       TREUTLER

    Blocking Scheme        =         OCTREE
    BS radius alpha        =              1
    Pruning alpha          =              1
    Radial Points          =             75
    Spherical Points       =            302
    Total Points           =          44315
    Total Blocks           =            435
    Max Points             =            256
    Max Functions          =             32
    Weights Tolerance      =       1.00E-15

   => Loading Basis Set <=

    Name: (CC-PVDZ AUX)
    Role: JKFIT
    Keyword: DF_BASIS_SCF
    atoms 1 entry LI         line    54 file /Users/joseantoniorodriguesromero/anaconda3/share/psi4/basis/def2-universal-jkfit.gbs 
    atoms 2 entry P          line   519 file /Users/joseantoniorodriguesromero/anaconda3/share/psi4/basis/cc-pvdz-jkfit.gbs 

  ==> Integral Setup <==

  DFHelper Memory: AOs need 0.002 GiB; user supplied 0.327 GiB. 
  Using in-core AOs.

  ==> MemDFJK: Density-Fitted J/K Matrices <==

    J tasked:                   Yes
    K tasked:                   Yes
    wK tasked:                   No
    OpenMP threads:               1
    Memory [MiB]:               334
    Algorithm:                 Core
    Schwarz Cutoff:           1E-12
    Mask sparsity (%):       0.0000
    Fitting Condition:        1E-10

   => Auxiliary Basis Set <=

  Basis Set: (CC-PVDZ AUX)
    Blend: CC-PVDZ-JKFIT + DEF2-UNIVERSAL-JKFIT
    Number of shells: 53
    Number of basis functions: 163
    Number of Cartesian functions: 190
    Spherical Harmonics?: true
    Max angular momentum: 3

  Cached 100.0% of DFT collocation blocks in 0.039 [GiB].

  Minimum eigenvalue in the overlap matrix is 2.8306264494E-03.
  Reciprocal condition number of the overlap matrix is 9.0648324365E-04.
    Using symmetric orthogonalization.

  ==> Pre-Iterations <==

  SCF Guess: Superposition of Atomic Potentials (doi:10.1021/acs.jctc.8b01089).

  ==> SAP guess <==

   => Molecular Quadrature <=

    Radial Scheme          =       TREUTLER
    Pruning Scheme         =           NONE
    Nuclear Scheme         =       TREUTLER

    Blocking Scheme        =         OCTREE
    BS radius alpha        =              1
    Pruning alpha          =              1
    Radial Points          =             75
    Spherical Points       =            302
    Total Points           =          44315
    Total Blocks           =            435
    Max Points             =            256
    Max Functions          =             32
    Weights Tolerance      =       1.00E-15

   -------------------------------------------------------
    Irrep   Nso     Nmo     Nalpha   Nbeta   Ndocc  Nsocc
   -------------------------------------------------------
     A1        16      16       6       5       5       1
     A2         2       2       0       0       0       0
     B1         7       7       2       1       1       1
     B2         7       7       2       2       2       0
   -------------------------------------------------------
    Total      32      32      10       8       8       2
   -------------------------------------------------------

  ==> Iterations <==

                           Total Energy        Delta E     RMS |[F,P]|

   @DF-UKS iter   1:  -348.28554936733821   -3.48286e+02   1.71983e-02 DIIS/ADIIS
   @DF-UKS iter   2:  -348.32885625961507   -4.33069e-02   1.34680e-02 DIIS/ADIIS/DAMP=1%
   @DF-UKS iter   3:  -348.36404989468645   -3.51936e-02   8.65972e-04 DIIS/ADIIS/DAMP=1%
   @DF-UKS iter   4:  -348.38267611673785   -1.86262e-02   4.97519e-04 DIIS/ADIIS/DAMP=1%
   @DF-UKS iter   5:  -348.38117880712741    1.49731e-03   5.57105e-05 DIIS/DAMP=1%
   @DF-UKS iter   6:  -348.38151622433008   -3.37417e-04   9.52272e-06 DIIS/DAMP=1%
   @DF-UKS iter   7:  -348.38153178798399   -1.55637e-05   1.88017e-06 DIIS/DAMP=1%
   @DF-UKS iter   8:  -348.38153403209742   -2.24411e-06   1.81915e-07 DIIS/DAMP=1%
   @DF-UKS iter   9:  -348.38153277435674    1.25774e-06   1.69278e-08 DIIS/DAMP=1%
   @DF-UKS iter  10:  -348.38153288615854   -1.11802e-07   3.13622e-09 DIIS/DAMP=1%
   @DF-UKS iter  11:  -348.38153289436747   -8.20893e-09   7.31922e-10 DIIS/DAMP=1%
  Energy and wave function converged.


  ==> Post-Iterations <==

   Electrons on quadrature grid:
      Nalpha   =    9.9999967079 ; deviation = -3.292e-06
      Nbeta    =    7.9999968533 ; deviation = -3.147e-06
      Ntotal   =   17.9999935612 ; deviation = -6.439e-06 

   @Spin Contamination Metric:   3.079484164E-03
   @S^2 Expected:                2.000000000E+00
   @S^2 Observed:                2.003079484E+00
   @S   Expected:                1.000000000E+00
   @S   Observed:                1.000000000E+00

    Orbital Energies [Eh]
    ---------------------

    Alpha Occupied:                                                       

       1A1   -77.084978     2A1    -6.579554     3A1    -4.755288  
       1B1    -4.738336     1B2    -4.723795     4A1    -2.254066  
       5A1    -0.549306     2B1    -0.291847     2B2    -0.252586  
       6A1    -0.186636  

    Alpha Virtual:                                                        

       7A1    -0.055758     3B1     0.023538     3B2     0.027802  
       8A1     0.027958     4B1     0.071329     9A1     0.072442  
       4B2     0.085388     1A2     0.176227    10A1     0.176441  
      11A1     0.265237     5B1     0.306612     5B2     0.316786  
       6B1     0.435791    12A1     0.448556     6B2     0.461061  
      13A1     0.513104     2A2     0.571854    14A1     0.572835  
       7B1     0.693632     7B2     0.713907    15A1     0.759806  
      16A1     1.150226  

    Beta Occupied:                                                        

       1A1   -77.077152     2A1    -6.571177     3A1    -4.739386  
       1B1    -4.722349     1B2    -4.718940     4A1    -2.234441  
       5A1    -0.477010     2B2    -0.229449  

    Beta Virtual:                                                         

       2B1    -0.158513     6A1    -0.071104     7A1    -0.036309  
       3B2     0.028182     3B1     0.031106     8A1     0.036666  
       9A1     0.074712     4B2     0.096518     4B1     0.104210  
       1A2     0.195929    10A1     0.202044    11A1     0.282097  
       5B2     0.329501     5B1     0.337920     6B2     0.472663  
       6B1     0.478097    12A1     0.488840    13A1     0.544550  
       2A2     0.608982    14A1     0.613368     7B2     0.741043  
       7B1     0.744697    15A1     0.800683    16A1     1.165104  

    Final Occupation by Irrep:
             A1    A2    B1    B2 
    DOCC [     5,    0,    1,    2 ]
    SOCC [     1,    0,    1,    0 ]
    NA   [     6,    0,    2,    2 ]
    NB   [     5,    0,    1,    2 ]

  @DF-UKS Final Energy:  -348.38153289436747

   => Energetics <=

    Nuclear Repulsion Energy =             19.8441454001249973
    One-Electron Energy =                -519.7376570527787862
    Two-Electron Energy =                 171.8969905426300500
    DFT Exchange-Correlation Energy =     -20.3850117843437779
    Empirical Dispersion Energy =           0.0000000000000000
    VV10 Nonlocal Energy =                  0.0000000000000000
    Total Energy =                       -348.3815328943675240

  UHF NO Occupations:
  HONO-2 :    5 A1 1.9987886
  HONO-1 :    6 A1 1.0000000
  HONO-0 :    2 B1 1.0000000
  LUNO+0 :    7 A1 0.0012114
  LUNO+1 :    3 B2 0.0003252
  LUNO+2 :    8 A1 0.0000037
  LUNO+3 :    3 B1 0.0000000


Computation Completed


Properties will be evaluated at   0.000000,   0.000000,   0.000000 [a0]

Properties computed using the SCF density matrix


 Multipole Moments:

 ------------------------------------------------------------------------------------
     Multipole            Electronic (a.u.)      Nuclear  (a.u.)        Total (a.u.)
 ------------------------------------------------------------------------------------

 L = 1.  Multiply by 2.5417464519 to convert [e a0] to [Debye]
 Dipole X            :          0.0000000            0.0000000            0.0000000
 Dipole Y            :          0.0000000            0.0000000            0.0000000
 Dipole Z            :          1.7713318           -0.7353273            1.0360045
 Magnitude           :                                                    1.0360045

 ------------------------------------------------------------------------------------

*** tstop() called on Joses-MacBook-Pro-2.local at Wed Jul 16 18:35:27 2025
Module time:
	user time   =       4.37 seconds =       0.07 minutes
	system time =       3.76 seconds =       0.06 minutes
	total time  =          0 seconds =       0.00 minutes
Total time:
	user time   =       4.37 seconds =       0.07 minutes
	system time =       3.76 seconds =       0.06 minutes
	total time  =          0 seconds =       0.00 minutes

*** tstart() called on Joses-MacBook-Pro-2.local
*** at Wed Jul 16 18:35:27 2025


         ------------------------------------------------------------
                                   SCF GRAD                          
                          Rob Parrish, Justin Turney,                
                       Andy Simmonett, and Alex Sokolov              
         ------------------------------------------------------------

  ==> Geometry <==

    Molecular point group: c2v
    Full point group: C_inf_v

    Geometry (in Angstrom), charge = 0, multiplicity = 3:

       Center              X                  Y                   Z               Mass       
    ------------   -----------------  -----------------  -----------------  -----------------
         LI           0.000000000000     0.000000000000     0.978382308300     7.016003436600
         P            0.000000000000     0.000000000000    -0.221617691700    30.973761998420

  Nuclear repulsion =   19.844145400124997

  ==> Basis Set <==

  Basis Set: CC-PVDZ
    Blend: CC-PVDZ
    Number of shells: 14
    Number of basis functions: 32
    Number of Cartesian functions: 34
    Spherical Harmonics?: true
    Max angular momentum: 2

  ==> DFJKGrad: Density-Fitted SCF Gradients <==

    Gradient:                    1
    J tasked:                  Yes
    K tasked:                  Yes
    wK tasked:                  No
    OpenMP threads:              1
    Integrals threads:           1
    Memory [MiB]:              375
    Schwarz Cutoff:          1E-12
    Fitting Condition:       1E-10

   => Auxiliary Basis Set <=

  Basis Set: (CC-PVDZ AUX)
    Blend: CC-PVDZ-JKFIT + DEF2-UNIVERSAL-JKFIT
    Number of shells: 53
    Number of basis functions: 163
    Number of Cartesian functions: 190
    Spherical Harmonics?: true
    Max angular momentum: 3

  ==> DFT Potential <==

   => LibXC <=

    Version 6.2.2
    S. Lehtola, C. Steigemann, M. J.T. Oliveira, and M. A.L. Marques.,  SoftwareX 7, 1–5 (2018) (10.1016/j.softx.2017.11.002)

   => Composite Functional: B3LYP <= 

    B3LYP Hyb-GGA Exchange-Correlation Functional

    P. J. Stephens, F. J. Devlin, C. F. Chabalowski, and M. J. Frisch.,  J. Phys. Chem. 98, 11623 (1994) (10.1021/j100096a001)

    Deriv               =              1
    GGA                 =           TRUE
    Meta                =          FALSE

    Exchange Hybrid     =           TRUE
    MP2 Hybrid          =          FALSE

   => Exchange Functionals <=

    0.0800   Slater exchange
    0.7200         Becke 88

   => Exact (HF) Exchange <=

    0.2000               HF 

   => Correlation Functionals <=

    0.1900   Vosko, Wilk & Nusair (VWN5_RPA)
    0.8100   Lee, Yang & Parr

   => LibXC Density Thresholds  <==

    XC_HYB_GGA_XC_B3LYP:  1.00E-15 

   => Molecular Quadrature <=

    Radial Scheme          =       TREUTLER
    Pruning Scheme         =           NONE
    Nuclear Scheme         =       TREUTLER

    Blocking Scheme        =         OCTREE
    BS radius alpha        =              1
    Pruning alpha          =              1
    Radial Points          =             75
    Spherical Points       =            302
    Total Points           =          44315
    Total Blocks           =            435
    Max Points             =            256
    Max Functions          =             32
    Weights Tolerance      =       1.00E-15


  -Total Gradient:
     Atom            X                  Y                   Z
    ------   -----------------  -----------------  -----------------
       1        0.000000000000    -0.000000000000    -0.765731831265
       2       -0.000000000000    -0.000000000000     0.765750768785


*** tstop() called on Joses-MacBook-Pro-2.local at Wed Jul 16 18:35:28 2025
Module time:
	user time   =       0.89 seconds =       0.01 minutes
	system time =       1.71 seconds =       0.03 minutes
	total time  =          1 seconds =       0.02 minutes
Total time:
	user time   =       5.26 seconds =       0.09 minutes
	system time =       5.47 seconds =       0.09 minutes
	total time  =          1 seconds =       0.02 minutes

    			-----------------------------------------

    			 OPTKING 3.0: for geometry optimizations 

    			     By R.A. King, Bethel University     

    			        with contributions from          

    			    A.V. Copan, J. Cayton, A. Heide      

    			-----------------------------------------

    
	                            ===> Fragment 1 <== 

	 Z (Atomic Numbers)          Masses                          Geom                  
	       3.000000             7.016003          0.00000000  0.00000000  1.84887461   
	      15.000000            30.973762          0.00000000  0.00000000 -0.41879674   

	 - Coordinate -           - BOHR/RAD -       - ANG/DEG -
	 R(1,2)           =         2.267671           1.200000


	        --- Internal Coordinate Step in ANG or DEG, aJ/ANG or AJ/DEG ---
	-------------------------------------------------------------------------------
	           Coordinate      Previous         Force          Change          New 
	           ----------      --------        ------          ------        ------
	               R(1,2)       1.20000        6.30873        0.09384       1.29384
	-------------------------------------------------------------------------------

	                                 ==> Convergence Check <==                                  
    
	Measures of convergence in internal coordinates in au.
    
	Criteria marked as inactive (o), active & met (*), and active & unmet ( ).

	----------------------------------------------------------------------------------------------
	   Step    Total Energy     Delta E     Max Force     RMS Force      Max Disp      RMS Disp   
	----------------------------------------------------------------------------------------------
	  Convergence Criteria     1.00e-06 *    3.00e-04 *             o    1.20e-03 *             o
	----------------------------------------------------------------------------------------------
	     1    -348.38153289   -3.48e+02      7.66e-01      7.66e-01 o    1.77e-01      1.77e-01 o  ~
	----------------------------------------------------------------------------------------------

Next Geometry in Ang 
	Fragment 1 (Ang)

	   Li   0.0000000000   0.0000000000   1.0253035311
	    P   0.0000000000   0.0000000000  -0.2685389145


    Structure for next step:
    Molecular point group: c2v
    Full point group: C_inf_v

    Geometry (in Angstrom), charge = 0, multiplicity = 3:

    LI           0.000000000000     0.000000000000     1.054893798689
    P            0.000000000000     0.000000000000    -0.238948646833


Scratch directory: /tmp/
gradient() will perform analytic gradient computation.
   => Libint2 <=

    Primary   basis highest AM E, G, H:  6, 6, 3
    Auxiliary basis highest AM E, G, H:  7, 7, 4
    Onebody   basis highest AM E, G, H:  -, -, -
    Solid Harmonics ordering:            Gaussian

*** tstart() called on Joses-MacBook-Pro-2.local
*** at Wed Jul 16 18:35:28 2025

   => Loading Basis Set <=

    Name: CC-PVDZ
    Role: ORBITAL
    Keyword: BASIS
    atoms 1 entry LI         line    42 file /Users/joseantoniorodriguesromero/anaconda3/share/psi4/basis/cc-pvdz.gbs 
    atoms 2 entry P          line   538 file /Users/joseantoniorodriguesromero/anaconda3/share/psi4/basis/cc-pvdz.gbs 


         ---------------------------------------------------------
                                   SCF
               by Justin Turney, Rob Parrish, Andy Simmonett
                          and Daniel G. A. Smith
                              UKS Reference
                        1 Threads,    500 MiB Core
         ---------------------------------------------------------

  ==> Geometry <==

    Molecular point group: c2v
    Full point group: C_inf_v

    Geometry (in Angstrom), charge = 0, multiplicity = 3:

       Center              X                  Y                   Z               Mass       
    ------------   -----------------  -----------------  -----------------  -----------------
         LI           0.000000000000     0.000000000000     1.054893798689     7.016003436600
         P            0.000000000000     0.000000000000    -0.238948646833    30.973761998420

  Running in c2v symmetry.

  Rotational constants: A = ************  B =      1.76042  C =      1.76042 [cm^-1]
  Rotational constants: A = ************  B =  52776.09740  C =  52776.09740 [MHz]
  Nuclear repulsion =   18.404848722167461

  Charge       = 0
  Multiplicity = 3
  Electrons    = 18
  Nalpha       = 10
  Nbeta        = 8

  ==> Algorithm <==

  SCF Algorithm Type is DF.
  DIIS enabled.
  MOM disabled.
  Fractional occupation disabled.
  Guess Type is READ.
  Energy threshold   = 1.00e-08
  Density threshold  = 1.00e-08
  Integral threshold = 1.00e-12

  ==> Primary Basis <==

  Basis Set: CC-PVDZ
    Blend: CC-PVDZ
    Number of shells: 14
    Number of basis functions: 32
    Number of Cartesian functions: 34
    Spherical Harmonics?: true
    Max angular momentum: 2

  ==> DFT Potential <==

   => LibXC <=

    Version 6.2.2
    S. Lehtola, C. Steigemann, M. J.T. Oliveira, and M. A.L. Marques.,  SoftwareX 7, 1–5 (2018) (10.1016/j.softx.2017.11.002)

   => Composite Functional: B3LYP <= 

    B3LYP Hyb-GGA Exchange-Correlation Functional

    P. J. Stephens, F. J. Devlin, C. F. Chabalowski, and M. J. Frisch.,  J. Phys. Chem. 98, 11623 (1994) (10.1021/j100096a001)

    Deriv               =              1
    GGA                 =           TRUE
    Meta                =          FALSE

    Exchange Hybrid     =           TRUE
    MP2 Hybrid          =          FALSE

   => Exchange Functionals <=

    0.0800   Slater exchange
    0.7200         Becke 88

   => Exact (HF) Exchange <=

    0.2000               HF 

   => Correlation Functionals <=

    0.1900   Vosko, Wilk & Nusair (VWN5_RPA)
    0.8100   Lee, Yang & Parr

   => LibXC Density Thresholds  <==

    XC_HYB_GGA_XC_B3LYP:  1.00E-15 

   => Molecular Quadrature <=

    Radial Scheme          =       TREUTLER
    Pruning Scheme         =           NONE
    Nuclear Scheme         =       TREUTLER

    Blocking Scheme        =         OCTREE
    BS radius alpha        =              1
    Pruning alpha          =              1
    Radial Points          =             75
    Spherical Points       =            302
    Total Points           =          44322
    Total Blocks           =            437
    Max Points             =            255
    Max Functions          =             32
    Weights Tolerance      =       1.00E-15

   => Loading Basis Set <=

    Name: (CC-PVDZ AUX)
    Role: JKFIT
    Keyword: DF_BASIS_SCF
    atoms 1 entry LI         line    54 file /Users/joseantoniorodriguesromero/anaconda3/share/psi4/basis/def2-universal-jkfit.gbs 
    atoms 2 entry P          line   519 file /Users/joseantoniorodriguesromero/anaconda3/share/psi4/basis/cc-pvdz-jkfit.gbs 

   => Loading Basis Set <=

    Name: CC-PVDZ
    Role: ORBITAL
    Keyword: BASIS
    atoms 1 entry LI         line    42 file /Users/joseantoniorodriguesromero/anaconda3/share/psi4/basis/cc-pvdz.gbs 
    atoms 2 entry P          line   538 file /Users/joseantoniorodriguesromero/anaconda3/share/psi4/basis/cc-pvdz.gbs 

  Reading orbitals from file /tmp/triplet_LiP.default.68378.180.npy, no projection.

  ==> Integral Setup <==

  DFHelper Memory: AOs need 0.002 GiB; user supplied 0.327 GiB. 
  Using in-core AOs.

  ==> MemDFJK: Density-Fitted J/K Matrices <==

    J tasked:                   Yes
    K tasked:                   Yes
    wK tasked:                   No
    OpenMP threads:               1
    Memory [MiB]:               334
    Algorithm:                 Core
    Schwarz Cutoff:           1E-12
    Mask sparsity (%):       0.0000
    Fitting Condition:        1E-10

   => Auxiliary Basis Set <=

  Basis Set: (CC-PVDZ AUX)
    Blend: CC-PVDZ-JKFIT + DEF2-UNIVERSAL-JKFIT
    Number of shells: 53
    Number of basis functions: 163
    Number of Cartesian functions: 190
    Spherical Harmonics?: true
    Max angular momentum: 3

  Cached 100.0% of DFT collocation blocks in 0.039 [GiB].

  Minimum eigenvalue in the overlap matrix is 2.7823951282E-03.
  Reciprocal condition number of the overlap matrix is 8.9051168707E-04.
    Using symmetric orthogonalization.

  ==> Pre-Iterations <==

  SCF Guess: Orbitals guess was supplied from a previous computation.

   -------------------------------------------------------
    Irrep   Nso     Nmo     Nalpha   Nbeta   Ndocc  Nsocc
   -------------------------------------------------------
     A1        16      16       6       5       5       1
     A2         2       2       0       0       0       0
     B1         7       7       2       1       1       1
     B2         7       7       2       2       2       0
   -------------------------------------------------------
    Total      32      32      10       8       8       2
   -------------------------------------------------------

  ==> Iterations <==

                           Total Energy        Delta E     RMS |[F,P]|

   @DF-UKS iter   0:  -348.50089417229992   -3.48501e+02   9.20672e-03 
   @DF-UKS iter   1:  -348.50035721073334    5.36962e-04   1.44045e-03 DIIS/ADIIS
   @DF-UKS iter   2:  -348.50079167193928   -4.34461e-04   1.12037e-03 DIIS/ADIIS/DAMP=1%
   @DF-UKS iter   3:  -348.50226960021382   -1.47793e-03   7.06659e-05 DIIS/DAMP=1%
   @DF-UKS iter   4:  -348.50115808457917    1.11152e-03   1.67476e-05 DIIS/DAMP=1%
   @DF-UKS iter   5:  -348.50115363618323    4.44840e-06   5.48634e-06 DIIS/DAMP=1%
   @DF-UKS iter   6:  -348.50113537783704    1.82583e-05   1.99719e-06 DIIS/DAMP=1%
   @DF-UKS iter   7:  -348.50114081191833   -5.43408e-06   2.16026e-07 DIIS/DAMP=1%
   @DF-UKS iter   8:  -348.50114002135723    7.90561e-07   3.00989e-08 DIIS/DAMP=1%
   @DF-UKS iter   9:  -348.50114006573079   -4.43736e-08   5.01070e-09 DIIS/DAMP=1%
   @DF-UKS iter  10:  -348.50114005846882    7.26197e-09   8.94880e-10 DIIS/DAMP=1%
  Energy and wave function converged.


  ==> Post-Iterations <==

   Electrons on quadrature grid:
      Nalpha   =    9.9999979706 ; deviation = -2.029e-06
      Nbeta    =    7.9999977713 ; deviation = -2.229e-06
      Ntotal   =   17.9999957419 ; deviation = -4.258e-06 

   @Spin Contamination Metric:   3.261701067E-03
   @S^2 Expected:                2.000000000E+00
   @S^2 Observed:                2.003261701E+00
   @S   Expected:                1.000000000E+00
   @S   Observed:                1.000000000E+00

    Orbital Energies [Eh]
    ---------------------

    Alpha Occupied:                                                       

       1A1   -77.061625     2A1    -6.553735     3A1    -4.726972  
       1B1    -4.714602     1B2    -4.700580     4A1    -2.180952  
       5A1    -0.552186     2B1    -0.274895     2B2    -0.236953  
       6A1    -0.202140  

    Alpha Virtual:                                                        

       7A1    -0.054066     3B1     0.023281     3B2     0.027162  
       8A1     0.028670     4B1     0.071946     9A1     0.076685  
       4B2     0.084681     1A2     0.183663    10A1     0.183786  
      11A1     0.260155     5B1     0.299441     5B2     0.308115  
      12A1     0.434280     6B1     0.446913     6B2     0.472339  
      13A1     0.501474     2A2     0.569801    14A1     0.570906  
       7B1     0.699508     7B2     0.720146    15A1     0.750206  
      16A1     1.197092  

    Beta Occupied:                                                        

       1A1   -77.053462     2A1    -6.545030     3A1    -4.709599  
       1B1    -4.698777     1B2    -4.695441     4A1    -2.163445  
       5A1    -0.477241     2B2    -0.214514  

    Beta Virtual:                                                         

       2B1    -0.145317     6A1    -0.075367     7A1    -0.043387  
       3B2     0.026635     3B1     0.030901     8A1     0.035459  
       9A1     0.077179     4B2     0.094416     4B1     0.102471  
       1A2     0.200987    10A1     0.207155    11A1     0.275071  
       5B2     0.320422     5B1     0.329254    12A1     0.482461  
       6B2     0.484486     6B1     0.489903    13A1     0.533604  
       2A2     0.607890    14A1     0.612215     7B2     0.750498  
       7B1     0.754939    15A1     0.791361    16A1     1.207712  

    Final Occupation by Irrep:
             A1    A2    B1    B2 
    DOCC [     5,    0,    1,    2 ]
    SOCC [     1,    0,    1,    0 ]
    NA   [     6,    0,    2,    2 ]
    NB   [     5,    0,    1,    2 ]

  @DF-UKS Final Energy:  -348.50114005846882

   => Energetics <=

    Nuclear Repulsion Energy =             18.4048487221674613
    One-Electron Energy =                -517.5339617820906142
    Two-Electron Energy =                 170.9967042184875652
    DFT Exchange-Correlation Energy =     -20.3687312170332575
    Empirical Dispersion Energy =           0.0000000000000000
    VV10 Nonlocal Energy =                  0.0000000000000000
    Total Energy =                       -348.5011400584688204

  UHF NO Occupations:
  HONO-2 :    5 A1 1.9987913
  HONO-1 :    6 A1 1.0000000
  HONO-0 :    2 B1 1.0000000
  LUNO+0 :    7 A1 0.0012087
  LUNO+1 :    3 B2 0.0004196
  LUNO+2 :    8 A1 0.0000032
  LUNO+3 :    3 B1 0.0000000


Computation Completed


Properties will be evaluated at   0.000000,   0.000000,   0.000000 [a0]

Properties computed using the SCF density matrix


 Multipole Moments:

 ------------------------------------------------------------------------------------
     Multipole            Electronic (a.u.)      Nuclear  (a.u.)        Total (a.u.)
 ------------------------------------------------------------------------------------

 L = 1.  Multiply by 2.5417464519 to convert [e a0] to [Debye]
 Dipole X            :          0.0000000            0.0000000            0.0000000
 Dipole Y            :          0.0000000            0.0000000            0.0000000
 Dipole Z            :          1.9404898           -0.7928314            1.1476584
 Magnitude           :                                                    1.1476584

 ------------------------------------------------------------------------------------

*** tstop() called on Joses-MacBook-Pro-2.local at Wed Jul 16 18:35:28 2025
Module time:
	user time   =       3.80 seconds =       0.06 minutes
	system time =       3.97 seconds =       0.07 minutes
	total time  =          0 seconds =       0.00 minutes
Total time:
	user time   =       9.09 seconds =       0.15 minutes
	system time =       9.66 seconds =       0.16 minutes
	total time  =          1 seconds =       0.02 minutes

*** tstart() called on Joses-MacBook-Pro-2.local
*** at Wed Jul 16 18:35:29 2025


         ------------------------------------------------------------
                                   SCF GRAD                          
                          Rob Parrish, Justin Turney,                
                       Andy Simmonett, and Alex Sokolov              
         ------------------------------------------------------------

  ==> Geometry <==

    Molecular point group: c2v
    Full point group: C_inf_v

    Geometry (in Angstrom), charge = 0, multiplicity = 3:

       Center              X                  Y                   Z               Mass       
    ------------   -----------------  -----------------  -----------------  -----------------
         LI           0.000000000000     0.000000000000     1.054893798689     7.016003436600
         P            0.000000000000     0.000000000000    -0.238948646833    30.973761998420

  Nuclear repulsion =   18.404848722167461

  ==> Basis Set <==

  Basis Set: CC-PVDZ
    Blend: CC-PVDZ
    Number of shells: 14
    Number of basis functions: 32
    Number of Cartesian functions: 34
    Spherical Harmonics?: true
    Max angular momentum: 2

  ==> DFJKGrad: Density-Fitted SCF Gradients <==

    Gradient:                    1
    J tasked:                  Yes
    K tasked:                  Yes
    wK tasked:                  No
    OpenMP threads:              1
    Integrals threads:           1
    Memory [MiB]:              375
    Schwarz Cutoff:          1E-12
    Fitting Condition:       1E-10

   => Auxiliary Basis Set <=

  Basis Set: (CC-PVDZ AUX)
    Blend: CC-PVDZ-JKFIT + DEF2-UNIVERSAL-JKFIT
    Number of shells: 53
    Number of basis functions: 163
    Number of Cartesian functions: 190
    Spherical Harmonics?: true
    Max angular momentum: 3

  ==> DFT Potential <==

   => LibXC <=

    Version 6.2.2
    S. Lehtola, C. Steigemann, M. J.T. Oliveira, and M. A.L. Marques.,  SoftwareX 7, 1–5 (2018) (10.1016/j.softx.2017.11.002)

   => Composite Functional: B3LYP <= 

    B3LYP Hyb-GGA Exchange-Correlation Functional

    P. J. Stephens, F. J. Devlin, C. F. Chabalowski, and M. J. Frisch.,  J. Phys. Chem. 98, 11623 (1994) (10.1021/j100096a001)

    Deriv               =              1
    GGA                 =           TRUE
    Meta                =          FALSE

    Exchange Hybrid     =           TRUE
    MP2 Hybrid          =          FALSE

   => Exchange Functionals <=

    0.0800   Slater exchange
    0.7200         Becke 88

   => Exact (HF) Exchange <=

    0.2000               HF 

   => Correlation Functionals <=

    0.1900   Vosko, Wilk & Nusair (VWN5_RPA)
    0.8100   Lee, Yang & Parr

   => LibXC Density Thresholds  <==

    XC_HYB_GGA_XC_B3LYP:  1.00E-15 

   => Molecular Quadrature <=

    Radial Scheme          =       TREUTLER
    Pruning Scheme         =           NONE
    Nuclear Scheme         =       TREUTLER

    Blocking Scheme        =         OCTREE
    BS radius alpha        =              1
    Pruning alpha          =              1
    Radial Points          =             75
    Spherical Points       =            302
    Total Points           =          44322
    Total Blocks           =            437
    Max Points             =            255
    Max Functions          =             32
    Weights Tolerance      =       1.00E-15


  -Total Gradient:
     Atom            X                  Y                   Z
    ------   -----------------  -----------------  -----------------
       1        0.000000000000    -0.000000000000    -0.588753405223
       2        0.000000000000     0.000000000000     0.588817054550


*** tstop() called on Joses-MacBook-Pro-2.local at Wed Jul 16 18:35:29 2025
Module time:
	user time   =       0.92 seconds =       0.02 minutes
	system time =       1.55 seconds =       0.03 minutes
	total time  =          0 seconds =       0.00 minutes
Total time:
	user time   =      10.01 seconds =       0.17 minutes
	system time =      11.22 seconds =       0.19 minutes
	total time  =          2 seconds =       0.03 minutes

    			-----------------------------------------

    			 OPTKING 3.0: for geometry optimizations 

    			     By R.A. King, Bethel University     

    			        with contributions from          

    			    A.V. Copan, J. Cayton, A. Heide      

    			-----------------------------------------

    
	                            ===> Fragment 1 <== 

	 Z (Atomic Numbers)          Masses                          Geom                  
	       3.000000             7.016003          0.00000000  0.00000000  1.99346037   
	      15.000000            30.973762          0.00000000  0.00000000 -0.45154750   

	 - Coordinate -           - BOHR/RAD -       - ANG/DEG -
	 R(1,2)           =         2.445008           1.293842


	        --- Internal Coordinate Step in ANG or DEG, aJ/ANG or AJ/DEG ---
	-------------------------------------------------------------------------------
	           Coordinate      Previous         Force          Change          New 
	           ----------      --------        ------          ------        ------
	               R(1,2)       1.29384        4.85084        0.13875       1.43260
	-------------------------------------------------------------------------------

	                                 ==> Convergence Check <==                                  
    
	Measures of convergence in internal coordinates in au.
    
	Criteria marked as inactive (o), active & met (*), and active & unmet ( ).

	----------------------------------------------------------------------------------------------
	   Step    Total Energy     Delta E     Max Force     RMS Force      Max Disp      RMS Disp   
	----------------------------------------------------------------------------------------------
	  Convergence Criteria     1.00e-06 *    3.00e-04 *             o    1.20e-03 *             o
	----------------------------------------------------------------------------------------------
	     2    -348.50114006   -1.20e-01      5.89e-01      5.89e-01 o    2.62e-01      2.62e-01 o  ~
	----------------------------------------------------------------------------------------------

Next Geometry in Ang 
	Fragment 1 (Ang)

	   Li   0.0000000000   0.0000000000   1.1242709244
	    P   0.0000000000   0.0000000000  -0.3083257725


    Structure for next step:
    Molecular point group: c2v
    Full point group: C_inf_v

    Geometry (in Angstrom), charge = 0, multiplicity = 3:

    LI           0.000000000000     0.000000000000     1.168022719294
    P            0.000000000000     0.000000000000    -0.264573977582


Scratch directory: /tmp/
gradient() will perform analytic gradient computation.
   => Libint2 <=

    Primary   basis highest AM E, G, H:  6, 6, 3
    Auxiliary basis highest AM E, G, H:  7, 7, 4
    Onebody   basis highest AM E, G, H:  -, -, -
    Solid Harmonics ordering:            Gaussian

*** tstart() called on Joses-MacBook-Pro-2.local
*** at Wed Jul 16 18:35:29 2025

   => Loading Basis Set <=

    Name: CC-PVDZ
    Role: ORBITAL
    Keyword: BASIS
    atoms 1 entry LI         line    42 file /Users/joseantoniorodriguesromero/anaconda3/share/psi4/basis/cc-pvdz.gbs 
    atoms 2 entry P          line   538 file /Users/joseantoniorodriguesromero/anaconda3/share/psi4/basis/cc-pvdz.gbs 


         ---------------------------------------------------------
                                   SCF
               by Justin Turney, Rob Parrish, Andy Simmonett
                          and Daniel G. A. Smith
                              UKS Reference
                        1 Threads,    500 MiB Core
         ---------------------------------------------------------

  ==> Geometry <==

    Molecular point group: c2v
    Full point group: C_inf_v

    Geometry (in Angstrom), charge = 0, multiplicity = 3:

       Center              X                  Y                   Z               Mass       
    ------------   -----------------  -----------------  -----------------  -----------------
         LI           0.000000000000     0.000000000000     1.168022719294     7.016003436600
         P            0.000000000000     0.000000000000    -0.264573977582    30.973761998420

  Running in c2v symmetry.

  Rotational constants: A = ************  B =      1.43592  C =      1.43592 [cm^-1]
  Rotational constants: A = ************  B =  43047.91985  C =  43047.91985 [MHz]
  Nuclear repulsion =   16.622245836581644

  Charge       = 0
  Multiplicity = 3
  Electrons    = 18
  Nalpha       = 10
  Nbeta        = 8

  ==> Algorithm <==

  SCF Algorithm Type is DF.
  DIIS enabled.
  MOM disabled.
  Fractional occupation disabled.
  Guess Type is READ.
  Energy threshold   = 1.00e-08
  Density threshold  = 1.00e-08
  Integral threshold = 1.00e-12

  ==> Primary Basis <==

  Basis Set: CC-PVDZ
    Blend: CC-PVDZ
    Number of shells: 14
    Number of basis functions: 32
    Number of Cartesian functions: 34
    Spherical Harmonics?: true
    Max angular momentum: 2

  ==> DFT Potential <==

   => LibXC <=

    Version 6.2.2
    S. Lehtola, C. Steigemann, M. J.T. Oliveira, and M. A.L. Marques.,  SoftwareX 7, 1–5 (2018) (10.1016/j.softx.2017.11.002)

   => Composite Functional: B3LYP <= 

    B3LYP Hyb-GGA Exchange-Correlation Functional

    P. J. Stephens, F. J. Devlin, C. F. Chabalowski, and M. J. Frisch.,  J. Phys. Chem. 98, 11623 (1994) (10.1021/j100096a001)

    Deriv               =              1
    GGA                 =           TRUE
    Meta                =          FALSE

    Exchange Hybrid     =           TRUE
    MP2 Hybrid          =          FALSE

   => Exchange Functionals <=

    0.0800   Slater exchange
    0.7200         Becke 88

   => Exact (HF) Exchange <=

    0.2000               HF 

   => Correlation Functionals <=

    0.1900   Vosko, Wilk & Nusair (VWN5_RPA)
    0.8100   Lee, Yang & Parr

   => LibXC Density Thresholds  <==

    XC_HYB_GGA_XC_B3LYP:  1.00E-15 

   => Molecular Quadrature <=

    Radial Scheme          =       TREUTLER
    Pruning Scheme         =           NONE
    Nuclear Scheme         =       TREUTLER

    Blocking Scheme        =         OCTREE
    BS radius alpha        =              1
    Pruning alpha          =              1
    Radial Points          =             75
    Spherical Points       =            302
    Total Points           =          44324
    Total Blocks           =            435
    Max Points             =            255
    Max Functions          =             32
    Weights Tolerance      =       1.00E-15

   => Loading Basis Set <=

    Name: (CC-PVDZ AUX)
    Role: JKFIT
    Keyword: DF_BASIS_SCF
    atoms 1 entry LI         line    54 file /Users/joseantoniorodriguesromero/anaconda3/share/psi4/basis/def2-universal-jkfit.gbs 
    atoms 2 entry P          line   519 file /Users/joseantoniorodriguesromero/anaconda3/share/psi4/basis/cc-pvdz-jkfit.gbs 

   => Loading Basis Set <=

    Name: CC-PVDZ
    Role: ORBITAL
    Keyword: BASIS
    atoms 1 entry LI         line    42 file /Users/joseantoniorodriguesromero/anaconda3/share/psi4/basis/cc-pvdz.gbs 
    atoms 2 entry P          line   538 file /Users/joseantoniorodriguesromero/anaconda3/share/psi4/basis/cc-pvdz.gbs 

  Reading orbitals from file /tmp/triplet_LiP.default.68378.180.npy, no projection.

  ==> Integral Setup <==

  DFHelper Memory: AOs need 0.002 GiB; user supplied 0.327 GiB. 
  Using in-core AOs.

  ==> MemDFJK: Density-Fitted J/K Matrices <==

    J tasked:                   Yes
    K tasked:                   Yes
    wK tasked:                   No
    OpenMP threads:               1
    Memory [MiB]:               334
    Algorithm:                 Core
    Schwarz Cutoff:           1E-12
    Mask sparsity (%):       0.0000
    Fitting Condition:        1E-10

   => Auxiliary Basis Set <=

  Basis Set: (CC-PVDZ AUX)
    Blend: CC-PVDZ-JKFIT + DEF2-UNIVERSAL-JKFIT
    Number of shells: 53
    Number of basis functions: 163
    Number of Cartesian functions: 190
    Spherical Harmonics?: true
    Max angular momentum: 3

  Cached 100.0% of DFT collocation blocks in 0.039 [GiB].

  Minimum eigenvalue in the overlap matrix is 2.6062467715E-03.
  Reciprocal condition number of the overlap matrix is 8.3401361058E-04.
    Using symmetric orthogonalization.

  ==> Pre-Iterations <==

  SCF Guess: Orbitals guess was supplied from a previous computation.

   -------------------------------------------------------
    Irrep   Nso     Nmo     Nalpha   Nbeta   Ndocc  Nsocc
   -------------------------------------------------------
     A1        16      16       6       5       5       1
     A2         2       2       0       0       0       0
     B1         7       7       2       1       1       1
     B2         7       7       2       2       2       0
   -------------------------------------------------------
    Total      32      32      10       8       8       2
   -------------------------------------------------------

  ==> Iterations <==

                           Total Energy        Delta E     RMS |[F,P]|

   @DF-UKS iter   0:  -348.62187759709332   -3.48622e+02   1.27777e-02 
   @DF-UKS iter   1:  -348.62599383514669   -4.11624e-03   2.02342e-03 DIIS/ADIIS
   @DF-UKS iter   2:  -348.62668914939485   -6.95314e-04   1.52954e-03 DIIS/ADIIS/DAMP=1%
   @DF-UKS iter   3:  -348.62876983606418   -2.08069e-03   6.73248e-05 DIIS/DAMP=1%
   @DF-UKS iter   4:  -348.62741982666967    1.35001e-03   3.54255e-05 DIIS/DAMP=1%
   @DF-UKS iter   5:  -348.62733800196747    8.18247e-05   1.10855e-05 DIIS/DAMP=1%
   @DF-UKS iter   6:  -348.62737027631795   -3.22744e-05   2.32171e-06 DIIS/DAMP=1%
   @DF-UKS iter   7:  -348.62735803955559    1.22368e-05   2.30738e-07 DIIS/DAMP=1%
   @DF-UKS iter   8:  -348.62735995805116   -1.91850e-06   2.89867e-08 DIIS/DAMP=1%
   @DF-UKS iter   9:  -348.62735981635785    1.41693e-07   2.89110e-09 DIIS/DAMP=1%
   @DF-UKS iter  10:  -348.62735983311779   -1.67599e-08   4.11469e-10 DIIS/DAMP=1%
   @DF-UKS iter  11:  -348.62735983063101    2.48679e-09   6.26005e-11 DIIS/DAMP=1%
  Energy and wave function converged.


  ==> Post-Iterations <==

   Electrons on quadrature grid:
      Nalpha   =   10.0000015017 ; deviation = 1.502e-06
      Nbeta    =    8.0000011146 ; deviation = 1.115e-06
      Ntotal   =   18.0000026163 ; deviation = 2.616e-06 

   @Spin Contamination Metric:   3.549059041E-03
   @S^2 Expected:                2.000000000E+00
   @S^2 Observed:                2.003549059E+00
   @S   Expected:                1.000000000E+00
   @S   Observed:                1.000000000E+00

    Orbital Energies [Eh]
    ---------------------

    Alpha Occupied:                                                       

       1A1   -77.045920     2A1    -6.533426     3A1    -4.703891  
       1B1    -4.696368     1B2    -4.682826     4A1    -2.111053  
       5A1    -0.555526     2B1    -0.256948     6A1    -0.221355  
       2B2    -0.220314  

    Alpha Virtual:                                                        

       7A1    -0.052506     3B1     0.020668     3B2     0.024309  
       8A1     0.028642     4B1     0.071635     9A1     0.079756  
       4B2     0.082403     1A2     0.192817    10A1     0.192860  
      11A1     0.251918     5B1     0.288795     5B2     0.296522  
      12A1     0.418368     6B1     0.456396     6B2     0.481899  
      13A1     0.492310     2A2     0.563537    14A1     0.564852  
       7B1     0.701105     7B2     0.722197    15A1     0.726511  
      16A1     1.259520  

    Beta Occupied:                                                        

       1A1   -77.037696     2A1    -6.524672     3A1    -4.686013  
       1B1    -4.680827     1B2    -4.677569     4A1    -2.097399  
       5A1    -0.478711     2B2    -0.198597  

    Beta Virtual:                                                         

       2B1    -0.131041     6A1    -0.088021     7A1    -0.046599  
       3B2     0.024310     3B1     0.029850     8A1     0.034373  
       9A1     0.079667     4B2     0.090553     4B1     0.098760  
       1A2     0.207594    10A1     0.213769    11A1     0.265731  
       5B2     0.308502     5B1     0.317677    12A1     0.473891  
       6B2     0.494303     6B1     0.499752    13A1     0.525359  
       2A2     0.603110    14A1     0.607406     7B2     0.755335  
       7B1     0.760749    15A1     0.766434    16A1     1.266834  

    Final Occupation by Irrep:
             A1    A2    B1    B2 
    DOCC [     5,    0,    1,    2 ]
    SOCC [     1,    0,    1,    0 ]
    NA   [     6,    0,    2,    2 ]
    NB   [     5,    0,    1,    2 ]

  @DF-UKS Final Energy:  -348.62735983063101

   => Energetics <=

    Nuclear Repulsion Energy =             16.6222458365816443
    One-Electron Energy =                -514.5940781735987457
    Two-Electron Energy =                 169.6849534418823566
    DFT Exchange-Correlation Energy =     -20.3404809354962666
    Empirical Dispersion Energy =           0.0000000000000000
    VV10 Nonlocal Energy =                  0.0000000000000000
    Total Energy =                       -348.6273598306309509

  UHF NO Occupations:
  HONO-2 :    5 A1 1.9988062
  HONO-1 :    2 B1 1.0000000
  HONO-0 :    6 A1 1.0000000
  LUNO+0 :    7 A1 0.0011938
  LUNO+1 :    3 B2 0.0005789
  LUNO+2 :    8 A1 0.0000026
  LUNO+3 :    9 A1 0.0000000


Computation Completed


Properties will be evaluated at   0.000000,   0.000000,   0.000000 [a0]

Properties computed using the SCF density matrix


 Multipole Moments:

 ------------------------------------------------------------------------------------
     Multipole            Electronic (a.u.)      Nuclear  (a.u.)        Total (a.u.)
 ------------------------------------------------------------------------------------

 L = 1.  Multiply by 2.5417464519 to convert [e a0] to [Debye]
 Dipole X            :          0.0000000            0.0000000            0.0000000
 Dipole Y            :          0.0000000            0.0000000            0.0000000
 Dipole Z            :          2.1367681           -0.8778562            1.2589119
 Magnitude           :                                                    1.2589119

 ------------------------------------------------------------------------------------

*** tstop() called on Joses-MacBook-Pro-2.local at Wed Jul 16 18:35:30 2025
Module time:
	user time   =       3.99 seconds =       0.07 minutes
	system time =       4.15 seconds =       0.07 minutes
	total time  =          1 seconds =       0.02 minutes
Total time:
	user time   =      14.04 seconds =       0.23 minutes
	system time =      15.64 seconds =       0.26 minutes
	total time  =          3 seconds =       0.05 minutes

*** tstart() called on Joses-MacBook-Pro-2.local
*** at Wed Jul 16 18:35:30 2025


         ------------------------------------------------------------
                                   SCF GRAD                          
                          Rob Parrish, Justin Turney,                
                       Andy Simmonett, and Alex Sokolov              
         ------------------------------------------------------------

  ==> Geometry <==

    Molecular point group: c2v
    Full point group: C_inf_v

    Geometry (in Angstrom), charge = 0, multiplicity = 3:

       Center              X                  Y                   Z               Mass       
    ------------   -----------------  -----------------  -----------------  -----------------
         LI           0.000000000000     0.000000000000     1.168022719294     7.016003436600
         P            0.000000000000     0.000000000000    -0.264573977582    30.973761998420

  Nuclear repulsion =   16.622245836581644

  ==> Basis Set <==

  Basis Set: CC-PVDZ
    Blend: CC-PVDZ
    Number of shells: 14
    Number of basis functions: 32
    Number of Cartesian functions: 34
    Spherical Harmonics?: true
    Max angular momentum: 2

  ==> DFJKGrad: Density-Fitted SCF Gradients <==

    Gradient:                    1
    J tasked:                  Yes
    K tasked:                  Yes
    wK tasked:                  No
    OpenMP threads:              1
    Integrals threads:           1
    Memory [MiB]:              375
    Schwarz Cutoff:          1E-12
    Fitting Condition:       1E-10

   => Auxiliary Basis Set <=

  Basis Set: (CC-PVDZ AUX)
    Blend: CC-PVDZ-JKFIT + DEF2-UNIVERSAL-JKFIT
    Number of shells: 53
    Number of basis functions: 163
    Number of Cartesian functions: 190
    Spherical Harmonics?: true
    Max angular momentum: 3

  ==> DFT Potential <==

   => LibXC <=

    Version 6.2.2
    S. Lehtola, C. Steigemann, M. J.T. Oliveira, and M. A.L. Marques.,  SoftwareX 7, 1–5 (2018) (10.1016/j.softx.2017.11.002)

   => Composite Functional: B3LYP <= 

    B3LYP Hyb-GGA Exchange-Correlation Functional

    P. J. Stephens, F. J. Devlin, C. F. Chabalowski, and M. J. Frisch.,  J. Phys. Chem. 98, 11623 (1994) (10.1021/j100096a001)

    Deriv               =              1
    GGA                 =           TRUE
    Meta                =          FALSE

    Exchange Hybrid     =           TRUE
    MP2 Hybrid          =          FALSE

   => Exchange Functionals <=

    0.0800   Slater exchange
    0.7200         Becke 88

   => Exact (HF) Exchange <=

    0.2000               HF 

   => Correlation Functionals <=

    0.1900   Vosko, Wilk & Nusair (VWN5_RPA)
    0.8100   Lee, Yang & Parr

   => LibXC Density Thresholds  <==

    XC_HYB_GGA_XC_B3LYP:  1.00E-15 

   => Molecular Quadrature <=

    Radial Scheme          =       TREUTLER
    Pruning Scheme         =           NONE
    Nuclear Scheme         =       TREUTLER

    Blocking Scheme        =         OCTREE
    BS radius alpha        =              1
    Pruning alpha          =              1
    Radial Points          =             75
    Spherical Points       =            302
    Total Points           =          44324
    Total Blocks           =            435
    Max Points             =            255
    Max Functions          =             32
    Weights Tolerance      =       1.00E-15


  -Total Gradient:
     Atom            X                  Y                   Z
    ------   -----------------  -----------------  -----------------
       1        0.000000000000     0.000000000000    -0.384809753086
       2        0.000000000000     0.000000000000     0.384777945881


*** tstop() called on Joses-MacBook-Pro-2.local at Wed Jul 16 18:35:30 2025
Module time:
	user time   =       0.79 seconds =       0.01 minutes
	system time =       1.55 seconds =       0.03 minutes
	total time  =          0 seconds =       0.00 minutes
Total time:
	user time   =      14.85 seconds =       0.25 minutes
	system time =      17.19 seconds =       0.29 minutes
	total time  =          3 seconds =       0.05 minutes

    			-----------------------------------------

    			 OPTKING 3.0: for geometry optimizations 

    			     By R.A. King, Bethel University     

    			        with contributions from          

    			    A.V. Copan, J. Cayton, A. Heide      

    			-----------------------------------------

    
	                            ===> Fragment 1 <== 

	 Z (Atomic Numbers)          Masses                          Geom                  
	       3.000000             7.016003          0.00000000  0.00000000  2.20724305   
	      15.000000            30.973762          0.00000000  0.00000000 -0.49997236   

	 - Coordinate -           - BOHR/RAD -       - ANG/DEG -
	 R(1,2)           =         2.707215           1.432597


	        --- Internal Coordinate Step in ANG or DEG, aJ/ANG or AJ/DEG ---
	-------------------------------------------------------------------------------
	           Coordinate      Previous         Force          Change          New 
	           ----------      --------        ------          ------        ------
	               R(1,2)       1.43260        3.17021        0.20104       1.63363
	-------------------------------------------------------------------------------

	                                 ==> Convergence Check <==                                  
    
	Measures of convergence in internal coordinates in au.
    
	Criteria marked as inactive (o), active & met (*), and active & unmet ( ).

	----------------------------------------------------------------------------------------------
	   Step    Total Energy     Delta E     Max Force     RMS Force      Max Disp      RMS Disp   
	----------------------------------------------------------------------------------------------
	  Convergence Criteria     1.00e-06 *    3.00e-04 *             o    1.20e-03 *             o
	----------------------------------------------------------------------------------------------
	     3    -348.62735983   -1.26e-01      3.85e-01      3.85e-01 o    3.80e-01      3.80e-01 o  ~
	----------------------------------------------------------------------------------------------

Next Geometry in Ang 
	Fragment 1 (Ang)

	   Li   0.0000000000   0.0000000000   1.2685408846
	    P   0.0000000000   0.0000000000  -0.3650921429


    Structure for next step:
    Molecular point group: c2v
    Full point group: C_inf_v

    Geometry (in Angstrom), charge = 0, multiplicity = 3:

    LI           0.000000000000     0.000000000000     1.331931376908
    P            0.000000000000     0.000000000000    -0.301701650519


Scratch directory: /tmp/
gradient() will perform analytic gradient computation.
   => Libint2 <=

    Primary   basis highest AM E, G, H:  6, 6, 3
    Auxiliary basis highest AM E, G, H:  7, 7, 4
    Onebody   basis highest AM E, G, H:  -, -, -
    Solid Harmonics ordering:            Gaussian

*** tstart() called on Joses-MacBook-Pro-2.local
*** at Wed Jul 16 18:35:30 2025

   => Loading Basis Set <=

    Name: CC-PVDZ
    Role: ORBITAL
    Keyword: BASIS
    atoms 1 entry LI         line    42 file /Users/joseantoniorodriguesromero/anaconda3/share/psi4/basis/cc-pvdz.gbs 
    atoms 2 entry P          line   538 file /Users/joseantoniorodriguesromero/anaconda3/share/psi4/basis/cc-pvdz.gbs 


         ---------------------------------------------------------
                                   SCF
               by Justin Turney, Rob Parrish, Andy Simmonett
                          and Daniel G. A. Smith
                              UKS Reference
                        1 Threads,    500 MiB Core
         ---------------------------------------------------------

  ==> Geometry <==

    Molecular point group: c2v
    Full point group: C_inf_v

    Geometry (in Angstrom), charge = 0, multiplicity = 3:

       Center              X                  Y                   Z               Mass       
    ------------   -----------------  -----------------  -----------------  -----------------
         LI           0.000000000000     0.000000000000     1.331931376908     7.016003436600
         P            0.000000000000     0.000000000000    -0.301701650519    30.973761998420

  Running in c2v symmetry.

  Rotational constants: A = ************  B =      1.10426  C =      1.10426 [cm^-1]
  Rotational constants: A = ************  B =  33104.80631  C =  33104.80631 [MHz]
  Nuclear repulsion =   14.576697508163045

  Charge       = 0
  Multiplicity = 3
  Electrons    = 18
  Nalpha       = 10
  Nbeta        = 8

  ==> Algorithm <==

  SCF Algorithm Type is DF.
  DIIS enabled.
  MOM disabled.
  Fractional occupation disabled.
  Guess Type is READ.
  Energy threshold   = 1.00e-08
  Density threshold  = 1.00e-08
  Integral threshold = 1.00e-12

  ==> Primary Basis <==

  Basis Set: CC-PVDZ
    Blend: CC-PVDZ
    Number of shells: 14
    Number of basis functions: 32
    Number of Cartesian functions: 34
    Spherical Harmonics?: true
    Max angular momentum: 2

  ==> DFT Potential <==

   => LibXC <=

    Version 6.2.2
    S. Lehtola, C. Steigemann, M. J.T. Oliveira, and M. A.L. Marques.,  SoftwareX 7, 1–5 (2018) (10.1016/j.softx.2017.11.002)

   => Composite Functional: B3LYP <= 

    B3LYP Hyb-GGA Exchange-Correlation Functional

    P. J. Stephens, F. J. Devlin, C. F. Chabalowski, and M. J. Frisch.,  J. Phys. Chem. 98, 11623 (1994) (10.1021/j100096a001)

    Deriv               =              1
    GGA                 =           TRUE
    Meta                =          FALSE

    Exchange Hybrid     =           TRUE
    MP2 Hybrid          =          FALSE

   => Exchange Functionals <=

    0.0800   Slater exchange
    0.7200         Becke 88

   => Exact (HF) Exchange <=

    0.2000               HF 

   => Correlation Functionals <=

    0.1900   Vosko, Wilk & Nusair (VWN5_RPA)
    0.8100   Lee, Yang & Parr

   => LibXC Density Thresholds  <==

    XC_HYB_GGA_XC_B3LYP:  1.00E-15 

   => Molecular Quadrature <=

    Radial Scheme          =       TREUTLER
    Pruning Scheme         =           NONE
    Nuclear Scheme         =       TREUTLER

    Blocking Scheme        =         OCTREE
    BS radius alpha        =              1
    Pruning alpha          =              1
    Radial Points          =             75
    Spherical Points       =            302
    Total Points           =          44323
    Total Blocks           =            432
    Max Points             =            255
    Max Functions          =             32
    Weights Tolerance      =       1.00E-15

   => Loading Basis Set <=

    Name: (CC-PVDZ AUX)
    Role: JKFIT
    Keyword: DF_BASIS_SCF
    atoms 1 entry LI         line    54 file /Users/joseantoniorodriguesromero/anaconda3/share/psi4/basis/def2-universal-jkfit.gbs 
    atoms 2 entry P          line   519 file /Users/joseantoniorodriguesromero/anaconda3/share/psi4/basis/cc-pvdz-jkfit.gbs 

   => Loading Basis Set <=

    Name: CC-PVDZ
    Role: ORBITAL
    Keyword: BASIS
    atoms 1 entry LI         line    42 file /Users/joseantoniorodriguesromero/anaconda3/share/psi4/basis/cc-pvdz.gbs 
    atoms 2 entry P          line   538 file /Users/joseantoniorodriguesromero/anaconda3/share/psi4/basis/cc-pvdz.gbs 

  Reading orbitals from file /tmp/triplet_LiP.default.68378.180.npy, no projection.

  ==> Integral Setup <==

  DFHelper Memory: AOs need 0.002 GiB; user supplied 0.327 GiB. 
  Using in-core AOs.

  ==> MemDFJK: Density-Fitted J/K Matrices <==

    J tasked:                   Yes
    K tasked:                   Yes
    wK tasked:                   No
    OpenMP threads:               1
    Memory [MiB]:               334
    Algorithm:                 Core
    Schwarz Cutoff:           1E-12
    Mask sparsity (%):       0.0000
    Fitting Condition:        1E-10

   => Auxiliary Basis Set <=

  Basis Set: (CC-PVDZ AUX)
    Blend: CC-PVDZ-JKFIT + DEF2-UNIVERSAL-JKFIT
    Number of shells: 53
    Number of basis functions: 163
    Number of Cartesian functions: 190
    Spherical Harmonics?: true
    Max angular momentum: 3

  Cached 100.0% of DFT collocation blocks in 0.039 [GiB].

  Minimum eigenvalue in the overlap matrix is 2.2803135651E-03.
  Reciprocal condition number of the overlap matrix is 7.3082752904E-04.
    Using symmetric orthogonalization.

  ==> Pre-Iterations <==

  SCF Guess: Orbitals guess was supplied from a previous computation.

   -------------------------------------------------------
    Irrep   Nso     Nmo     Nalpha   Nbeta   Ndocc  Nsocc
   -------------------------------------------------------
     A1        16      16       6       5       5       1
     A2         2       2       0       0       0       0
     B1         7       7       2       1       1       1
     B2         7       7       2       2       2       0
   -------------------------------------------------------
    Total      32      32      10       8       8       2
   -------------------------------------------------------

  ==> Iterations <==

                           Total Energy        Delta E     RMS |[F,P]|

   @DF-UKS iter   0:  -348.71914050296920   -3.48719e+02   1.75095e-02 
   @DF-UKS iter   1:  -348.73205007214585   -1.29096e-02   2.18488e-03 DIIS/ADIIS
   @DF-UKS iter   2:  -348.73271051325162   -6.60441e-04   1.64857e-03 DIIS/ADIIS/DAMP=1%
   @DF-UKS iter   3:  -348.73438861566808   -1.67810e-03   1.19524e-04 DIIS/ADIIS/DAMP=1%
   @DF-UKS iter   4:  -348.73372723163749    6.61384e-04   5.86822e-05 DIIS/DAMP=1%
   @DF-UKS iter   5:  -348.73351380348510    2.13428e-04   9.50555e-06 DIIS/DAMP=1%
   @DF-UKS iter   6:  -348.73357714864011   -6.33452e-05   2.24584e-06 DIIS/DAMP=1%
   @DF-UKS iter   7:  -348.73356860048790    8.54815e-06   2.85174e-07 DIIS/DAMP=1%
   @DF-UKS iter   8:  -348.73357071449453   -2.11401e-06   4.11825e-08 DIIS/DAMP=1%
   @DF-UKS iter   9:  -348.73357045720309    2.57291e-07   5.85897e-09 DIIS/DAMP=1%
   @DF-UKS iter  10:  -348.73357048482950   -2.76264e-08   9.82961e-10 DIIS/DAMP=1%
   @DF-UKS iter  11:  -348.73357048077065    4.05885e-09   1.05622e-10 DIIS/DAMP=1%
  Energy and wave function converged.


  ==> Post-Iterations <==

   Electrons on quadrature grid:
      Nalpha   =   10.0000007486 ; deviation = 7.486e-07
      Nbeta    =    8.0000010486 ; deviation = 1.049e-06
      Ntotal   =   18.0000017971 ; deviation = 1.797e-06 

   @Spin Contamination Metric:   4.013575582E-03
   @S^2 Expected:                2.000000000E+00
   @S^2 Observed:                2.004013576E+00
   @S   Expected:                1.000000000E+00
   @S   Observed:                1.000000000E+00

    Orbital Energies [Eh]
    ---------------------

    Alpha Occupied:                                                       

       1A1   -77.040907     2A1    -6.521576     3A1    -4.689753  
       1B1    -4.686269     1B2    -4.673131     4A1    -2.064183  
       5A1    -0.553882     2B1    -0.238997     6A1    -0.236489  
       2B2    -0.203457  

    Alpha Virtual:                                                        

       7A1    -0.052494     3B1     0.014933     3B2     0.018529  
       8A1     0.028351     4B1     0.070610     4B2     0.078604  
       9A1     0.080311     1A2     0.203152    10A1     0.203227  
      11A1     0.239346     5B1     0.275211     5B2     0.282451  
      12A1     0.415723     6B1     0.462945    13A1     0.484157  
       6B2     0.488518     2A2     0.553518    14A1     0.555309  
      15A1     0.680262     7B1     0.693203     7B2     0.714755  
      16A1     1.322904  

    Beta Occupied:                                                        

       1A1   -77.032904     2A1    -6.513026     3A1    -4.672526  
       1B1    -4.671061     1B2    -4.667912     4A1    -2.055272  
       5A1    -0.476683     2B2    -0.182098  

    Beta Virtual:                                                         

       2B1    -0.115897     6A1    -0.102502     7A1    -0.048098  
       3B2     0.020133     3B1     0.027434     8A1     0.033349  
       9A1     0.080499     4B2     0.085047     4B1     0.092889  
       1A2     0.215114    10A1     0.221222    11A1     0.252838  
       5B2     0.294195     5B1     0.303758    12A1     0.475633  
       6B2     0.501083     6B1     0.506706    13A1     0.519726  
       2A2     0.595125    14A1     0.599422    15A1     0.717683  
       7B2     0.749590     7B1     0.756037    16A1     1.329093  

    Final Occupation by Irrep:
             A1    A2    B1    B2 
    DOCC [     5,    0,    1,    2 ]
    SOCC [     1,    0,    1,    0 ]
    NA   [     6,    0,    2,    2 ]
    NB   [     5,    0,    1,    2 ]

  @DF-UKS Final Energy:  -348.73357048077065

   => Energetics <=

    Nuclear Repulsion Energy =             14.5766975081630452
    One-Electron Energy =                -510.9720162531382357
    Two-Electron Energy =                 167.9627069430191284
    DFT Exchange-Correlation Energy =     -20.3009586788145704
    Empirical Dispersion Energy =           0.0000000000000000
    VV10 Nonlocal Energy =                  0.0000000000000000
    Total Energy =                       -348.7335704807707089

  UHF NO Occupations:
  HONO-2 :    5 A1 1.9988499
  HONO-1 :    2 B1 1.0000000
  HONO-0 :    6 A1 1.0000000
  LUNO+0 :    7 A1 0.0011501
  LUNO+1 :    3 B2 0.0008560
  LUNO+2 :    8 A1 0.0000016
  LUNO+3 :    3 B1 0.0000000


Computation Completed


Properties will be evaluated at   0.000000,   0.000000,   0.000000 [a0]

Properties computed using the SCF density matrix


 Multipole Moments:

 ------------------------------------------------------------------------------------
     Multipole            Electronic (a.u.)      Nuclear  (a.u.)        Total (a.u.)
 ------------------------------------------------------------------------------------

 L = 1.  Multiply by 2.5417464519 to convert [e a0] to [Debye]
 Dipole X            :          0.0000000            0.0000000            0.0000000
 Dipole Y            :          0.0000000            0.0000000            0.0000000
 Dipole Z            :          2.4557572           -1.0010458            1.4547114
 Magnitude           :                                                    1.4547114

 ------------------------------------------------------------------------------------

*** tstop() called on Joses-MacBook-Pro-2.local at Wed Jul 16 18:35:31 2025
Module time:
	user time   =       4.64 seconds =       0.08 minutes
	system time =       3.64 seconds =       0.06 minutes
	total time  =          1 seconds =       0.02 minutes
Total time:
	user time   =      19.53 seconds =       0.33 minutes
	system time =      21.06 seconds =       0.35 minutes
	total time  =          4 seconds =       0.07 minutes

*** tstart() called on Joses-MacBook-Pro-2.local
*** at Wed Jul 16 18:35:31 2025


         ------------------------------------------------------------
                                   SCF GRAD                          
                          Rob Parrish, Justin Turney,                
                       Andy Simmonett, and Alex Sokolov              
         ------------------------------------------------------------

  ==> Geometry <==

    Molecular point group: c2v
    Full point group: C_inf_v

    Geometry (in Angstrom), charge = 0, multiplicity = 3:

       Center              X                  Y                   Z               Mass       
    ------------   -----------------  -----------------  -----------------  -----------------
         LI           0.000000000000     0.000000000000     1.331931376908     7.016003436600
         P            0.000000000000     0.000000000000    -0.301701650519    30.973761998420

  Nuclear repulsion =   14.576697508163045

  ==> Basis Set <==

  Basis Set: CC-PVDZ
    Blend: CC-PVDZ
    Number of shells: 14
    Number of basis functions: 32
    Number of Cartesian functions: 34
    Spherical Harmonics?: true
    Max angular momentum: 2

  ==> DFJKGrad: Density-Fitted SCF Gradients <==

    Gradient:                    1
    J tasked:                  Yes
    K tasked:                  Yes
    wK tasked:                  No
    OpenMP threads:              1
    Integrals threads:           1
    Memory [MiB]:              375
    Schwarz Cutoff:          1E-12
    Fitting Condition:       1E-10

   => Auxiliary Basis Set <=

  Basis Set: (CC-PVDZ AUX)
    Blend: CC-PVDZ-JKFIT + DEF2-UNIVERSAL-JKFIT
    Number of shells: 53
    Number of basis functions: 163
    Number of Cartesian functions: 190
    Spherical Harmonics?: true
    Max angular momentum: 3

  ==> DFT Potential <==

   => LibXC <=

    Version 6.2.2
    S. Lehtola, C. Steigemann, M. J.T. Oliveira, and M. A.L. Marques.,  SoftwareX 7, 1–5 (2018) (10.1016/j.softx.2017.11.002)

   => Composite Functional: B3LYP <= 

    B3LYP Hyb-GGA Exchange-Correlation Functional

    P. J. Stephens, F. J. Devlin, C. F. Chabalowski, and M. J. Frisch.,  J. Phys. Chem. 98, 11623 (1994) (10.1021/j100096a001)

    Deriv               =              1
    GGA                 =           TRUE
    Meta                =          FALSE

    Exchange Hybrid     =           TRUE
    MP2 Hybrid          =          FALSE

   => Exchange Functionals <=

    0.0800   Slater exchange
    0.7200         Becke 88

   => Exact (HF) Exchange <=

    0.2000               HF 

   => Correlation Functionals <=

    0.1900   Vosko, Wilk & Nusair (VWN5_RPA)
    0.8100   Lee, Yang & Parr

   => LibXC Density Thresholds  <==

    XC_HYB_GGA_XC_B3LYP:  1.00E-15 

   => Molecular Quadrature <=

    Radial Scheme          =       TREUTLER
    Pruning Scheme         =           NONE
    Nuclear Scheme         =       TREUTLER

    Blocking Scheme        =         OCTREE
    BS radius alpha        =              1
    Pruning alpha          =              1
    Radial Points          =             75
    Spherical Points       =            302
    Total Points           =          44323
    Total Blocks           =            432
    Max Points             =            255
    Max Functions          =             32
    Weights Tolerance      =       1.00E-15


  -Total Gradient:
     Atom            X                  Y                   Z
    ------   -----------------  -----------------  -----------------
       1        0.000000000000     0.000000000000    -0.191976510075
       2        0.000000000000    -0.000000000000     0.191899628002


*** tstop() called on Joses-MacBook-Pro-2.local at Wed Jul 16 18:35:31 2025
Module time:
	user time   =       0.93 seconds =       0.02 minutes
	system time =       1.53 seconds =       0.03 minutes
	total time  =          0 seconds =       0.00 minutes
Total time:
	user time   =      20.46 seconds =       0.34 minutes
	system time =      22.59 seconds =       0.38 minutes
	total time  =          4 seconds =       0.07 minutes

    			-----------------------------------------

    			 OPTKING 3.0: for geometry optimizations 

    			     By R.A. King, Bethel University     

    			        with contributions from          

    			    A.V. Copan, J. Cayton, A. Heide      

    			-----------------------------------------

    
	                            ===> Fragment 1 <== 

	 Z (Atomic Numbers)          Masses                          Geom                  
	       3.000000             7.016003          0.00000000  0.00000000  2.51698552   
	      15.000000            30.973762          0.00000000  0.00000000 -0.57013349   

	 - Coordinate -           - BOHR/RAD -       - ANG/DEG -
	 R(1,2)           =         3.087119           1.633633


	        --- Internal Coordinate Step in ANG or DEG, aJ/ANG or AJ/DEG ---
	-------------------------------------------------------------------------------
	           Coordinate      Previous         Force          Change          New 
	           ----------      --------        ------          ------        ------
	               R(1,2)       1.63363        1.58132        0.17755       1.81119
	-------------------------------------------------------------------------------

	                                 ==> Convergence Check <==                                  
    
	Measures of convergence in internal coordinates in au.
    
	Criteria marked as inactive (o), active & met (*), and active & unmet ( ).

	----------------------------------------------------------------------------------------------
	   Step    Total Energy     Delta E     Max Force     RMS Force      Max Disp      RMS Disp   
	----------------------------------------------------------------------------------------------
	  Convergence Criteria     1.00e-06 *    3.00e-04 *             o    1.20e-03 *             o
	----------------------------------------------------------------------------------------------
	     4    -348.73357048   -1.06e-01      1.92e-01      1.92e-01 o    3.36e-01      3.36e-01 o  ~
	----------------------------------------------------------------------------------------------

Next Geometry in Ang 
	Fragment 1 (Ang)

	   Li   0.0000000000   0.0000000000   1.4207087176
	    P   0.0000000000   0.0000000000  -0.3904789912


    Structure for next step:
    Molecular point group: c2v
    Full point group: C_inf_v

    Geometry (in Angstrom), charge = 0, multiplicity = 3:

    LI           0.000000000000     0.000000000000     1.476695009418
    P            0.000000000000     0.000000000000    -0.334492699383


Scratch directory: /tmp/
gradient() will perform analytic gradient computation.
   => Libint2 <=

    Primary   basis highest AM E, G, H:  6, 6, 3
    Auxiliary basis highest AM E, G, H:  7, 7, 4
    Onebody   basis highest AM E, G, H:  -, -, -
    Solid Harmonics ordering:            Gaussian

*** tstart() called on Joses-MacBook-Pro-2.local
*** at Wed Jul 16 18:35:31 2025

   => Loading Basis Set <=

    Name: CC-PVDZ
    Role: ORBITAL
    Keyword: BASIS
    atoms 1 entry LI         line    42 file /Users/joseantoniorodriguesromero/anaconda3/share/psi4/basis/cc-pvdz.gbs 
    atoms 2 entry P          line   538 file /Users/joseantoniorodriguesromero/anaconda3/share/psi4/basis/cc-pvdz.gbs 


         ---------------------------------------------------------
                                   SCF
               by Justin Turney, Rob Parrish, Andy Simmonett
                          and Daniel G. A. Smith
                              UKS Reference
                        1 Threads,    500 MiB Core
         ---------------------------------------------------------

  ==> Geometry <==

    Molecular point group: c2v
    Full point group: C_inf_v

    Geometry (in Angstrom), charge = 0, multiplicity = 3:

       Center              X                  Y                   Z               Mass       
    ------------   -----------------  -----------------  -----------------  -----------------
         LI           0.000000000000     0.000000000000     1.476695009418     7.016003436600
         P            0.000000000000     0.000000000000    -0.334492699383    30.973761998420

  Running in c2v symmetry.

  Rotational constants: A = ************  B =      0.89836  C =      0.89836 [cm^-1]
  Rotational constants: A = ************  B =  26932.28098  C =  26932.28098 [MHz]
  Nuclear repulsion =   13.147712059019737

  Charge       = 0
  Multiplicity = 3
  Electrons    = 18
  Nalpha       = 10
  Nbeta        = 8

  ==> Algorithm <==

  SCF Algorithm Type is DF.
  DIIS enabled.
  MOM disabled.
  Fractional occupation disabled.
  Guess Type is READ.
  Energy threshold   = 1.00e-08
  Density threshold  = 1.00e-08
  Integral threshold = 1.00e-12

  ==> Primary Basis <==

  Basis Set: CC-PVDZ
    Blend: CC-PVDZ
    Number of shells: 14
    Number of basis functions: 32
    Number of Cartesian functions: 34
    Spherical Harmonics?: true
    Max angular momentum: 2

  ==> DFT Potential <==

   => LibXC <=

    Version 6.2.2
    S. Lehtola, C. Steigemann, M. J.T. Oliveira, and M. A.L. Marques.,  SoftwareX 7, 1–5 (2018) (10.1016/j.softx.2017.11.002)

[...]
    
	Criteria marked as inactive (o), active & met (*), and active & unmet ( ).

	----------------------------------------------------------------------------------------------
	   Step    Total Energy     Delta E     Max Force     RMS Force      Max Disp      RMS Disp   
	----------------------------------------------------------------------------------------------
	  Convergence Criteria     1.00e-06 *    3.00e-04 *             o    1.20e-03 *             o
	----------------------------------------------------------------------------------------------
	    11    -348.80867520   -3.40e-06      2.45e-04 *    2.45e-04 o    3.43e-03      3.43e-03 o  ~
	----------------------------------------------------------------------------------------------

Next Geometry in Ang 
	Fragment 1 (Ang)

	   Li   0.0000000000   0.0000000000   1.8115092828
	    P   0.0000000000   0.0000000000  -0.4110350116


    Structure for next step:
    Molecular point group: c2v
    Full point group: C_inf_v

    Geometry (in Angstrom), charge = 0, multiplicity = 3:

    LI           0.000000000000     0.000000000000     1.812081680831
    P            0.000000000000     0.000000000000    -0.410462613510


Scratch directory: /tmp/
gradient() will perform analytic gradient computation.
   => Libint2 <=

    Primary   basis highest AM E, G, H:  6, 6, 3
    Auxiliary basis highest AM E, G, H:  7, 7, 4
    Onebody   basis highest AM E, G, H:  -, -, -
    Solid Harmonics ordering:            Gaussian

*** tstart() called on Joses-MacBook-Pro-2.local
*** at Wed Jul 16 18:35:38 2025

   => Loading Basis Set <=

    Name: CC-PVDZ
    Role: ORBITAL
    Keyword: BASIS
    atoms 1 entry LI         line    42 file /Users/joseantoniorodriguesromero/anaconda3/share/psi4/basis/cc-pvdz.gbs 
    atoms 2 entry P          line   538 file /Users/joseantoniorodriguesromero/anaconda3/share/psi4/basis/cc-pvdz.gbs 


         ---------------------------------------------------------
                                   SCF
               by Justin Turney, Rob Parrish, Andy Simmonett
                          and Daniel G. A. Smith
                              UKS Reference
                        1 Threads,    500 MiB Core
         ---------------------------------------------------------

  ==> Geometry <==

    Molecular point group: c2v
    Full point group: C_inf_v

    Geometry (in Angstrom), charge = 0, multiplicity = 3:

       Center              X                  Y                   Z               Mass       
    ------------   -----------------  -----------------  -----------------  -----------------
         LI           0.000000000000     0.000000000000     1.812081680831     7.016003436600
         P            0.000000000000     0.000000000000    -0.410462613510    30.973761998420

  Running in c2v symmetry.

  Rotational constants: A = ************  B =      0.59659  C =      0.59659 [cm^-1]
  Rotational constants: A = ************  B =  17885.42281  C =  17885.42281 [MHz]
  Nuclear repulsion =   10.714285668360791

  Charge       = 0
  Multiplicity = 3
  Electrons    = 18
  Nalpha       = 10
  Nbeta        = 8

  ==> Algorithm <==

  SCF Algorithm Type is DF.
  DIIS enabled.
  MOM disabled.
  Fractional occupation disabled.
  Guess Type is READ.
  Energy threshold   = 1.00e-08
  Density threshold  = 1.00e-08
  Integral threshold = 1.00e-12

  ==> Primary Basis <==

  Basis Set: CC-PVDZ
    Blend: CC-PVDZ
    Number of shells: 14
    Number of basis functions: 32
    Number of Cartesian functions: 34
    Spherical Harmonics?: true
    Max angular momentum: 2

  ==> DFT Potential <==

   => LibXC <=

    Version 6.2.2
    S. Lehtola, C. Steigemann, M. J.T. Oliveira, and M. A.L. Marques.,  SoftwareX 7, 1–5 (2018) (10.1016/j.softx.2017.11.002)

   => Composite Functional: B3LYP <= 

    B3LYP Hyb-GGA Exchange-Correlation Functional

    P. J. Stephens, F. J. Devlin, C. F. Chabalowski, and M. J. Frisch.,  J. Phys. Chem. 98, 11623 (1994) (10.1021/j100096a001)

    Deriv               =              1
    GGA                 =           TRUE
    Meta                =          FALSE

    Exchange Hybrid     =           TRUE
    MP2 Hybrid          =          FALSE

   => Exchange Functionals <=

    0.0800   Slater exchange
    0.7200         Becke 88

   => Exact (HF) Exchange <=

    0.2000               HF 

   => Correlation Functionals <=

    0.1900   Vosko, Wilk & Nusair (VWN5_RPA)
    0.8100   Lee, Yang & Parr

   => LibXC Density Thresholds  <==

    XC_HYB_GGA_XC_B3LYP:  1.00E-15 

   => Molecular Quadrature <=

    Radial Scheme          =       TREUTLER
    Pruning Scheme         =           NONE
    Nuclear Scheme         =       TREUTLER

    Blocking Scheme        =         OCTREE
    BS radius alpha        =              1
    Pruning alpha          =              1
    Radial Points          =             75
    Spherical Points       =            302
    Total Points           =          44331
    Total Blocks           =            437
    Max Points             =            254
    Max Functions          =             32
    Weights Tolerance      =       1.00E-15

   => Loading Basis Set <=

    Name: (CC-PVDZ AUX)
    Role: JKFIT
    Keyword: DF_BASIS_SCF
    atoms 1 entry LI         line    54 file /Users/joseantoniorodriguesromero/anaconda3/share/psi4/basis/def2-universal-jkfit.gbs 
    atoms 2 entry P          line   519 file /Users/joseantoniorodriguesromero/anaconda3/share/psi4/basis/cc-pvdz-jkfit.gbs 

   => Loading Basis Set <=

    Name: CC-PVDZ
    Role: ORBITAL
    Keyword: BASIS
    atoms 1 entry LI         line    42 file /Users/joseantoniorodriguesromero/anaconda3/share/psi4/basis/cc-pvdz.gbs 
    atoms 2 entry P          line   538 file /Users/joseantoniorodriguesromero/anaconda3/share/psi4/basis/cc-pvdz.gbs 

  Reading orbitals from file /tmp/triplet_LiP.default.68378.180.npy, no projection.

  ==> Integral Setup <==

  DFHelper Memory: AOs need 0.002 GiB; user supplied 0.327 GiB. 
  Using in-core AOs.

  ==> MemDFJK: Density-Fitted J/K Matrices <==

    J tasked:                   Yes
    K tasked:                   Yes
    wK tasked:                   No
    OpenMP threads:               1
    Memory [MiB]:               334
    Algorithm:                 Core
    Schwarz Cutoff:           1E-12
    Mask sparsity (%):       0.0000
    Fitting Condition:        1E-10

   => Auxiliary Basis Set <=

  Basis Set: (CC-PVDZ AUX)
    Blend: CC-PVDZ-JKFIT + DEF2-UNIVERSAL-JKFIT
    Number of shells: 53
    Number of basis functions: 163
    Number of Cartesian functions: 190
    Spherical Harmonics?: true
    Max angular momentum: 3

  Cached 100.0% of DFT collocation blocks in 0.039 [GiB].

  Minimum eigenvalue in the overlap matrix is 4.7022534190E-03.
  Reciprocal condition number of the overlap matrix is 1.5365240638E-03.
    Using symmetric orthogonalization.

  ==> Pre-Iterations <==

  SCF Guess: Orbitals guess was supplied from a previous computation.

   -------------------------------------------------------
    Irrep   Nso     Nmo     Nalpha   Nbeta   Ndocc  Nsocc
   -------------------------------------------------------
     A1        16      16       6       5       5       1
     A2         2       2       0       0       0       0
     B1         7       7       2       1       1       1
     B2         7       7       2       2       2       0
   -------------------------------------------------------
    Total      32      32      10       8       8       2
   -------------------------------------------------------

  ==> Iterations <==

                           Total Energy        Delta E     RMS |[F,P]|

   @DF-UKS iter   0:  -348.80836337263014   -3.48808e+02   7.87723e-05 
   @DF-UKS iter   1:  -348.80867562072808   -3.12248e-04   1.33089e-05 DIIS
   @DF-UKS iter   2:  -348.80867560108078    1.96473e-08   1.64328e-05 DIIS/DAMP=1%
   @DF-UKS iter   3:  -348.80865698129418    1.86198e-05   1.11931e-06 DIIS/DAMP=1%
   @DF-UKS iter   4:  -348.80867477972868   -1.77984e-05   4.11502e-07 DIIS/DAMP=1%
   @DF-UKS iter   5:  -348.80867543437950   -6.54651e-07   7.27946e-08 DIIS/DAMP=1%
   @DF-UKS iter   6:  -348.80867567119765   -2.36818e-07   1.92361e-08 DIIS/DAMP=1%
   @DF-UKS iter   7:  -348.80867572437546   -5.31778e-08   3.03834e-09 DIIS/DAMP=1%
   @DF-UKS iter   8:  -348.80867569820072    2.61747e-08   8.21241e-10 DIIS/DAMP=1%
   @DF-UKS iter   9:  -348.80867570330747   -5.10676e-09   1.23586e-10 DIIS/DAMP=1%
  Energy and wave function converged.


  ==> Post-Iterations <==

   Electrons on quadrature grid:
      Nalpha   =   10.0000013261 ; deviation = 1.326e-06
      Nbeta    =    8.0000008290 ; deviation = 8.290e-07
      Ntotal   =   18.0000021551 ; deviation = 2.155e-06 

   @Spin Contamination Metric:   5.322109808E-03
   @S^2 Expected:                2.000000000E+00
   @S^2 Observed:                2.005322110E+00
   @S   Expected:                1.000000000E+00
   @S   Observed:                1.000000000E+00

    Orbital Energies [Eh]
    ---------------------

    Alpha Occupied:                                                       

       1A1   -77.040130     2A1    -6.509426     3A1    -4.676228  
       1B1    -4.675601     1B2    -4.662921     4A1    -2.061643  
       5A1    -0.527159     6A1    -0.231727     2B1    -0.205837  
       2B2    -0.171300  

    Alpha Virtual:                                                        

       7A1    -0.064244     3B1    -0.004020     3B2    -0.001724  
       8A1     0.025781     4B1     0.067669     4B2     0.069516  
       9A1     0.077624    10A1     0.180176     1A2     0.218111  
      11A1     0.218671     5B1     0.243692     5B2     0.249814  
      12A1     0.341293     6B1     0.472779     6B2     0.498730  
      13A1     0.500847     2A2     0.538231    14A1     0.542470  
      15A1     0.555495     7B1     0.639620     7B2     0.662557  
      16A1     1.047406  

    Beta Occupied:                                                        

       1A1   -77.032867     2A1    -6.501609     3A1    -4.661694  
       1B1    -4.660892     1B2    -4.658006     4A1    -2.058545  
       5A1    -0.452821     2B2    -0.150027  

    Beta Virtual:                                                         

       6A1    -0.110062     2B1    -0.085636     7A1    -0.057466  
       3B2     0.001024     3B1     0.013293     8A1     0.029819  
       4B2     0.071840     9A1     0.077919     4B1     0.078346  
      10A1     0.200145     1A2     0.224526    11A1     0.231408  
       5B2     0.261134     5B1     0.272116    12A1     0.377234  
       6B2     0.511825     6B1     0.518211    13A1     0.551564  
       2A2     0.583749    14A1     0.587738    15A1     0.589842  
       7B2     0.697511     7B1     0.705953    16A1     1.076004  

    Final Occupation by Irrep:
             A1    A2    B1    B2 
    DOCC [     5,    0,    1,    2 ]
    SOCC [     1,    0,    1,    0 ]
    NA   [     6,    0,    2,    2 ]
    NB   [     5,    0,    1,    2 ]

  @DF-UKS Final Energy:  -348.80867570330747

   => Energetics <=

    Nuclear Repulsion Energy =             10.7142856683607910
    One-Electron Energy =                -503.6906291759291889
    Two-Electron Energy =                 164.3948302093506584
    DFT Exchange-Correlation Energy =     -20.2271624050897323
    Empirical Dispersion Energy =           0.0000000000000000
    VV10 Nonlocal Energy =                  0.0000000000000000
    Total Energy =                       -348.8086757033074718

  UHF NO Occupations:
  HONO-2 :    2 B2 1.9983564
  HONO-1 :    2 B1 1.0000000
  HONO-0 :    6 A1 1.0000000
  LUNO+0 :    3 B2 0.0016436
  LUNO+1 :    7 A1 0.0010190
  LUNO+2 :    8 A1 0.0000002
  LUNO+3 :    3 B1 0.0000000


Computation Completed


Properties will be evaluated at   0.000000,   0.000000,   0.000000 [a0]

Properties computed using the SCF density matrix


 Multipole Moments:

 ------------------------------------------------------------------------------------
     Multipole            Electronic (a.u.)      Nuclear  (a.u.)        Total (a.u.)
 ------------------------------------------------------------------------------------

 L = 1.  Multiply by 2.5417464519 to convert [e a0] to [Debye]
 Dipole X            :          0.0000000            0.0000000            0.0000000
 Dipole Y            :          0.0000000            0.0000000            0.0000000
 Dipole Z            :          3.5728270           -1.3619146            2.2109124
 Magnitude           :                                                    2.2109124

 ------------------------------------------------------------------------------------

*** tstop() called on Joses-MacBook-Pro-2.local at Wed Jul 16 18:35:39 2025
Module time:
	user time   =       3.17 seconds =       0.05 minutes
	system time =       3.89 seconds =       0.06 minutes
	total time  =          1 seconds =       0.02 minutes
Total time:
	user time   =      60.36 seconds =       1.01 minutes
	system time =      65.71 seconds =       1.10 minutes
	total time  =         12 seconds =       0.20 minutes

*** tstart() called on Joses-MacBook-Pro-2.local
*** at Wed Jul 16 18:35:39 2025


         ------------------------------------------------------------
                                   SCF GRAD                          
                          Rob Parrish, Justin Turney,                
                       Andy Simmonett, and Alex Sokolov              
         ------------------------------------------------------------

  ==> Geometry <==

    Molecular point group: c2v
    Full point group: C_inf_v

    Geometry (in Angstrom), charge = 0, multiplicity = 3:

       Center              X                  Y                   Z               Mass       
    ------------   -----------------  -----------------  -----------------  -----------------
         LI           0.000000000000     0.000000000000     1.812081680831     7.016003436600
         P            0.000000000000     0.000000000000    -0.410462613510    30.973761998420

  Nuclear repulsion =   10.714285668360791

  ==> Basis Set <==

  Basis Set: CC-PVDZ
    Blend: CC-PVDZ
    Number of shells: 14
    Number of basis functions: 32
    Number of Cartesian functions: 34
    Spherical Harmonics?: true
    Max angular momentum: 2

  ==> DFJKGrad: Density-Fitted SCF Gradients <==

    Gradient:                    1
    J tasked:                  Yes
    K tasked:                  Yes
    wK tasked:                  No
    OpenMP threads:              1
    Integrals threads:           1
    Memory [MiB]:              375
    Schwarz Cutoff:          1E-12
    Fitting Condition:       1E-10

   => Auxiliary Basis Set <=

  Basis Set: (CC-PVDZ AUX)
    Blend: CC-PVDZ-JKFIT + DEF2-UNIVERSAL-JKFIT
    Number of shells: 53
    Number of basis functions: 163
    Number of Cartesian functions: 190
    Spherical Harmonics?: true
    Max angular momentum: 3

  ==> DFT Potential <==

   => LibXC <=

    Version 6.2.2
    S. Lehtola, C. Steigemann, M. J.T. Oliveira, and M. A.L. Marques.,  SoftwareX 7, 1–5 (2018) (10.1016/j.softx.2017.11.002)

   => Composite Functional: B3LYP <= 

    B3LYP Hyb-GGA Exchange-Correlation Functional

    P. J. Stephens, F. J. Devlin, C. F. Chabalowski, and M. J. Frisch.,  J. Phys. Chem. 98, 11623 (1994) (10.1021/j100096a001)

    Deriv               =              1
    GGA                 =           TRUE
    Meta                =          FALSE

    Exchange Hybrid     =           TRUE
    MP2 Hybrid          =          FALSE

   => Exchange Functionals <=

    0.0800   Slater exchange
    0.7200         Becke 88

   => Exact (HF) Exchange <=

    0.2000               HF 

   => Correlation Functionals <=

    0.1900   Vosko, Wilk & Nusair (VWN5_RPA)
    0.8100   Lee, Yang & Parr

   => LibXC Density Thresholds  <==

    XC_HYB_GGA_XC_B3LYP:  1.00E-15 

   => Molecular Quadrature <=

    Radial Scheme          =       TREUTLER
    Pruning Scheme         =           NONE
    Nuclear Scheme         =       TREUTLER

    Blocking Scheme        =         OCTREE
    BS radius alpha        =              1
    Pruning alpha          =              1
    Radial Points          =             75
    Spherical Points       =            302
    Total Points           =          44331
    Total Blocks           =            437
    Max Points             =            254
    Max Functions          =             32
    Weights Tolerance      =       1.00E-15


  -Total Gradient:
     Atom            X                  Y                   Z
    ------   -----------------  -----------------  -----------------
       1        0.000000000000     0.000000000000    -0.000040290211
       2        0.000000000000    -0.000000000000     0.000058659565


*** tstop() called on Joses-MacBook-Pro-2.local at Wed Jul 16 18:35:39 2025
Module time:
	user time   =       1.08 seconds =       0.02 minutes
	system time =       1.46 seconds =       0.02 minutes
	total time  =          0 seconds =       0.00 minutes
Total time:
	user time   =      61.44 seconds =       1.02 minutes
	system time =      67.17 seconds =       1.12 minutes
	total time  =         12 seconds =       0.20 minutes

    			-----------------------------------------

    			 OPTKING 3.0: for geometry optimizations 

    			     By R.A. King, Bethel University     

    			        with contributions from          

    			    A.V. Copan, J. Cayton, A. Heide      

    			-----------------------------------------

    
	                            ===> Fragment 1 <== 

	 Z (Atomic Numbers)          Masses                          Geom                  
	       3.000000             7.016003          0.00000000  0.00000000  3.42433809   
	      15.000000            30.973762          0.00000000  0.00000000 -0.77566192   

	 - Coordinate -           - BOHR/RAD -       - ANG/DEG -
	 R(1,2)           =         4.200000           2.222544


	        --- Internal Coordinate Step in ANG or DEG, aJ/ANG or AJ/DEG ---
	-------------------------------------------------------------------------------
	           Coordinate      Previous         Force          Change          New 
	           ----------      --------        ------          ------        ------
	               R(1,2)       2.22254        0.00041        0.00043       2.22297
	-------------------------------------------------------------------------------

	                                 ==> Convergence Check <==                                  
    
	Measures of convergence in internal coordinates in au.
    
	Criteria marked as inactive (o), active & met (*), and active & unmet ( ).

	----------------------------------------------------------------------------------------------
	   Step    Total Energy     Delta E     Max Force     RMS Force      Max Disp      RMS Disp   
	----------------------------------------------------------------------------------------------
	  Convergence Criteria     1.00e-06 *    3.00e-04 *             o    1.20e-03 *             o
	----------------------------------------------------------------------------------------------
	    12    -348.80867570   -5.02e-07 *    4.95e-05 *    4.95e-05 o    8.05e-04 *    8.05e-04 o  ~
	----------------------------------------------------------------------------------------------

Next Geometry in Ang 
	Fragment 1 (Ang)

	   Li   0.0000000000   0.0000000000   1.8122946761
	    P   0.0000000000   0.0000000000  -0.4106756088


    Final optimized geometry and variables:
    Molecular point group: c2v
    Full point group: C_inf_v

    Geometry (in Angstrom), charge = 0, multiplicity = 3:

    LI           0.000000000000     0.000000000000     1.812081680831
    P            0.000000000000     0.000000000000    -0.410462613510


    Psi4 stopped on: Wednesday, 16 July 2025 06:35PM
    Psi4 wall time for execution: 0:00:13.09

*** Psi4 exiting successfully. Buy a developer a beer!
