
    -----------------------------------------------------------------------
          Psi4: An Open-Source Ab Initio Electronic Structure Package
                               Psi4 1.9.1 release

                         Git: Rev {} zzzzzzz 


    D. G. A. Smith, L. A. Burns, A. C. Simmonett, R. M. Parrish,
    M. C. Schieber, R. Galvelis, P. Kraus, H. Kruse, R. Di Remigio,
    A. Alenaizan, A. M. James, S. Lehtola, J. P. Misiewicz, M. Scheurer,
    R. A. Shaw, J. B. Schriber, Y. Xie, Z. L. Glick, D. A. Sirianni,
    J. S. O'Brien, J. M. Waldrop, A. Kumar, E. G. Hohenstein,
    B. P. Pritchard, B. R. Brooks, H. F. Schaefer III, A. Yu. Sokolov,
    K. Patkowski, A. E. DePrince III, U. Bozkaya, R. A. King,
    F. A. Evangelista, J. M. Turney, T. D. Crawford, C. D. Sherrill,
    J. Chem. Phys. 152(18) 184108 (2020). https://doi.org/10.1063/5.0006002

                            Additional Code Authors
    E. T. Seidl, C. L. Janssen, E. F. Valeev, M. L. Leininger,
    J. F. Gonthier, R. M. Richard, H. R. McAlexander, M. Saitow, X. Wang,
    P. Verma, M. H. Lechner, A. Jiang, S. Behnle, A. G. Heide,
    M. F. Herbst, and D. L. Poole

             Previous Authors, Complete List of Code Contributors,
                       and Citations for Specific Modules
    https://github.com/psi4/psi4/blob/master/codemeta.json
    https://github.com/psi4/psi4/graphs/contributors
    http://psicode.org/psi4manual/master/introduction.html#citing-psifour

    -----------------------------------------------------------------------


    Psi4 started on: Wednesday, 16 July 2025 07:07PM

    Process ID: 68867
    Host:       Joses-MacBook-Pro-2.local
    PSIDATADIR: /Users/joseantoniorodriguesromero/anaconda3/share/psi4
    Memory:     500.0 MiB
    Threads:    1
    
  ==> Input File <==

--------------------------------------------------------------------------
molecule { 
0 3
N   0.00000        0.60000        0.00000
N   0.00000       -0.60000        0.00000
}

set { 
basis              cc-pvdz
reference          uks
maxiter            500
geom_maxiter       500
DAMPING_PERCENTAGE 1
guess              SAP
}

optimize('b3lyp')
--------------------------------------------------------------------------

Scratch directory: /tmp/
gradient() will perform analytic gradient computation.
   => Libint2 <=

    Primary   basis highest AM E, G, H:  6, 6, 3
    Auxiliary basis highest AM E, G, H:  7, 7, 4
    Onebody   basis highest AM E, G, H:  -, -, -
    Solid Harmonics ordering:            Gaussian

*** tstart() called on Joses-MacBook-Pro-2.local
*** at Wed Jul 16 19:07:10 2025

   => Loading Basis Set <=

    Name: CC-PVDZ
    Role: ORBITAL
    Keyword: BASIS
    atoms 1-2 entry N          line   168 file /Users/joseantoniorodriguesromero/anaconda3/share/psi4/basis/cc-pvdz.gbs 


         ---------------------------------------------------------
                                   SCF
               by Justin Turney, Rob Parrish, Andy Simmonett
                          and Daniel G. A. Smith
                              UKS Reference
                        1 Threads,    500 MiB Core
         ---------------------------------------------------------

  ==> Geometry <==

    Molecular point group: d2h
    Full point group: D_inf_h

    Geometry (in Angstrom), charge = 0, multiplicity = 3:

       Center              X                  Y                   Z               Mass       
    ------------   -----------------  -----------------  -----------------  -----------------
         N           -0.000000000000     0.600000000000     0.000000000000    14.003074004430
         N            0.000000000000    -0.600000000000     0.000000000000    14.003074004430

  Running in d2h symmetry.

  Rotational constants: A = ************  B =      1.67202  C =      1.67202 [cm^-1]
  Rotational constants: A = ************  B =  50125.80022  C =  50125.80022 [MHz]
  Nuclear repulsion =   21.608069435691668

  Charge       = 0
  Multiplicity = 3
  Electrons    = 14
  Nalpha       = 8
  Nbeta        = 6

  ==> Algorithm <==

  SCF Algorithm Type is DF.
  DIIS enabled.
  MOM disabled.
  Fractional occupation disabled.
  Guess Type is SAP.
  Energy threshold   = 1.00e-08
  Density threshold  = 1.00e-08
  Integral threshold = 1.00e-12

  ==> Primary Basis <==

  Basis Set: CC-PVDZ
    Blend: CC-PVDZ
    Number of shells: 12
    Number of basis functions: 28
    Number of Cartesian functions: 30
    Spherical Harmonics?: true
    Max angular momentum: 2

  ==> DFT Potential <==

   => LibXC <=

    Version 6.2.2
    S. Lehtola, C. Steigemann, M. J.T. Oliveira, and M. A.L. Marques.,  SoftwareX 7, 1–5 (2018) (10.1016/j.softx.2017.11.002)

   => Composite Functional: B3LYP <= 

    B3LYP Hyb-GGA Exchange-Correlation Functional

    P. J. Stephens, F. J. Devlin, C. F. Chabalowski, and M. J. Frisch.,  J. Phys. Chem. 98, 11623 (1994) (10.1021/j100096a001)

    Deriv               =              1
    GGA                 =           TRUE
    Meta                =          FALSE

    Exchange Hybrid     =           TRUE
    MP2 Hybrid          =          FALSE

   => Exchange Functionals <=

    0.0800   Slater exchange
    0.7200         Becke 88

   => Exact (HF) Exchange <=

    0.2000               HF 

   => Correlation Functionals <=

    0.1900   Vosko, Wilk & Nusair (VWN5_RPA)
    0.8100   Lee, Yang & Parr

   => LibXC Density Thresholds  <==

    XC_HYB_GGA_XC_B3LYP:  1.00E-15 

   => Molecular Quadrature <=

    Radial Scheme          =       TREUTLER
    Pruning Scheme         =           NONE
    Nuclear Scheme         =       TREUTLER

    Blocking Scheme        =         OCTREE
    BS radius alpha        =              1
    Pruning alpha          =              1
    Radial Points          =             75
    Spherical Points       =            302
    Total Points           =          41842
    Total Blocks           =            376
    Max Points             =            254
    Max Functions          =             28
    Weights Tolerance      =       1.00E-15

   => Loading Basis Set <=

    Name: (CC-PVDZ AUX)
    Role: JKFIT
    Keyword: DF_BASIS_SCF
    atoms 1-2 entry N          line   171 file /Users/joseantoniorodriguesromero/anaconda3/share/psi4/basis/cc-pvdz-jkfit.gbs 

  ==> Integral Setup <==

  DFHelper Memory: AOs need 0.001 GiB; user supplied 0.332 GiB. 
  Using in-core AOs.

  ==> MemDFJK: Density-Fitted J/K Matrices <==

    J tasked:                   Yes
    K tasked:                   Yes
    wK tasked:                   No
    OpenMP threads:               1
    Memory [MiB]:               340
    Algorithm:                 Core
    Schwarz Cutoff:           1E-12
    Mask sparsity (%):       0.0000
    Fitting Condition:        1E-10

   => Auxiliary Basis Set <=

  Basis Set: (CC-PVDZ AUX)
    Blend: CC-PVDZ-JKFIT
    Number of shells: 48
    Number of basis functions: 140
    Number of Cartesian functions: 162
    Spherical Harmonics?: true
    Max angular momentum: 3

  Cached 100.0% of DFT collocation blocks in 0.034 [GiB].

  Minimum eigenvalue in the overlap matrix is 1.5852317816E-02.
  Reciprocal condition number of the overlap matrix is 5.8037277629E-03.
    Using symmetric orthogonalization.

  ==> Pre-Iterations <==

  SCF Guess: Superposition of Atomic Potentials (doi:10.1021/acs.jctc.8b01089).

  ==> SAP guess <==

   => Molecular Quadrature <=

    Radial Scheme          =       TREUTLER
    Pruning Scheme         =           NONE
    Nuclear Scheme         =       TREUTLER

    Blocking Scheme        =         OCTREE
    BS radius alpha        =              1
    Pruning alpha          =              1
    Radial Points          =             75
    Spherical Points       =            302
    Total Points           =          41842
    Total Blocks           =            376
    Max Points             =            254
    Max Functions          =             28
    Weights Tolerance      =       1.00E-15

   -------------------------------------------------------
    Irrep   Nso     Nmo     Nalpha   Nbeta   Ndocc  Nsocc
   -------------------------------------------------------
     Ag         7       7       3       2       2       1
     B1g        3       3       0       0       0       0
     B2g        1       1       0       0       0       0
     B3g        3       3       1       0       0       1
     Au         1       1       0       0       0       0
     B1u        3       3       1       1       1       0
     B2u        7       7       2       2       2       0
     B3u        3       3       1       1       1       0
   -------------------------------------------------------
    Total      28      28       8       6       6       2
   -------------------------------------------------------

  ==> Iterations <==

                           Total Energy        Delta E     RMS |[F,P]|

   @DF-UKS iter   1:  -109.16430739282214   -1.09164e+02   4.17936e-02 ADIIS/DIIS
   @DF-UKS iter   2:  -109.22340436604780   -5.90970e-02   2.93620e-02 ADIIS/DIIS/DAMP=1%
   @DF-UKS iter   3:  -109.26612370462735   -4.27193e-02   2.83560e-03 ADIIS/DIIS/DAMP=1%
   @DF-UKS iter   4:  -109.27845719025319   -1.23335e-02   4.03223e-04 ADIIS/DIIS/DAMP=1%
   @DF-UKS iter   5:  -109.27727950435876    1.17769e-03   2.62887e-05 DIIS/DAMP=1%
   @DF-UKS iter   6:  -109.27741026269736   -1.30758e-04   3.26087e-06 DIIS/DAMP=1%
   @DF-UKS iter   7:  -109.27740931742021    9.45277e-07   3.33981e-07 DIIS/DAMP=1%
   @DF-UKS iter   8:  -109.27740870245891    6.14961e-07   3.19101e-08 DIIS/DAMP=1%
   @DF-UKS iter   9:  -109.27740878365942   -8.12005e-08   3.05299e-09 DIIS/DAMP=1%
   @DF-UKS iter  10:  -109.27740877383792    9.82151e-09   2.16581e-10 DIIS/DAMP=1%
  Energy and wave function converged.


  ==> Post-Iterations <==

   Electrons on quadrature grid:
      Nalpha   =    7.9999999266 ; deviation = -7.340e-08
      Nbeta    =    5.9999999855 ; deviation = -1.455e-08
      Ntotal   =   13.9999999121 ; deviation = -8.794e-08 

   @Spin Contamination Metric:   5.260741475E-03
   @S^2 Expected:                2.000000000E+00
   @S^2 Observed:                2.005260741E+00
   @S   Expected:                1.000000000E+00
   @S   Observed:                1.000000000E+00

    Orbital Energies [Eh]
    ---------------------

    Alpha Occupied:                                                       

       1Ag   -14.454793     1B2u  -14.454220     2Ag    -1.076989  
       2B2u   -0.631675     3Ag    -0.480346     1B1u   -0.462793  
       1B3u   -0.437065     1B3g   -0.179180  

    Alpha Virtual:                                                        

       1B1g   -0.077051     3B2u    0.341372     4Ag     0.637404  
       2B1u    0.643506     2B3u    0.650001     4B2u    0.677006  
       2B3g    0.745455     5Ag     0.750601     2B1g    0.760189  
       5B2u    1.308095     3B3u    1.474481     3B1u    1.474870  
       1B2g    1.515512     6Ag     1.517391     1Au     1.907470  
       6B2u    1.909772     7Ag     2.354946     3B3g    2.508053  
       3B1g    2.509652     7B2u    2.711395  

    Beta Occupied:                                                        

       1Ag   -14.431848     1B2u  -14.431357     2Ag    -1.025406  
       2B2u   -0.513354     1B3u   -0.414444     1B1u   -0.378026  

    Beta Virtual:                                                         

       3Ag    -0.292188     1B1g   -0.043043     1B3g   -0.005105  
       3B2u    0.378908     2B3u    0.662925     4Ag     0.675476  
       2B1u    0.688041     4B2u    0.761901     2B1g    0.777293  
       5Ag     0.796781     2B3g    0.802291     5B2u    1.339456  
       3B3u    1.520623     3B1u    1.551381     6Ag     1.555140  
       1B2g    1.555188     1Au     1.958050     6B2u    1.958084  
       7Ag     2.419947     3B1g    2.555484     3B3g    2.586945  
       7B2u    2.780295  

    Final Occupation by Irrep:
             Ag   B1g   B2g   B3g    Au   B1u   B2u   B3u 
    DOCC [     2,    0,    0,    0,    0,    1,    2,    1 ]
    SOCC [     1,    0,    0,    1,    0,    0,    0,    0 ]
    NA   [     3,    0,    0,    1,    0,    1,    2,    1 ]
    NB   [     2,    0,    0,    0,    0,    1,    2,    1 ]

  @DF-UKS Final Energy:  -109.27740877383792

   => Energetics <=

    Nuclear Repulsion Energy =             21.6080694356916680
    One-Electron Energy =                -190.4650287759620824
    Two-Electron Energy =                  70.6078512026687974
    DFT Exchange-Correlation Energy =     -11.0283006362363061
    Empirical Dispersion Energy =           0.0000000000000000
    VV10 Nonlocal Energy =                  0.0000000000000000
    Total Energy =                       -109.2774087738379194

  UHF NO Occupations:
  HONO-2 :    2B2u 1.9987676
  HONO-1 :    3 Ag 1.0000000
  HONO-0 :    1B3g 1.0000000
  LUNO+0 :    3B2u 0.0012324
  LUNO+1 :    2B1u 0.0011106
  LUNO+2 :    4 Ag 0.0001630
  LUNO+3 :    2B3u 0.0001255


Computation Completed


Properties will be evaluated at   0.000000,   0.000000,   0.000000 [a0]

Properties computed using the SCF density matrix


 Multipole Moments:

 ------------------------------------------------------------------------------------
     Multipole            Electronic (a.u.)      Nuclear  (a.u.)        Total (a.u.)
 ------------------------------------------------------------------------------------

 L = 1.  Multiply by 2.5417464519 to convert [e a0] to [Debye]
 Dipole X            :          0.0000000            0.0000000            0.0000000
 Dipole Y            :          0.0000000            0.0000000            0.0000000
 Dipole Z            :          0.0000000            0.0000000            0.0000000
 Magnitude           :                                                    0.0000000

 ------------------------------------------------------------------------------------

*** tstop() called on Joses-MacBook-Pro-2.local at Wed Jul 16 19:07:11 2025
Module time:
	user time   =       3.54 seconds =       0.06 minutes
	system time =       4.00 seconds =       0.07 minutes
	total time  =          1 seconds =       0.02 minutes
Total time:
	user time   =       3.54 seconds =       0.06 minutes
	system time =       4.00 seconds =       0.07 minutes
	total time  =          1 seconds =       0.02 minutes

*** tstart() called on Joses-MacBook-Pro-2.local
*** at Wed Jul 16 19:07:11 2025


         ------------------------------------------------------------
                                   SCF GRAD                          
                          Rob Parrish, Justin Turney,                
                       Andy Simmonett, and Alex Sokolov              
         ------------------------------------------------------------

  ==> Geometry <==

    Molecular point group: d2h
    Full point group: D_inf_h

    Geometry (in Angstrom), charge = 0, multiplicity = 3:

       Center              X                  Y                   Z               Mass       
    ------------   -----------------  -----------------  -----------------  -----------------
         N           -0.000000000000     0.600000000000     0.000000000000    14.003074004430
         N            0.000000000000    -0.600000000000     0.000000000000    14.003074004430

  Nuclear repulsion =   21.608069435691668

  ==> Basis Set <==

  Basis Set: CC-PVDZ
    Blend: CC-PVDZ
    Number of shells: 12
    Number of basis functions: 28
    Number of Cartesian functions: 30
    Spherical Harmonics?: true
    Max angular momentum: 2

  ==> DFJKGrad: Density-Fitted SCF Gradients <==

    Gradient:                    1
    J tasked:                  Yes
    K tasked:                  Yes
    wK tasked:                  No
    OpenMP threads:              1
    Integrals threads:           1
    Memory [MiB]:              375
    Schwarz Cutoff:          1E-12
    Fitting Condition:       1E-10

   => Auxiliary Basis Set <=

  Basis Set: (CC-PVDZ AUX)
    Blend: CC-PVDZ-JKFIT
    Number of shells: 48
    Number of basis functions: 140
    Number of Cartesian functions: 162
    Spherical Harmonics?: true
    Max angular momentum: 3

  ==> DFT Potential <==

   => LibXC <=

    Version 6.2.2
    S. Lehtola, C. Steigemann, M. J.T. Oliveira, and M. A.L. Marques.,  SoftwareX 7, 1–5 (2018) (10.1016/j.softx.2017.11.002)

   => Composite Functional: B3LYP <= 

    B3LYP Hyb-GGA Exchange-Correlation Functional

    P. J. Stephens, F. J. Devlin, C. F. Chabalowski, and M. J. Frisch.,  J. Phys. Chem. 98, 11623 (1994) (10.1021/j100096a001)

    Deriv               =              1
    GGA                 =           TRUE
    Meta                =          FALSE

    Exchange Hybrid     =           TRUE
    MP2 Hybrid          =          FALSE

   => Exchange Functionals <=

    0.0800   Slater exchange
    0.7200         Becke 88

   => Exact (HF) Exchange <=

    0.2000               HF 

   => Correlation Functionals <=

    0.1900   Vosko, Wilk & Nusair (VWN5_RPA)
    0.8100   Lee, Yang & Parr

   => LibXC Density Thresholds  <==

    XC_HYB_GGA_XC_B3LYP:  1.00E-15 

   => Molecular Quadrature <=

    Radial Scheme          =       TREUTLER
    Pruning Scheme         =           NONE
    Nuclear Scheme         =       TREUTLER

    Blocking Scheme        =         OCTREE
    BS radius alpha        =              1
    Pruning alpha          =              1
    Radial Points          =             75
    Spherical Points       =            302
    Total Points           =          41842
    Total Blocks           =            376
    Max Points             =            254
    Max Functions          =             28
    Weights Tolerance      =       1.00E-15


  -Total Gradient:
     Atom            X                  Y                   Z
    ------   -----------------  -----------------  -----------------
       1        0.000000000000    -0.019285619685     0.000000000000
       2       -0.000000000000     0.019285619685     0.000000000000


*** tstop() called on Joses-MacBook-Pro-2.local at Wed Jul 16 19:07:11 2025
Module time:
	user time   =       0.40 seconds =       0.01 minutes
	system time =       1.40 seconds =       0.02 minutes
	total time  =          0 seconds =       0.00 minutes
Total time:
	user time   =       3.94 seconds =       0.07 minutes
	system time =       5.40 seconds =       0.09 minutes
	total time  =          1 seconds =       0.02 minutes

    			-----------------------------------------

    			 OPTKING 3.0: for geometry optimizations 

    			     By R.A. King, Bethel University     

    			        with contributions from          

    			    A.V. Copan, J. Cayton, A. Heide      

    			-----------------------------------------

    
	                            ===> Fragment 1 <== 

	 Z (Atomic Numbers)          Masses                          Geom                  
	       7.000000            14.003074         -0.00000000  1.13383568  0.00000000   
	       7.000000            14.003074          0.00000000 -1.13383568  0.00000000   

	 - Coordinate -           - BOHR/RAD -       - ANG/DEG -
	 R(1,2)           =         2.267671           1.200000


	        --- Internal Coordinate Step in ANG or DEG, aJ/ANG or AJ/DEG ---
	-------------------------------------------------------------------------------
	           Coordinate      Previous         Force          Change          New 
	           ----------      --------        ------          ------        ------
	               R(1,2)       1.20000        0.15889        0.00973       1.20973
	-------------------------------------------------------------------------------

	                                 ==> Convergence Check <==                                  
    
	Measures of convergence in internal coordinates in au.
    
	Criteria marked as inactive (o), active & met (*), and active & unmet ( ).

	----------------------------------------------------------------------------------------------
	   Step    Total Energy     Delta E     Max Force     RMS Force      Max Disp      RMS Disp   
	----------------------------------------------------------------------------------------------
	  Convergence Criteria     1.00e-06 *    3.00e-04 *             o    1.20e-03 *             o
	----------------------------------------------------------------------------------------------
	     1    -109.27740877   -1.09e+02      1.93e-02      1.93e-02 o    1.84e-02      1.84e-02 o  ~
	----------------------------------------------------------------------------------------------

Next Geometry in Ang 
	Fragment 1 (Ang)

	    N  -0.0000000000   0.6048663231   0.0000000000
	    N   0.0000000000  -0.6048663231   0.0000000000


    Structure for next step:
    Molecular point group: d2h
    Full point group: D_inf_h

    Geometry (in Angstrom), charge = 0, multiplicity = 3:

    N           -0.000000000000     0.604866323083     0.000000000000
    N            0.000000000000    -0.604866323083     0.000000000000


Scratch directory: /tmp/
gradient() will perform analytic gradient computation.
   => Libint2 <=

    Primary   basis highest AM E, G, H:  6, 6, 3
    Auxiliary basis highest AM E, G, H:  7, 7, 4
    Onebody   basis highest AM E, G, H:  -, -, -
    Solid Harmonics ordering:            Gaussian

*** tstart() called on Joses-MacBook-Pro-2.local
*** at Wed Jul 16 19:07:11 2025

   => Loading Basis Set <=

    Name: CC-PVDZ
    Role: ORBITAL
    Keyword: BASIS
    atoms 1-2 entry N          line   168 file /Users/joseantoniorodriguesromero/anaconda3/share/psi4/basis/cc-pvdz.gbs 


         ---------------------------------------------------------
                                   SCF
               by Justin Turney, Rob Parrish, Andy Simmonett
                          and Daniel G. A. Smith
                              UKS Reference
                        1 Threads,    500 MiB Core
         ---------------------------------------------------------

  ==> Geometry <==

    Molecular point group: d2h
    Full point group: D_inf_h

    Geometry (in Angstrom), charge = 0, multiplicity = 3:

       Center              X                  Y                   Z               Mass       
    ------------   -----------------  -----------------  -----------------  -----------------
         N           -0.000000000000     0.604866323083     0.000000000000    14.003074004430
         N            0.000000000000    -0.604866323083     0.000000000000    14.003074004430

  Running in d2h symmetry.

  Rotational constants: A = ************  B =      1.64522  C =      1.64522 [cm^-1]
  Rotational constants: A = ************  B =  49322.49181  C =  49322.49181 [MHz]
  Nuclear repulsion =   21.434226318513002

  Charge       = 0
  Multiplicity = 3
  Electrons    = 14
  Nalpha       = 8
  Nbeta        = 6

  ==> Algorithm <==

  SCF Algorithm Type is DF.
  DIIS enabled.
  MOM disabled.
  Fractional occupation disabled.
  Guess Type is READ.
  Energy threshold   = 1.00e-08
  Density threshold  = 1.00e-08
  Integral threshold = 1.00e-12

  ==> Primary Basis <==

  Basis Set: CC-PVDZ
    Blend: CC-PVDZ
    Number of shells: 12
    Number of basis functions: 28
    Number of Cartesian functions: 30
    Spherical Harmonics?: true
    Max angular momentum: 2

  ==> DFT Potential <==

   => LibXC <=

    Version 6.2.2
    S. Lehtola, C. Steigemann, M. J.T. Oliveira, and M. A.L. Marques.,  SoftwareX 7, 1–5 (2018) (10.1016/j.softx.2017.11.002)

   => Composite Functional: B3LYP <= 

    B3LYP Hyb-GGA Exchange-Correlation Functional

    P. J. Stephens, F. J. Devlin, C. F. Chabalowski, and M. J. Frisch.,  J. Phys. Chem. 98, 11623 (1994) (10.1021/j100096a001)

    Deriv               =              1
    GGA                 =           TRUE
    Meta                =          FALSE

    Exchange Hybrid     =           TRUE
    MP2 Hybrid          =          FALSE

   => Exchange Functionals <=

    0.0800   Slater exchange
    0.7200         Becke 88

   => Exact (HF) Exchange <=

    0.2000               HF 

   => Correlation Functionals <=

    0.1900   Vosko, Wilk & Nusair (VWN5_RPA)
    0.8100   Lee, Yang & Parr

   => LibXC Density Thresholds  <==

    XC_HYB_GGA_XC_B3LYP:  1.00E-15 

   => Molecular Quadrature <=

    Radial Scheme          =       TREUTLER
    Pruning Scheme         =           NONE
    Nuclear Scheme         =       TREUTLER

    Blocking Scheme        =         OCTREE
    BS radius alpha        =              1
    Pruning alpha          =              1
    Radial Points          =             75
    Spherical Points       =            302
    Total Points           =          41850
    Total Blocks           =            376
    Max Points             =            255
    Max Functions          =             28
    Weights Tolerance      =       1.00E-15

   => Loading Basis Set <=

    Name: (CC-PVDZ AUX)
    Role: JKFIT
    Keyword: DF_BASIS_SCF
    atoms 1-2 entry N          line   171 file /Users/joseantoniorodriguesromero/anaconda3/share/psi4/basis/cc-pvdz-jkfit.gbs 

   => Loading Basis Set <=

    Name: CC-PVDZ
    Role: ORBITAL
    Keyword: BASIS
    atoms 1-2 entry N          line   168 file /Users/joseantoniorodriguesromero/anaconda3/share/psi4/basis/cc-pvdz.gbs 

  Reading orbitals from file /tmp/triplet_NN.default.68867.180.npy, no projection.

  ==> Integral Setup <==

  DFHelper Memory: AOs need 0.001 GiB; user supplied 0.332 GiB. 
  Using in-core AOs.

  ==> MemDFJK: Density-Fitted J/K Matrices <==

    J tasked:                   Yes
    K tasked:                   Yes
    wK tasked:                   No
    OpenMP threads:               1
    Memory [MiB]:               340
    Algorithm:                 Core
    Schwarz Cutoff:           1E-12
    Mask sparsity (%):       0.0000
    Fitting Condition:        1E-10

   => Auxiliary Basis Set <=

  Basis Set: (CC-PVDZ AUX)
    Blend: CC-PVDZ-JKFIT
    Number of shells: 48
    Number of basis functions: 140
    Number of Cartesian functions: 162
    Spherical Harmonics?: true
    Max angular momentum: 3

  Cached 100.0% of DFT collocation blocks in 0.034 [GiB].

  Minimum eigenvalue in the overlap matrix is 1.6305188291E-02.
  Reciprocal condition number of the overlap matrix is 5.9885294659E-03.
    Using symmetric orthogonalization.

  ==> Pre-Iterations <==

  SCF Guess: Orbitals guess was supplied from a previous computation.

   -------------------------------------------------------
    Irrep   Nso     Nmo     Nalpha   Nbeta   Ndocc  Nsocc
   -------------------------------------------------------
     Ag         7       7       3       2       2       1
     B1g        3       3       0       0       0       0
     B2g        1       1       0       0       0       0
     B3g        3       3       1       0       0       1
     Au         1       1       0       0       0       0
     B1u        3       3       1       1       1       0
     B2u        7       7       2       2       2       0
     B3u        3       3       1       1       1       0
   -------------------------------------------------------
    Total      28      28       8       6       6       2
   -------------------------------------------------------

  ==> Iterations <==

                           Total Energy        Delta E     RMS |[F,P]|

   @DF-UKS iter   0:  -109.26620992880348   -1.09266e+02   2.67783e-03 
   @DF-UKS iter   1:  -109.27758562134339   -1.13757e-02   5.17551e-04 ADIIS/DIIS
   @DF-UKS iter   2:  -109.27759556056718   -9.93922e-06   3.46231e-04 ADIIS/DIIS/DAMP=1%
   @DF-UKS iter   3:  -109.27749312854314    1.02432e-04   1.79223e-05 DIIS/DAMP=1%
   @DF-UKS iter   4:  -109.27760759620067   -1.14468e-04   4.61697e-06 DIIS/DAMP=1%
   @DF-UKS iter   5:  -109.27760158540042    6.01080e-06   2.63925e-07 DIIS/DAMP=1%
   @DF-UKS iter   6:  -109.27760306203983   -1.47664e-06   1.69557e-08 DIIS/DAMP=1%
   @DF-UKS iter   7:  -109.27760301323188    4.88079e-08   2.19280e-09 DIIS/DAMP=1%
   @DF-UKS iter   8:  -109.27760301549230   -2.26042e-09   3.15464e-10 DIIS/DAMP=1%
  Energy and wave function converged.


  ==> Post-Iterations <==

   Electrons on quadrature grid:
      Nalpha   =    7.9999999509 ; deviation = -4.913e-08
      Nbeta    =    6.0000000081 ; deviation = 8.146e-09
      Ntotal   =   13.9999999590 ; deviation = -4.098e-08 

   @Spin Contamination Metric:   5.361475743E-03
   @S^2 Expected:                2.000000000E+00
   @S^2 Observed:                2.005361476E+00
   @S   Expected:                1.000000000E+00
   @S   Observed:                1.000000000E+00

    Orbital Energies [Eh]
    ---------------------

    Alpha Occupied:                                                       

       1Ag   -14.456344     1B2u  -14.455820     2Ag    -1.071622  
       2B2u   -0.633785     3Ag    -0.479745     1B1u   -0.460371  
       1B3u   -0.434370     1B3g   -0.182685  

    Alpha Virtual:                                                        

       1B1g   -0.080555     3B2u    0.333637     4Ag     0.640017  
       2B1u    0.644640     2B3u    0.651364     4B2u    0.669240  
       2B3g    0.744649     5Ag     0.751113     2B1g    0.759286  
       5B2u    1.302177     3B3u    1.468650     3B1u    1.469089  
       1B2g    1.518940     6Ag     1.520826     1Au     1.902546  
       6B2u    1.904846     7Ag     2.339049     3B3g    2.497880  
       3B1g    2.499477     7B2u    2.704668  

    Beta Occupied:                                                        

       1Ag   -14.433390     1B2u  -14.432945     2Ag    -1.019746  
       2B2u   -0.515868     1B3u   -0.411781     1B1u   -0.375397  

    Beta Virtual:                                                         

       3Ag    -0.291724     1B1g   -0.046715     1B3g   -0.008728  
       3B2u    0.372459     2B3u    0.664301     4Ag     0.678742  
       2B1u    0.689478     4B2u    0.753315     2B1g    0.776268  
       5Ag     0.796702     2B3g    0.801233     5B2u    1.333501  
       3B3u    1.514796     3B1u    1.545426     6Ag     1.558668  
       1B2g    1.558724     1Au     1.952909     6B2u    1.952938  
       7Ag     2.404085     3B1g    2.545186     3B3g    2.576622  
       7B2u    2.773612  

    Final Occupation by Irrep:
             Ag   B1g   B2g   B3g    Au   B1u   B2u   B3u 
    DOCC [     2,    0,    0,    0,    0,    1,    2,    1 ]
    SOCC [     1,    0,    0,    1,    0,    0,    0,    0 ]
    NA   [     3,    0,    0,    1,    0,    1,    2,    1 ]
    NB   [     2,    0,    0,    0,    0,    1,    2,    1 ]

  @DF-UKS Final Energy:  -109.27760301549230

   => Energetics <=

    Nuclear Repulsion Energy =             21.4342263185130015
    One-Electron Energy =                -190.1300400323883650
    Two-Electron Energy =                  70.4395793128559546
    DFT Exchange-Correlation Energy =     -11.0213686144728840
    Empirical Dispersion Energy =           0.0000000000000000
    VV10 Nonlocal Energy =                  0.0000000000000000
    Total Energy =                       -109.2776030154923035

  UHF NO Occupations:
  HONO-2 :    2B2u 1.9987412
  HONO-1 :    3 Ag 1.0000000
  HONO-0 :    1B3g 1.0000000
  LUNO+0 :    3B2u 0.0012588
  LUNO+1 :    2B1u 0.0011302
  LUNO+2 :    4 Ag 0.0001664
  LUNO+3 :    2B3u 0.0001265


Computation Completed


Properties will be evaluated at   0.000000,   0.000000,   0.000000 [a0]

Properties computed using the SCF density matrix


 Multipole Moments:

 ------------------------------------------------------------------------------------
     Multipole            Electronic (a.u.)      Nuclear  (a.u.)        Total (a.u.)
 ------------------------------------------------------------------------------------

 L = 1.  Multiply by 2.5417464519 to convert [e a0] to [Debye]
 Dipole X            :          0.0000000            0.0000000            0.0000000
 Dipole Y            :          0.0000000            0.0000000            0.0000000
 Dipole Z            :          0.0000000            0.0000000            0.0000000
 Magnitude           :                                                    0.0000000

 ------------------------------------------------------------------------------------

*** tstop() called on Joses-MacBook-Pro-2.local at Wed Jul 16 19:07:12 2025
Module time:
	user time   =       3.45 seconds =       0.06 minutes
	system time =       2.65 seconds =       0.04 minutes
	total time  =          1 seconds =       0.02 minutes
Total time:
	user time   =       7.42 seconds =       0.12 minutes
	system time =       8.25 seconds =       0.14 minutes
	total time  =          2 seconds =       0.03 minutes

*** tstart() called on Joses-MacBook-Pro-2.local
*** at Wed Jul 16 19:07:12 2025


         ------------------------------------------------------------
                                   SCF GRAD                          
                          Rob Parrish, Justin Turney,                
                       Andy Simmonett, and Alex Sokolov              
         ------------------------------------------------------------

  ==> Geometry <==

    Molecular point group: d2h
    Full point group: D_inf_h

    Geometry (in Angstrom), charge = 0, multiplicity = 3:

       Center              X                  Y                   Z               Mass       
    ------------   -----------------  -----------------  -----------------  -----------------
         N           -0.000000000000     0.604866323083     0.000000000000    14.003074004430
         N            0.000000000000    -0.604866323083     0.000000000000    14.003074004430

  Nuclear repulsion =   21.434226318513002

  ==> Basis Set <==

  Basis Set: CC-PVDZ
    Blend: CC-PVDZ
    Number of shells: 12
    Number of basis functions: 28
    Number of Cartesian functions: 30
    Spherical Harmonics?: true
    Max angular momentum: 2

  ==> DFJKGrad: Density-Fitted SCF Gradients <==

    Gradient:                    1
    J tasked:                  Yes
    K tasked:                  Yes
    wK tasked:                  No
    OpenMP threads:              1
    Integrals threads:           1
    Memory [MiB]:              375
    Schwarz Cutoff:          1E-12
    Fitting Condition:       1E-10

   => Auxiliary Basis Set <=

  Basis Set: (CC-PVDZ AUX)
    Blend: CC-PVDZ-JKFIT
    Number of shells: 48
    Number of basis functions: 140
    Number of Cartesian functions: 162
    Spherical Harmonics?: true
    Max angular momentum: 3

  ==> DFT Potential <==

   => LibXC <=

    Version 6.2.2
    S. Lehtola, C. Steigemann, M. J.T. Oliveira, and M. A.L. Marques.,  SoftwareX 7, 1–5 (2018) (10.1016/j.softx.2017.11.002)

   => Composite Functional: B3LYP <= 

    B3LYP Hyb-GGA Exchange-Correlation Functional

    P. J. Stephens, F. J. Devlin, C. F. Chabalowski, and M. J. Frisch.,  J. Phys. Chem. 98, 11623 (1994) (10.1021/j100096a001)

    Deriv               =              1
    GGA                 =           TRUE
    Meta                =          FALSE

    Exchange Hybrid     =           TRUE
    MP2 Hybrid          =          FALSE

   => Exchange Functionals <=

    0.0800   Slater exchange
    0.7200         Becke 88

   => Exact (HF) Exchange <=

    0.2000               HF 

   => Correlation Functionals <=

    0.1900   Vosko, Wilk & Nusair (VWN5_RPA)
    0.8100   Lee, Yang & Parr

   => LibXC Density Thresholds  <==

    XC_HYB_GGA_XC_B3LYP:  1.00E-15 

   => Molecular Quadrature <=

    Radial Scheme          =       TREUTLER
    Pruning Scheme         =           NONE
    Nuclear Scheme         =       TREUTLER

    Blocking Scheme        =         OCTREE
    BS radius alpha        =              1
    Pruning alpha          =              1
    Radial Points          =             75
    Spherical Points       =            302
    Total Points           =          41850
    Total Blocks           =            376
    Max Points             =            255
    Max Functions          =             28
    Weights Tolerance      =       1.00E-15


  -Total Gradient:
     Atom            X                  Y                   Z
    ------   -----------------  -----------------  -----------------
       1        0.000000000000    -0.002044732616     0.000000000000
       2       -0.000000000000     0.002044732616     0.000000000000


*** tstop() called on Joses-MacBook-Pro-2.local at Wed Jul 16 19:07:12 2025
Module time:
	user time   =       0.48 seconds =       0.01 minutes
	system time =       1.18 seconds =       0.02 minutes
	total time  =          0 seconds =       0.00 minutes
Total time:
	user time   =       7.91 seconds =       0.13 minutes
	system time =       9.43 seconds =       0.16 minutes
	total time  =          2 seconds =       0.03 minutes

    			-----------------------------------------

    			 OPTKING 3.0: for geometry optimizations 

    			     By R.A. King, Bethel University     

    			        with contributions from          

    			    A.V. Copan, J. Cayton, A. Heide      

    			-----------------------------------------

    
	                            ===> Fragment 1 <== 

	 Z (Atomic Numbers)          Masses                          Geom                  
	       7.000000            14.003074         -0.00000000  1.14303169  0.00000000   
	       7.000000            14.003074          0.00000000 -1.14303169  0.00000000   

	 - Coordinate -           - BOHR/RAD -       - ANG/DEG -
	 R(1,2)           =         2.286063           1.209733


	        --- Internal Coordinate Step in ANG or DEG, aJ/ANG or AJ/DEG ---
	-------------------------------------------------------------------------------
	           Coordinate      Previous         Force          Change          New 
	           ----------      --------        ------          ------        ------
	               R(1,2)       1.20973        0.01685        0.00115       1.21089
	-------------------------------------------------------------------------------

	                                 ==> Convergence Check <==                                  
    
	Measures of convergence in internal coordinates in au.
    
	Criteria marked as inactive (o), active & met (*), and active & unmet ( ).

	----------------------------------------------------------------------------------------------
	   Step    Total Energy     Delta E     Max Force     RMS Force      Max Disp      RMS Disp   
	----------------------------------------------------------------------------------------------
	  Convergence Criteria     1.00e-06 *    3.00e-04 *             o    1.20e-03 *             o
	----------------------------------------------------------------------------------------------
	     2    -109.27760302   -1.94e-04      2.04e-03      2.04e-03 o    2.18e-03      2.18e-03 o  ~
	----------------------------------------------------------------------------------------------

Next Geometry in Ang 
	Fragment 1 (Ang)

	    N  -0.0000000000   0.6054434559   0.0000000000
	    N   0.0000000000  -0.6054434559   0.0000000000


    Structure for next step:
    Molecular point group: d2h
    Full point group: D_inf_h

    Geometry (in Angstrom), charge = 0, multiplicity = 3:

    N           -0.000000000000     0.605443455927     0.000000000000
    N            0.000000000000    -0.605443455927     0.000000000000


Scratch directory: /tmp/
gradient() will perform analytic gradient computation.
   => Libint2 <=

    Primary   basis highest AM E, G, H:  6, 6, 3
    Auxiliary basis highest AM E, G, H:  7, 7, 4
    Onebody   basis highest AM E, G, H:  -, -, -
    Solid Harmonics ordering:            Gaussian

*** tstart() called on Joses-MacBook-Pro-2.local
*** at Wed Jul 16 19:07:12 2025

   => Loading Basis Set <=

    Name: CC-PVDZ
    Role: ORBITAL
    Keyword: BASIS
    atoms 1-2 entry N          line   168 file /Users/joseantoniorodriguesromero/anaconda3/share/psi4/basis/cc-pvdz.gbs 


         ---------------------------------------------------------
                                   SCF
               by Justin Turney, Rob Parrish, Andy Simmonett
                          and Daniel G. A. Smith
                              UKS Reference
                        1 Threads,    500 MiB Core
         ---------------------------------------------------------

  ==> Geometry <==

    Molecular point group: d2h
    Full point group: D_inf_h

    Geometry (in Angstrom), charge = 0, multiplicity = 3:

       Center              X                  Y                   Z               Mass       
    ------------   -----------------  -----------------  -----------------  -----------------
         N           -0.000000000000     0.605443455927     0.000000000000    14.003074004430
         N            0.000000000000    -0.605443455927     0.000000000000    14.003074004430

  Running in d2h symmetry.

  Rotational constants: A = ************  B =      1.64209  C =      1.64209 [cm^-1]
  Rotational constants: A = ************  B =  49228.50430  C =  49228.50430 [MHz]
  Nuclear repulsion =   21.413794359309886

  Charge       = 0
  Multiplicity = 3
  Electrons    = 14
  Nalpha       = 8
  Nbeta        = 6

  ==> Algorithm <==

  SCF Algorithm Type is DF.
  DIIS enabled.
  MOM disabled.
  Fractional occupation disabled.
  Guess Type is READ.
  Energy threshold   = 1.00e-08
  Density threshold  = 1.00e-08
  Integral threshold = 1.00e-12

  ==> Primary Basis <==

  Basis Set: CC-PVDZ
    Blend: CC-PVDZ
    Number of shells: 12
    Number of basis functions: 28
    Number of Cartesian functions: 30
    Spherical Harmonics?: true
    Max angular momentum: 2

  ==> DFT Potential <==

   => LibXC <=

    Version 6.2.2
    S. Lehtola, C. Steigemann, M. J.T. Oliveira, and M. A.L. Marques.,  SoftwareX 7, 1–5 (2018) (10.1016/j.softx.2017.11.002)

   => Composite Functional: B3LYP <= 

    B3LYP Hyb-GGA Exchange-Correlation Functional

    P. J. Stephens, F. J. Devlin, C. F. Chabalowski, and M. J. Frisch.,  J. Phys. Chem. 98, 11623 (1994) (10.1021/j100096a001)

    Deriv               =              1
    GGA                 =           TRUE
    Meta                =          FALSE

    Exchange Hybrid     =           TRUE
    MP2 Hybrid          =          FALSE

   => Exchange Functionals <=

    0.0800   Slater exchange
    0.7200         Becke 88

   => Exact (HF) Exchange <=

    0.2000               HF 

   => Correlation Functionals <=

    0.1900   Vosko, Wilk & Nusair (VWN5_RPA)
    0.8100   Lee, Yang & Parr

   => LibXC Density Thresholds  <==

    XC_HYB_GGA_XC_B3LYP:  1.00E-15 

   => Molecular Quadrature <=

    Radial Scheme          =       TREUTLER
    Pruning Scheme         =           NONE
    Nuclear Scheme         =       TREUTLER

    Blocking Scheme        =         OCTREE
    BS radius alpha        =              1
    Pruning alpha          =              1
    Radial Points          =             75
    Spherical Points       =            302
    Total Points           =          41850
    Total Blocks           =            376
    Max Points             =            255
    Max Functions          =             28
    Weights Tolerance      =       1.00E-15

   => Loading Basis Set <=

    Name: (CC-PVDZ AUX)
    Role: JKFIT
    Keyword: DF_BASIS_SCF
    atoms 1-2 entry N          line   171 file /Users/joseantoniorodriguesromero/anaconda3/share/psi4/basis/cc-pvdz-jkfit.gbs 

   => Loading Basis Set <=

    Name: CC-PVDZ
    Role: ORBITAL
    Keyword: BASIS
    atoms 1-2 entry N          line   168 file /Users/joseantoniorodriguesromero/anaconda3/share/psi4/basis/cc-pvdz.gbs 

  Reading orbitals from file /tmp/triplet_NN.default.68867.180.npy, no projection.

  ==> Integral Setup <==

  DFHelper Memory: AOs need 0.001 GiB; user supplied 0.332 GiB. 
  Using in-core AOs.

  ==> MemDFJK: Density-Fitted J/K Matrices <==

    J tasked:                   Yes
    K tasked:                   Yes
    wK tasked:                   No
    OpenMP threads:               1
    Memory [MiB]:               340
    Algorithm:                 Core
    Schwarz Cutoff:           1E-12
    Mask sparsity (%):       0.0000
    Fitting Condition:        1E-10

   => Auxiliary Basis Set <=

  Basis Set: (CC-PVDZ AUX)
    Blend: CC-PVDZ-JKFIT
    Number of shells: 48
    Number of basis functions: 140
    Number of Cartesian functions: 162
    Spherical Harmonics?: true
    Max angular momentum: 3

  Cached 100.0% of DFT collocation blocks in 0.034 [GiB].

  Minimum eigenvalue in the overlap matrix is 1.6359610963E-02.
  Reciprocal condition number of the overlap matrix is 6.0107724188E-03.
    Using symmetric orthogonalization.

  ==> Pre-Iterations <==

  SCF Guess: Orbitals guess was supplied from a previous computation.

   -------------------------------------------------------
    Irrep   Nso     Nmo     Nalpha   Nbeta   Ndocc  Nsocc
   -------------------------------------------------------
     Ag         7       7       3       2       2       1
     B1g        3       3       0       0       0       0
     B2g        1       1       0       0       0       0
     B3g        3       3       1       0       0       1
     Au         1       1       0       0       0       0
     B1u        3       3       1       1       1       0
     B2u        7       7       2       2       2       0
     B3u        3       3       1       1       1       0
   -------------------------------------------------------
    Total      28      28       8       6       6       2
   -------------------------------------------------------

  ==> Iterations <==

                           Total Energy        Delta E     RMS |[F,P]|

   @DF-UKS iter   0:  -109.27626188956081   -1.09276e+02   3.13967e-04 
   @DF-UKS iter   1:  -109.27760507451423   -1.34318e-03   6.11501e-05 DIIS
   @DF-UKS iter   2:  -109.27760521348435   -1.38970e-07   4.08871e-05 DIIS/DAMP=1%
   @DF-UKS iter   3:  -109.27759235486944    1.28586e-05   2.12269e-06 DIIS/DAMP=1%
   @DF-UKS iter   4:  -109.27760586418491   -1.35093e-05   5.48507e-07 DIIS/DAMP=1%
   @DF-UKS iter   5:  -109.27760514782236    7.16363e-07   3.13115e-08 DIIS/DAMP=1%
   @DF-UKS iter   6:  -109.27760532296905   -1.75147e-07   2.01777e-09 DIIS/DAMP=1%
   @DF-UKS iter   7:  -109.27760531718174    5.78731e-09   2.59226e-10 DIIS/DAMP=1%
  Energy and wave function converged.


  ==> Post-Iterations <==

   Electrons on quadrature grid:
      Nalpha   =    7.9999999538 ; deviation = -4.618e-08
      Nbeta    =    6.0000000109 ; deviation = 1.088e-08
      Ntotal   =   13.9999999647 ; deviation = -3.531e-08 

   @Spin Contamination Metric:   5.373496650E-03
   @S^2 Expected:                2.000000000E+00
   @S^2 Observed:                2.005373497E+00
   @S   Expected:                1.000000000E+00
   @S   Observed:                1.000000000E+00

    Orbital Energies [Eh]
    ---------------------

    Alpha Occupied:                                                       

       1Ag   -14.456526     1B2u  -14.456008     2Ag    -1.070990  
       2B2u   -0.634035     3Ag    -0.479674     1B1u   -0.460087  
       1B3u   -0.434054     1B3g   -0.183096  

    Alpha Virtual:                                                        

       1B1g   -0.080966     3B2u    0.332699     4Ag     0.640324  
       2B1u    0.644769     2B3u    0.651520     4B2u    0.668359  
       2B3g    0.744556     5Ag     0.751179     2B1g    0.759182  
       5B2u    1.301486     3B3u    1.467976     3B1u    1.468420  
       1B2g    1.519346     6Ag     1.521233     1Au     1.901967  
       6B2u    1.904266     7Ag     2.337143     3B3g    2.496672  
       3B1g    2.498269     7B2u    2.703921  

    Beta Occupied:                                                        

       1Ag   -14.433572     1B2u  -14.433131     2Ag    -1.019079  
       2B2u   -0.516166     1B3u   -0.411468     1B1u   -0.375089  

    Beta Virtual:                                                         

       3Ag    -0.291669     1B1g   -0.047146     1B3g   -0.009153  
       3B2u    0.371677     2B3u    0.664459     4Ag     0.679129  
       2B1u    0.689643     4B2u    0.752333     2B1g    0.776150  
       5Ag     0.796697     2B3g    0.801111     5B2u    1.332806  
       3B3u    1.514122     3B1u    1.544737     6Ag     1.559086  
       1B2g    1.559143     1Au     1.952304     6B2u    1.952333  
       7Ag     2.402183     3B1g    2.543963     3B3g    2.575396  
       7B2u    2.772869  

    Final Occupation by Irrep:
             Ag   B1g   B2g   B3g    Au   B1u   B2u   B3u 
    DOCC [     2,    0,    0,    0,    0,    1,    2,    1 ]
    SOCC [     1,    0,    0,    1,    0,    0,    0,    0 ]
    NA   [     3,    0,    0,    1,    0,    1,    2,    1 ]
    NB   [     2,    0,    0,    0,    0,    1,    2,    1 ]

  @DF-UKS Final Energy:  -109.27760531718174

   => Energetics <=

    Nuclear Repulsion Energy =             21.4137943593098861
    One-Electron Energy =                -190.0906223669535393
    Two-Electron Energy =                  70.4197804303131250
    DFT Exchange-Correlation Energy =     -11.0205577398512133
    Empirical Dispersion Energy =           0.0000000000000000
    VV10 Nonlocal Energy =                  0.0000000000000000
    Total Energy =                       -109.2776053171817381

  UHF NO Occupations:
  HONO-2 :    2B2u 1.9987380
  HONO-1 :    3 Ag 1.0000000
  HONO-0 :    1B3g 1.0000000
  LUNO+0 :    3B2u 0.0012620
  LUNO+1 :    2B1u 0.0011325
  LUNO+2 :    4 Ag 0.0001668
  LUNO+3 :    2B3u 0.0001266


Computation Completed


Properties will be evaluated at   0.000000,   0.000000,   0.000000 [a0]

Properties computed using the SCF density matrix


 Multipole Moments:

 ------------------------------------------------------------------------------------
     Multipole            Electronic (a.u.)      Nuclear  (a.u.)        Total (a.u.)
 ------------------------------------------------------------------------------------

 L = 1.  Multiply by 2.5417464519 to convert [e a0] to [Debye]
 Dipole X            :          0.0000000            0.0000000            0.0000000
 Dipole Y            :          0.0000000            0.0000000            0.0000000
 Dipole Z            :          0.0000000            0.0000000            0.0000000
 Magnitude           :                                                    0.0000000

 ------------------------------------------------------------------------------------

*** tstop() called on Joses-MacBook-Pro-2.local at Wed Jul 16 19:07:12 2025
Module time:
	user time   =       2.37 seconds =       0.04 minutes
	system time =       3.11 seconds =       0.05 minutes
	total time  =          0 seconds =       0.00 minutes
Total time:
	user time   =      10.31 seconds =       0.17 minutes
	system time =      12.75 seconds =       0.21 minutes
	total time  =          2 seconds =       0.03 minutes

*** tstart() called on Joses-MacBook-Pro-2.local
*** at Wed Jul 16 19:07:12 2025


         ------------------------------------------------------------
                                   SCF GRAD                          
                          Rob Parrish, Justin Turney,                
                       Andy Simmonett, and Alex Sokolov              
         ------------------------------------------------------------

  ==> Geometry <==

    Molecular point group: d2h
    Full point group: D_inf_h

    Geometry (in Angstrom), charge = 0, multiplicity = 3:

       Center              X                  Y                   Z               Mass       
    ------------   -----------------  -----------------  -----------------  -----------------
         N           -0.000000000000     0.605443455927     0.000000000000    14.003074004430
         N            0.000000000000    -0.605443455927     0.000000000000    14.003074004430

  Nuclear repulsion =   21.413794359309886

  ==> Basis Set <==

  Basis Set: CC-PVDZ
    Blend: CC-PVDZ
    Number of shells: 12
    Number of basis functions: 28
    Number of Cartesian functions: 30
    Spherical Harmonics?: true
    Max angular momentum: 2

  ==> DFJKGrad: Density-Fitted SCF Gradients <==

    Gradient:                    1
    J tasked:                  Yes
    K tasked:                  Yes
    wK tasked:                  No
    OpenMP threads:              1
    Integrals threads:           1
    Memory [MiB]:              375
    Schwarz Cutoff:          1E-12
    Fitting Condition:       1E-10

   => Auxiliary Basis Set <=

  Basis Set: (CC-PVDZ AUX)
    Blend: CC-PVDZ-JKFIT
    Number of shells: 48
    Number of basis functions: 140
    Number of Cartesian functions: 162
    Spherical Harmonics?: true
    Max angular momentum: 3

  ==> DFT Potential <==

   => LibXC <=

    Version 6.2.2
    S. Lehtola, C. Steigemann, M. J.T. Oliveira, and M. A.L. Marques.,  SoftwareX 7, 1–5 (2018) (10.1016/j.softx.2017.11.002)

   => Composite Functional: B3LYP <= 

    B3LYP Hyb-GGA Exchange-Correlation Functional

    P. J. Stephens, F. J. Devlin, C. F. Chabalowski, and M. J. Frisch.,  J. Phys. Chem. 98, 11623 (1994) (10.1021/j100096a001)

    Deriv               =              1
    GGA                 =           TRUE
    Meta                =          FALSE

    Exchange Hybrid     =           TRUE
    MP2 Hybrid          =          FALSE

   => Exchange Functionals <=

    0.0800   Slater exchange
    0.7200         Becke 88

   => Exact (HF) Exchange <=

    0.2000               HF 

   => Correlation Functionals <=

    0.1900   Vosko, Wilk & Nusair (VWN5_RPA)
    0.8100   Lee, Yang & Parr

   => LibXC Density Thresholds  <==

    XC_HYB_GGA_XC_B3LYP:  1.00E-15 

   => Molecular Quadrature <=

    Radial Scheme          =       TREUTLER
    Pruning Scheme         =           NONE
    Nuclear Scheme         =       TREUTLER

    Blocking Scheme        =         OCTREE
    BS radius alpha        =              1
    Pruning alpha          =              1
    Radial Points          =             75
    Spherical Points       =            302
    Total Points           =          41850
    Total Blocks           =            376
    Max Points             =            255
    Max Functions          =             28
    Weights Tolerance      =       1.00E-15


  -Total Gradient:
     Atom            X                  Y                   Z
    ------   -----------------  -----------------  -----------------
       1        0.000000000000    -0.000077946934     0.000000000000
       2       -0.000000000000     0.000077946934    -0.000000000000


*** tstop() called on Joses-MacBook-Pro-2.local at Wed Jul 16 19:07:12 2025
Module time:
	user time   =       0.56 seconds =       0.01 minutes
	system time =       0.97 seconds =       0.02 minutes
	total time  =          0 seconds =       0.00 minutes
Total time:
	user time   =      10.87 seconds =       0.18 minutes
	system time =      13.72 seconds =       0.23 minutes
	total time  =          2 seconds =       0.03 minutes

    			-----------------------------------------

    			 OPTKING 3.0: for geometry optimizations 

    			     By R.A. King, Bethel University     

    			        with contributions from          

    			    A.V. Copan, J. Cayton, A. Heide      

    			-----------------------------------------

    
	                            ===> Fragment 1 <== 

	 Z (Atomic Numbers)          Masses                          Geom                  
	       7.000000            14.003074         -0.00000000  1.14412232  0.00000000   
	       7.000000            14.003074          0.00000000 -1.14412232  0.00000000   

	 - Coordinate -           - BOHR/RAD -       - ANG/DEG -
	 R(1,2)           =         2.288245           1.210887


	        --- Internal Coordinate Step in ANG or DEG, aJ/ANG or AJ/DEG ---
	-------------------------------------------------------------------------------
	           Coordinate      Previous         Force          Change          New 
	           ----------      --------        ------          ------        ------
	               R(1,2)       1.21089        0.00064        0.00004       1.21093
	-------------------------------------------------------------------------------

	                                 ==> Convergence Check <==                                  
    
	Measures of convergence in internal coordinates in au.
    
	Criteria marked as inactive (o), active & met (*), and active & unmet ( ).

	----------------------------------------------------------------------------------------------
	   Step    Total Energy     Delta E     Max Force     RMS Force      Max Disp      RMS Disp   
	----------------------------------------------------------------------------------------------
	  Convergence Criteria     1.00e-06 *    3.00e-04 *             o    1.20e-03 *             o
	----------------------------------------------------------------------------------------------
	     3    -109.27760532   -2.30e-06      7.79e-05 *    7.79e-05 o    8.35e-05 *    8.35e-05 o  ~
	----------------------------------------------------------------------------------------------

Next Geometry in Ang 
	Fragment 1 (Ang)

	    N  -0.0000000000   0.6054655461   0.0000000000
	    N   0.0000000000  -0.6054655461   0.0000000000


    Final optimized geometry and variables:
    Molecular point group: d2h
    Full point group: D_inf_h

    Geometry (in Angstrom), charge = 0, multiplicity = 3:

    N           -0.000000000000     0.605443455927     0.000000000000
    N            0.000000000000    -0.605443455927     0.000000000000


    Psi4 stopped on: Wednesday, 16 July 2025 07:07PM
    Psi4 wall time for execution: 0:00:02.96

*** Psi4 exiting successfully. Buy a developer a beer!
