
    -----------------------------------------------------------------------
          Psi4: An Open-Source Ab Initio Electronic Structure Package
                               Psi4 1.9.1 release

                         Git: Rev {} zzzzzzz 


    D. G. A. Smith, L. A. Burns, A. C. Simmonett, R. M. Parrish,
    M. C. Schieber, R. Galvelis, P. Kraus, H. Kruse, R. Di Remigio,
    A. Alenaizan, A. M. James, S. Lehtola, J. P. Misiewicz, M. Scheurer,
    R. A. Shaw, J. B. Schriber, Y. Xie, Z. L. Glick, D. A. Sirianni,
    J. S. O'Brien, J. M. Waldrop, A. Kumar, E. G. Hohenstein,
    B. P. Pritchard, B. R. Brooks, H. F. Schaefer III, A. Yu. Sokolov,
    K. Patkowski, A. E. DePrince III, U. Bozkaya, R. A. King,
    F. A. Evangelista, J. M. Turney, T. D. Crawford, C. D. Sherrill,
    J. Chem. Phys. 152(18) 184108 (2020). https://doi.org/10.1063/5.0006002

                            Additional Code Authors
    E. T. Seidl, C. L. Janssen, E. F. Valeev, M. L. Leininger,
    J. F. Gonthier, R. M. Richard, H. R. McAlexander, M. Saitow, X. Wang,
    P. Verma, M. H. Lechner, A. Jiang, S. Behnle, A. G. Heide,
    M. F. Herbst, and D. L. Poole

             Previous Authors, Complete List of Code Contributors,
                       and Citations for Specific Modules
    https://github.com/psi4/psi4/blob/master/codemeta.json
    https://github.com/psi4/psi4/graphs/contributors
    http://psicode.org/psi4manual/master/introduction.html#citing-psifour

    -----------------------------------------------------------------------


    Psi4 started on: Wednesday, 16 July 2025 06:37PM

    Process ID: 68390
    Host:       Joses-MacBook-Pro-2.local
    PSIDATADIR: /Users/joseantoniorodriguesromero/anaconda3/share/psi4
    Memory:     500.0 MiB
    Threads:    1
    
  ==> Input File <==

--------------------------------------------------------------------------
molecule { 
0 3
Li   0.00000        0.60000        0.00000
Cl   0.00000       -0.60000        0.00000
}

set { 
basis              cc-pvdz
reference          uks
maxiter            500
geom_maxiter       500
DAMPING_PERCENTAGE 1
guess              SAP
}

optimize('b3lyp')
--------------------------------------------------------------------------

Scratch directory: /tmp/
gradient() will perform analytic gradient computation.
   => Libint2 <=

    Primary   basis highest AM E, G, H:  6, 6, 3
    Auxiliary basis highest AM E, G, H:  7, 7, 4
    Onebody   basis highest AM E, G, H:  -, -, -
    Solid Harmonics ordering:            Gaussian

*** tstart() called on Joses-MacBook-Pro-2.local
*** at Wed Jul 16 18:37:18 2025

   => Loading Basis Set <=

    Name: CC-PVDZ
    Role: ORBITAL
    Keyword: BASIS
    atoms 1 entry LI         line    42 file /Users/joseantoniorodriguesromero/anaconda3/share/psi4/basis/cc-pvdz.gbs 
    atoms 2 entry CL         line   658 file /Users/joseantoniorodriguesromero/anaconda3/share/psi4/basis/cc-pvdz.gbs 


         ---------------------------------------------------------
                                   SCF
               by Justin Turney, Rob Parrish, Andy Simmonett
                          and Daniel G. A. Smith
                              UKS Reference
                        1 Threads,    500 MiB Core
         ---------------------------------------------------------

  ==> Geometry <==

    Molecular point group: c2v
    Full point group: C_inf_v

    Geometry (in Angstrom), charge = 0, multiplicity = 3:

       Center              X                  Y                   Z               Mass       
    ------------   -----------------  -----------------  -----------------  -----------------
         LI           0.000000000000     0.000000000000     0.999470454296     7.016003436600
         CL           0.000000000000     0.000000000000    -0.200529545704    34.968852682000

  Running in c2v symmetry.

  Rotational constants: A = ************  B =      2.00334  C =      2.00334 [cm^-1]
  Rotational constants: A = ************  B =  60058.73768  C =  60058.73768 [MHz]
  Nuclear repulsion =   22.490031453475002

  Charge       = 0
  Multiplicity = 3
  Electrons    = 20
  Nalpha       = 11
  Nbeta        = 9

  ==> Algorithm <==

  SCF Algorithm Type is DF.
  DIIS enabled.
  MOM disabled.
  Fractional occupation disabled.
  Guess Type is SAP.
  Energy threshold   = 1.00e-08
  Density threshold  = 1.00e-08
  Integral threshold = 1.00e-12

  ==> Primary Basis <==

  Basis Set: CC-PVDZ
    Blend: CC-PVDZ
    Number of shells: 14
    Number of basis functions: 32
    Number of Cartesian functions: 34
    Spherical Harmonics?: true
    Max angular momentum: 2

  ==> DFT Potential <==

   => LibXC <=

    Version 6.2.2
    S. Lehtola, C. Steigemann, M. J.T. Oliveira, and M. A.L. Marques.,  SoftwareX 7, 1–5 (2018) (10.1016/j.softx.2017.11.002)

   => Composite Functional: B3LYP <= 

    B3LYP Hyb-GGA Exchange-Correlation Functional

    P. J. Stephens, F. J. Devlin, C. F. Chabalowski, and M. J. Frisch.,  J. Phys. Chem. 98, 11623 (1994) (10.1021/j100096a001)

    Deriv               =              1
    GGA                 =           TRUE
    Meta                =          FALSE

    Exchange Hybrid     =           TRUE
    MP2 Hybrid          =          FALSE

   => Exchange Functionals <=

    0.0800   Slater exchange
    0.7200         Becke 88

   => Exact (HF) Exchange <=

    0.2000               HF 

   => Correlation Functionals <=

    0.1900   Vosko, Wilk & Nusair (VWN5_RPA)
    0.8100   Lee, Yang & Parr

   => LibXC Density Thresholds  <==

    XC_HYB_GGA_XC_B3LYP:  1.00E-15 

   => Molecular Quadrature <=

    Radial Scheme          =       TREUTLER
    Pruning Scheme         =           NONE
    Nuclear Scheme         =       TREUTLER

    Blocking Scheme        =         OCTREE
    BS radius alpha        =              1
    Pruning alpha          =              1
    Radial Points          =             75
    Spherical Points       =            302
    Total Points           =          44315
    Total Blocks           =            435
    Max Points             =            256
    Max Functions          =             32
    Weights Tolerance      =       1.00E-15

   => Loading Basis Set <=

    Name: (CC-PVDZ AUX)
    Role: JKFIT
    Keyword: DF_BASIS_SCF
    atoms 1 entry LI         line    54 file /Users/joseantoniorodriguesromero/anaconda3/share/psi4/basis/def2-universal-jkfit.gbs 
    atoms 2 entry CL         line   667 file /Users/joseantoniorodriguesromero/anaconda3/share/psi4/basis/cc-pvdz-jkfit.gbs 

  ==> Integral Setup <==

  DFHelper Memory: AOs need 0.002 GiB; user supplied 0.328 GiB. 
  Using in-core AOs.

  ==> MemDFJK: Density-Fitted J/K Matrices <==

    J tasked:                   Yes
    K tasked:                   Yes
    wK tasked:                   No
    OpenMP threads:               1
    Memory [MiB]:               335
    Algorithm:                 Core
    Schwarz Cutoff:           1E-12
    Mask sparsity (%):       0.0000
    Fitting Condition:        1E-10

   => Auxiliary Basis Set <=

  Basis Set: (CC-PVDZ AUX)
    Blend: CC-PVDZ-JKFIT + DEF2-UNIVERSAL-JKFIT
    Number of shells: 53
    Number of basis functions: 163
    Number of Cartesian functions: 190
    Spherical Harmonics?: true
    Max angular momentum: 3

  Cached 100.0% of DFT collocation blocks in 0.038 [GiB].

  Minimum eigenvalue in the overlap matrix is 5.7590252406E-03.
  Reciprocal condition number of the overlap matrix is 1.9924273461E-03.
    Using symmetric orthogonalization.

  ==> Pre-Iterations <==

  SCF Guess: Superposition of Atomic Potentials (doi:10.1021/acs.jctc.8b01089).

  ==> SAP guess <==

   => Molecular Quadrature <=

    Radial Scheme          =       TREUTLER
    Pruning Scheme         =           NONE
    Nuclear Scheme         =       TREUTLER

    Blocking Scheme        =         OCTREE
    BS radius alpha        =              1
    Pruning alpha          =              1
    Radial Points          =             75
    Spherical Points       =            302
    Total Points           =          44315
    Total Blocks           =            435
    Max Points             =            256
    Max Functions          =             32
    Weights Tolerance      =       1.00E-15

   -------------------------------------------------------
    Irrep   Nso     Nmo     Nalpha   Nbeta   Ndocc  Nsocc
   -------------------------------------------------------
     A1        16      16       7       5       5       2
     A2         2       2       0       0       0       0
     B1         7       7       2       2       2       0
     B2         7       7       2       2       2       0
   -------------------------------------------------------
    Total      32      32      11       9       9       2
   -------------------------------------------------------

  ==> Iterations <==

                           Total Energy        Delta E     RMS |[F,P]|

   @DF-UKS iter   1:  -467.10551012779320   -4.67106e+02   1.87385e-02 DIIS/ADIIS
   @DF-UKS iter   2:  -467.12968532337106   -2.41752e-02   1.56319e-02 DIIS/ADIIS/DAMP=1%
   @DF-UKS iter   3:  -467.17618861217102   -4.65033e-02   8.81003e-04 DIIS/ADIIS/DAMP=1%
   @DF-UKS iter   4:  -467.18293859034429   -6.74998e-03   4.41000e-04 DIIS/ADIIS/DAMP=1%
   @DF-UKS iter   5:  -467.18409696986708   -1.15838e-03   5.97782e-05 DIIS/DAMP=1%
   @DF-UKS iter   6:  -467.18365120702748    4.45763e-04   8.26500e-06 DIIS/DAMP=1%
   @DF-UKS iter   7:  -467.18369883686802   -4.76298e-05   1.27632e-06 DIIS/DAMP=1%
   @DF-UKS iter   8:  -467.18369408061255    4.75626e-06   1.53861e-07 DIIS/DAMP=1%
   @DF-UKS iter   9:  -467.18369508863555   -1.00802e-06   1.59284e-08 DIIS/DAMP=1%
   @DF-UKS iter  10:  -467.18369508700761    1.62794e-09   1.78621e-09 DIIS/DAMP=1%
  Energy and wave function converged.


  ==> Post-Iterations <==

   Electrons on quadrature grid:
      Nalpha   =   10.9999972254 ; deviation = -2.775e-06
      Nbeta    =    8.9999970217 ; deviation = -2.978e-06
      Ntotal   =   19.9999942471 ; deviation = -5.753e-06 

   @Spin Contamination Metric:   1.966923975E-03
   @S^2 Expected:                2.000000000E+00
   @S^2 Observed:                2.001966924E+00
   @S   Expected:                1.000000000E+00
   @S   Observed:                1.000000000E+00

    Orbital Energies [Eh]
    ---------------------

    Alpha Occupied:                                                       

       1A1  -101.670158     2A1    -9.615451     3A1    -7.393218  
       1B2    -7.359011     1B1    -7.359011     4A1    -2.287727  
       5A1    -0.941788     2B2    -0.487853     2B1    -0.487853  
       6A1    -0.459177     7A1    -0.125238  

    Alpha Virtual:                                                        

       8A1    -0.009456     3B2    -0.005446     3B1    -0.005446  
       4B1     0.053854     4B2     0.053854     9A1     0.067061  
      10A1     0.163116     1A2     0.163117    11A1     0.203128  
       5B1     0.278105     5B2     0.278105    12A1     0.368399  
       6B2     0.466416     6B1     0.466416    13A1     0.479196  
      14A1     0.666128     2A2     0.666130     7B1     0.804448  
       7B2     0.804448    15A1     0.817970    16A1     1.148945  

    Beta Occupied:                                                        

       1A1  -101.661606     2A1    -9.606894     3A1    -7.366605  
       1B1    -7.353915     1B2    -7.353915     4A1    -2.257134  
       5A1    -0.886785     2B2    -0.468614     2B1    -0.468614  

    Beta Virtual:                                                         

       6A1    -0.287801     7A1    -0.048710     8A1     0.009183  
       3B2     0.012103     3B1     0.012103     4B1     0.078432  
       4B2     0.078432     9A1     0.094003     1A2     0.181935  
      10A1     0.181939    11A1     0.245764     5B1     0.314820  
       5B2     0.314820    12A1     0.390920     6B2     0.500105  
       6B1     0.500105    13A1     0.537435     2A2     0.677913  
      14A1     0.677914     7B1     0.834180     7B2     0.834180  
      15A1     0.872527    16A1     1.171075  

    Final Occupation by Irrep:
             A1    A2    B1    B2 
    DOCC [     5,    0,    2,    2 ]
    SOCC [     2,    0,    0,    0 ]
    NA   [     7,    0,    2,    2 ]
    NB   [     5,    0,    2,    2 ]

  @DF-UKS Final Energy:  -467.18369508700761

   => Energetics <=

    Nuclear Repulsion Energy =             22.4900314534750017
    One-Electron Energy =                -686.4098648192333485
    Two-Electron Energy =                 221.0957059775633695
    DFT Exchange-Correlation Energy =     -24.3595676988126115
    Empirical Dispersion Energy =           0.0000000000000000
    VV10 Nonlocal Energy =                  0.0000000000000000
    Total Energy =                       -467.1836950870075498

  UHF NO Occupations:
  HONO-2 :    5 A1 1.9991812
  HONO-1 :    6 A1 1.0000000
  HONO-0 :    7 A1 1.0000000
  LUNO+0 :    8 A1 0.0008188
  LUNO+1 :    3 B1 0.0000780
  LUNO+2 :    3 B2 0.0000780
  LUNO+3 :    9 A1 0.0000090


Computation Completed


Properties will be evaluated at   0.000000,   0.000000,   0.000000 [a0]

Properties computed using the SCF density matrix


 Multipole Moments:

 ------------------------------------------------------------------------------------
     Multipole            Electronic (a.u.)      Nuclear  (a.u.)        Total (a.u.)
 ------------------------------------------------------------------------------------

 L = 1.  Multiply by 2.5417464519 to convert [e a0] to [Debye]
 Dipole X            :          0.0000000            0.0000000            0.0000000
 Dipole Y            :          0.0000000            0.0000000            0.0000000
 Dipole Z            :         -0.7368136           -0.7759044           -1.5127179
 Magnitude           :                                                    1.5127179

 ------------------------------------------------------------------------------------

*** tstop() called on Joses-MacBook-Pro-2.local at Wed Jul 16 18:37:19 2025
Module time:
	user time   =       3.97 seconds =       0.07 minutes
	system time =       3.61 seconds =       0.06 minutes
	total time  =          1 seconds =       0.02 minutes
Total time:
	user time   =       3.97 seconds =       0.07 minutes
	system time =       3.61 seconds =       0.06 minutes
	total time  =          1 seconds =       0.02 minutes

*** tstart() called on Joses-MacBook-Pro-2.local
*** at Wed Jul 16 18:37:19 2025


         ------------------------------------------------------------
                                   SCF GRAD                          
                          Rob Parrish, Justin Turney,                
                       Andy Simmonett, and Alex Sokolov              
         ------------------------------------------------------------

  ==> Geometry <==

    Molecular point group: c2v
    Full point group: C_inf_v

    Geometry (in Angstrom), charge = 0, multiplicity = 3:

       Center              X                  Y                   Z               Mass       
    ------------   -----------------  -----------------  -----------------  -----------------
         LI           0.000000000000     0.000000000000     0.999470454296     7.016003436600
         CL           0.000000000000     0.000000000000    -0.200529545704    34.968852682000

  Nuclear repulsion =   22.490031453475002

  ==> Basis Set <==

  Basis Set: CC-PVDZ
    Blend: CC-PVDZ
    Number of shells: 14
    Number of basis functions: 32
    Number of Cartesian functions: 34
    Spherical Harmonics?: true
    Max angular momentum: 2

  ==> DFJKGrad: Density-Fitted SCF Gradients <==

    Gradient:                    1
    J tasked:                  Yes
    K tasked:                  Yes
    wK tasked:                  No
    OpenMP threads:              1
    Integrals threads:           1
    Memory [MiB]:              375
    Schwarz Cutoff:          1E-12
    Fitting Condition:       1E-10

   => Auxiliary Basis Set <=

  Basis Set: (CC-PVDZ AUX)
    Blend: CC-PVDZ-JKFIT + DEF2-UNIVERSAL-JKFIT
    Number of shells: 53
    Number of basis functions: 163
    Number of Cartesian functions: 190
    Spherical Harmonics?: true
    Max angular momentum: 3

  ==> DFT Potential <==

   => LibXC <=

    Version 6.2.2
    S. Lehtola, C. Steigemann, M. J.T. Oliveira, and M. A.L. Marques.,  SoftwareX 7, 1–5 (2018) (10.1016/j.softx.2017.11.002)

   => Composite Functional: B3LYP <= 

    B3LYP Hyb-GGA Exchange-Correlation Functional

    P. J. Stephens, F. J. Devlin, C. F. Chabalowski, and M. J. Frisch.,  J. Phys. Chem. 98, 11623 (1994) (10.1021/j100096a001)

    Deriv               =              1
    GGA                 =           TRUE
    Meta                =          FALSE

    Exchange Hybrid     =           TRUE
    MP2 Hybrid          =          FALSE

   => Exchange Functionals <=

    0.0800   Slater exchange
    0.7200         Becke 88

   => Exact (HF) Exchange <=

    0.2000               HF 

   => Correlation Functionals <=

    0.1900   Vosko, Wilk & Nusair (VWN5_RPA)
    0.8100   Lee, Yang & Parr

   => LibXC Density Thresholds  <==

    XC_HYB_GGA_XC_B3LYP:  1.00E-15 

   => Molecular Quadrature <=

    Radial Scheme          =       TREUTLER
    Pruning Scheme         =           NONE
    Nuclear Scheme         =       TREUTLER

    Blocking Scheme        =         OCTREE
    BS radius alpha        =              1
    Pruning alpha          =              1
    Radial Points          =             75
    Spherical Points       =            302
    Total Points           =          44315
    Total Blocks           =            435
    Max Points             =            256
    Max Functions          =             32
    Weights Tolerance      =       1.00E-15


  -Total Gradient:
     Atom            X                  Y                   Z
    ------   -----------------  -----------------  -----------------
       1        0.000000000000     0.000000000000    -0.850999247768
       2        0.000000000000    -0.000000000000     0.850978833216


*** tstop() called on Joses-MacBook-Pro-2.local at Wed Jul 16 18:37:19 2025
Module time:
	user time   =       0.84 seconds =       0.01 minutes
	system time =       1.51 seconds =       0.03 minutes
	total time  =          0 seconds =       0.00 minutes
Total time:
	user time   =       4.81 seconds =       0.08 minutes
	system time =       5.12 seconds =       0.09 minutes
	total time  =          1 seconds =       0.02 minutes

    			-----------------------------------------

    			 OPTKING 3.0: for geometry optimizations 

    			     By R.A. King, Bethel University     

    			        with contributions from          

    			    A.V. Copan, J. Cayton, A. Heide      

    			-----------------------------------------

    
	                            ===> Fragment 1 <== 

	 Z (Atomic Numbers)          Masses                          Geom                  
	       3.000000             7.016003          0.00000000  0.00000000  1.88872543   
	      17.000000            34.968853          0.00000000  0.00000000 -0.37894592   

	 - Coordinate -           - BOHR/RAD -       - ANG/DEG -
	 R(1,2)           =         2.267671           1.200000


	        --- Internal Coordinate Step in ANG or DEG, aJ/ANG or AJ/DEG ---
	-------------------------------------------------------------------------------
	           Coordinate      Previous         Force          Change          New 
	           ----------      --------        ------          ------        ------
	               R(1,2)       1.20000        7.01106        0.10355       1.30355
	-------------------------------------------------------------------------------

	                                 ==> Convergence Check <==                                  
    
	Measures of convergence in internal coordinates in au.
    
	Criteria marked as inactive (o), active & met (*), and active & unmet ( ).

	----------------------------------------------------------------------------------------------
	   Step    Total Energy     Delta E     Max Force     RMS Force      Max Disp      RMS Disp   
	----------------------------------------------------------------------------------------------
	  Convergence Criteria     1.00e-06 *    3.00e-04 *             o    1.20e-03 *             o
	----------------------------------------------------------------------------------------------
	     1    -467.18369509   -4.67e+02      8.51e-01      8.51e-01 o    1.96e-01      1.96e-01 o  ~
	----------------------------------------------------------------------------------------------

Next Geometry in Ang 
	Fragment 1 (Ang)

	   Li   0.0000000000   0.0000000000   1.0512467691
	   Cl   0.0000000000   0.0000000000  -0.2523058605


    Structure for next step:
    Molecular point group: c2v
    Full point group: C_inf_v

    Geometry (in Angstrom), charge = 0, multiplicity = 3:

    LI           0.000000000000     0.000000000000     1.085718615762
    CL           0.000000000000     0.000000000000    -0.217834013848


Scratch directory: /tmp/
gradient() will perform analytic gradient computation.
   => Libint2 <=

    Primary   basis highest AM E, G, H:  6, 6, 3
    Auxiliary basis highest AM E, G, H:  7, 7, 4
    Onebody   basis highest AM E, G, H:  -, -, -
    Solid Harmonics ordering:            Gaussian

*** tstart() called on Joses-MacBook-Pro-2.local
*** at Wed Jul 16 18:37:19 2025

   => Loading Basis Set <=

    Name: CC-PVDZ
    Role: ORBITAL
    Keyword: BASIS
    atoms 1 entry LI         line    42 file /Users/joseantoniorodriguesromero/anaconda3/share/psi4/basis/cc-pvdz.gbs 
    atoms 2 entry CL         line   658 file /Users/joseantoniorodriguesromero/anaconda3/share/psi4/basis/cc-pvdz.gbs 


         ---------------------------------------------------------
                                   SCF
               by Justin Turney, Rob Parrish, Andy Simmonett
                          and Daniel G. A. Smith
                              UKS Reference
                        1 Threads,    500 MiB Core
         ---------------------------------------------------------

  ==> Geometry <==

    Molecular point group: c2v
    Full point group: C_inf_v

    Geometry (in Angstrom), charge = 0, multiplicity = 3:

       Center              X                  Y                   Z               Mass       
    ------------   -----------------  -----------------  -----------------  -----------------
         LI           0.000000000000     0.000000000000     1.085718615762     7.016003436600
         CL           0.000000000000     0.000000000000    -0.217834013848    34.968852682000

  Running in c2v symmetry.

  Rotational constants: A = ************  B =      1.69770  C =      1.69770 [cm^-1]
  Rotational constants: A = ************  B =  50895.75391  C =  50895.75391 [MHz]
  Nuclear repulsion =   20.703450809087965

  Charge       = 0
  Multiplicity = 3
  Electrons    = 20
  Nalpha       = 11
  Nbeta        = 9

  ==> Algorithm <==

  SCF Algorithm Type is DF.
  DIIS enabled.
  MOM disabled.
  Fractional occupation disabled.
  Guess Type is READ.
  Energy threshold   = 1.00e-08
  Density threshold  = 1.00e-08
  Integral threshold = 1.00e-12

  ==> Primary Basis <==

  Basis Set: CC-PVDZ
    Blend: CC-PVDZ
    Number of shells: 14
    Number of basis functions: 32
    Number of Cartesian functions: 34
    Spherical Harmonics?: true
    Max angular momentum: 2

  ==> DFT Potential <==

   => LibXC <=

    Version 6.2.2
    S. Lehtola, C. Steigemann, M. J.T. Oliveira, and M. A.L. Marques.,  SoftwareX 7, 1–5 (2018) (10.1016/j.softx.2017.11.002)

   => Composite Functional: B3LYP <= 

    B3LYP Hyb-GGA Exchange-Correlation Functional

    P. J. Stephens, F. J. Devlin, C. F. Chabalowski, and M. J. Frisch.,  J. Phys. Chem. 98, 11623 (1994) (10.1021/j100096a001)

    Deriv               =              1
    GGA                 =           TRUE
    Meta                =          FALSE

    Exchange Hybrid     =           TRUE
    MP2 Hybrid          =          FALSE

   => Exchange Functionals <=

    0.0800   Slater exchange
    0.7200         Becke 88

   => Exact (HF) Exchange <=

    0.2000               HF 

   => Correlation Functionals <=

    0.1900   Vosko, Wilk & Nusair (VWN5_RPA)
    0.8100   Lee, Yang & Parr

   => LibXC Density Thresholds  <==

    XC_HYB_GGA_XC_B3LYP:  1.00E-15 

   => Molecular Quadrature <=

    Radial Scheme          =       TREUTLER
    Pruning Scheme         =           NONE
    Nuclear Scheme         =       TREUTLER

    Blocking Scheme        =         OCTREE
    BS radius alpha        =              1
    Pruning alpha          =              1
    Radial Points          =             75
    Spherical Points       =            302
    Total Points           =          44317
    Total Blocks           =            435
    Max Points             =            254
    Max Functions          =             32
    Weights Tolerance      =       1.00E-15

   => Loading Basis Set <=

    Name: (CC-PVDZ AUX)
    Role: JKFIT
    Keyword: DF_BASIS_SCF
    atoms 1 entry LI         line    54 file /Users/joseantoniorodriguesromero/anaconda3/share/psi4/basis/def2-universal-jkfit.gbs 
    atoms 2 entry CL         line   667 file /Users/joseantoniorodriguesromero/anaconda3/share/psi4/basis/cc-pvdz-jkfit.gbs 

   => Loading Basis Set <=

    Name: CC-PVDZ
    Role: ORBITAL
    Keyword: BASIS
    atoms 1 entry LI         line    42 file /Users/joseantoniorodriguesromero/anaconda3/share/psi4/basis/cc-pvdz.gbs 
    atoms 2 entry CL         line   658 file /Users/joseantoniorodriguesromero/anaconda3/share/psi4/basis/cc-pvdz.gbs 

  Reading orbitals from file /tmp/triplet_LiCl.default.68390.180.npy, no projection.

  ==> Integral Setup <==

  DFHelper Memory: AOs need 0.002 GiB; user supplied 0.328 GiB. 
  Using in-core AOs.

  ==> MemDFJK: Density-Fitted J/K Matrices <==

    J tasked:                   Yes
    K tasked:                   Yes
    wK tasked:                   No
    OpenMP threads:               1
    Memory [MiB]:               335
    Algorithm:                 Core
    Schwarz Cutoff:           1E-12
    Mask sparsity (%):       0.0000
    Fitting Condition:        1E-10

   => Auxiliary Basis Set <=

  Basis Set: (CC-PVDZ AUX)
    Blend: CC-PVDZ-JKFIT + DEF2-UNIVERSAL-JKFIT
    Number of shells: 53
    Number of basis functions: 163
    Number of Cartesian functions: 190
    Spherical Harmonics?: true
    Max angular momentum: 3

  Cached 100.0% of DFT collocation blocks in 0.038 [GiB].

  Minimum eigenvalue in the overlap matrix is 5.5797718644E-03.
  Reciprocal condition number of the overlap matrix is 1.9286205739E-03.
    Using symmetric orthogonalization.

  ==> Pre-Iterations <==

  SCF Guess: Orbitals guess was supplied from a previous computation.

   -------------------------------------------------------
    Irrep   Nso     Nmo     Nalpha   Nbeta   Ndocc  Nsocc
   -------------------------------------------------------
     A1        16      16       7       5       5       2
     A2         2       2       0       0       0       0
     B1         7       7       2       2       2       0
     B2         7       7       2       2       2       0
   -------------------------------------------------------
    Total      32      32      11       9       9       2
   -------------------------------------------------------

  ==> Iterations <==

                           Total Energy        Delta E     RMS |[F,P]|

   @DF-UKS iter   0:  -467.31959887277060   -4.67320e+02   9.88886e-03 
   @DF-UKS iter   1:  -467.32185380569177   -2.25493e-03   2.30744e-03 DIIS/ADIIS
   @DF-UKS iter   2:  -467.32249410588048   -6.40300e-04   1.71105e-03 DIIS/ADIIS/DAMP=1%
   @DF-UKS iter   3:  -467.32469287535082   -2.19877e-03   9.44493e-05 DIIS/DAMP=1%
   @DF-UKS iter   4:  -467.32316371909712    1.52916e-03   5.84011e-05 DIIS/DAMP=1%
   @DF-UKS iter   5:  -467.32307068859245    9.30305e-05   6.57185e-06 DIIS/DAMP=1%
   @DF-UKS iter   6:  -467.32308434456468   -1.36560e-05   1.13616e-06 DIIS/DAMP=1%
   @DF-UKS iter   7:  -467.32308120172729    3.14284e-06   8.17269e-08 DIIS/DAMP=1%
   @DF-UKS iter   8:  -467.32308198786916   -7.86142e-07   9.08830e-09 DIIS/DAMP=1%
   @DF-UKS iter   9:  -467.32308192269636    6.51728e-08   8.74339e-10 DIIS/DAMP=1%
   @DF-UKS iter  10:  -467.32308192373830   -1.04194e-09   1.08617e-10 DIIS/DAMP=1%
  Energy and wave function converged.


  ==> Post-Iterations <==

   Electrons on quadrature grid:
      Nalpha   =   11.0000014408 ; deviation = 1.441e-06
      Nbeta    =    9.0000012762 ; deviation = 1.276e-06
      Ntotal   =   20.0000027170 ; deviation = 2.717e-06 

   @Spin Contamination Metric:   2.018968779E-03
   @S^2 Expected:                2.000000000E+00
   @S^2 Observed:                2.002018969E+00
   @S   Expected:                1.000000000E+00
   @S   Observed:                1.000000000E+00

    Orbital Energies [Eh]
    ---------------------

    Alpha Occupied:                                                       

       1A1  -101.669113     2A1    -9.608397     3A1    -7.384521  
       1B2    -7.353835     1B1    -7.353835     4A1    -2.207787  
       5A1    -0.952888     6A1    -0.489795     2B2    -0.477238  
       2B1    -0.477238     7A1    -0.120968  

    Alpha Virtual:                                                        

       8A1    -0.009637     3B2    -0.008591     3B1    -0.008591  
       4B2     0.052941     4B1     0.052941     9A1     0.070603  
      10A1     0.169388     1A2     0.169388    11A1     0.196604  
       5B2     0.269696     5B1     0.269696    12A1     0.366108  
      13A1     0.471289     6B1     0.477605     6B2     0.477605  
      14A1     0.661482     2A2     0.661485    15A1     0.774041  
       7B2     0.797756     7B1     0.797756    16A1     1.163641  

    Beta Occupied:                                                        

       1A1  -101.660767     2A1    -9.600100     3A1    -7.358216  
       1B2    -7.348877     1B1    -7.348877     4A1    -2.183121  
       5A1    -0.896396     2B2    -0.458870     2B1    -0.458870  

    Beta Virtual:                                                         

       6A1    -0.317576     7A1    -0.046521     8A1     0.009055  
       3B1     0.010328     3B2     0.010328     4B2     0.075488  
       4B1     0.075488     9A1     0.097652     1A2     0.189241  
      10A1     0.189244    11A1     0.237499     5B2     0.310339  
       5B1     0.310339    12A1     0.392235     6B2     0.506350  
       6B1     0.506350    13A1     0.530512    14A1     0.672960  
       2A2     0.672964    15A1     0.829002     7B2     0.832120  
       7B1     0.832120    16A1     1.183086  

    Final Occupation by Irrep:
             A1    A2    B1    B2 
    DOCC [     5,    0,    2,    2 ]
    SOCC [     2,    0,    0,    0 ]
    NA   [     7,    0,    2,    2 ]
    NB   [     5,    0,    2,    2 ]

  @DF-UKS Final Energy:  -467.32308192373830

   => Energetics <=

    Nuclear Repulsion Energy =             20.7034508090879648
    One-Electron Energy =                -683.3379709014848231
    Two-Electron Energy =                 219.6392045694238959
    DFT Exchange-Correlation Energy =     -24.3277664007652845
    Empirical Dispersion Energy =           0.0000000000000000
    VV10 Nonlocal Energy =                  0.0000000000000000
    Total Energy =                       -467.3230819237383002

  UHF NO Occupations:
  HONO-2 :    5 A1 1.9991038
  HONO-1 :    6 A1 1.0000000
  HONO-0 :    7 A1 1.0000000
  LUNO+0 :    8 A1 0.0008962
  LUNO+1 :    3 B2 0.0000532
  LUNO+2 :    3 B1 0.0000532
  LUNO+3 :    9 A1 0.0000073


Computation Completed


Properties will be evaluated at   0.000000,   0.000000,   0.000000 [a0]

Properties computed using the SCF density matrix


 Multipole Moments:

 ------------------------------------------------------------------------------------
     Multipole            Electronic (a.u.)      Nuclear  (a.u.)        Total (a.u.)
 ------------------------------------------------------------------------------------

 L = 1.  Multiply by 2.5417464519 to convert [e a0] to [Debye]
 Dipole X            :          0.0000000            0.0000000            0.0000000
 Dipole Y            :          0.0000000            0.0000000            0.0000000
 Dipole Z            :         -0.7093886           -0.8428602           -1.5522488
 Magnitude           :                                                    1.5522488

 ------------------------------------------------------------------------------------

*** tstop() called on Joses-MacBook-Pro-2.local at Wed Jul 16 18:37:20 2025
Module time:
	user time   =       4.27 seconds =       0.07 minutes
	system time =       3.17 seconds =       0.05 minutes
	total time  =          1 seconds =       0.02 minutes
Total time:
	user time   =       9.12 seconds =       0.15 minutes
	system time =       8.53 seconds =       0.14 minutes
	total time  =          2 seconds =       0.03 minutes

*** tstart() called on Joses-MacBook-Pro-2.local
*** at Wed Jul 16 18:37:20 2025


         ------------------------------------------------------------
                                   SCF GRAD                          
                          Rob Parrish, Justin Turney,                
                       Andy Simmonett, and Alex Sokolov              
         ------------------------------------------------------------

  ==> Geometry <==

    Molecular point group: c2v
    Full point group: C_inf_v

    Geometry (in Angstrom), charge = 0, multiplicity = 3:

       Center              X                  Y                   Z               Mass       
    ------------   -----------------  -----------------  -----------------  -----------------
         LI           0.000000000000     0.000000000000     1.085718615762     7.016003436600
         CL           0.000000000000     0.000000000000    -0.217834013848    34.968852682000

  Nuclear repulsion =   20.703450809087965

  ==> Basis Set <==

  Basis Set: CC-PVDZ
    Blend: CC-PVDZ
    Number of shells: 14
    Number of basis functions: 32
    Number of Cartesian functions: 34
    Spherical Harmonics?: true
    Max angular momentum: 2

  ==> DFJKGrad: Density-Fitted SCF Gradients <==

    Gradient:                    1
    J tasked:                  Yes
    K tasked:                  Yes
    wK tasked:                  No
    OpenMP threads:              1
    Integrals threads:           1
    Memory [MiB]:              375
    Schwarz Cutoff:          1E-12
    Fitting Condition:       1E-10

   => Auxiliary Basis Set <=

  Basis Set: (CC-PVDZ AUX)
    Blend: CC-PVDZ-JKFIT + DEF2-UNIVERSAL-JKFIT
    Number of shells: 53
    Number of basis functions: 163
    Number of Cartesian functions: 190
    Spherical Harmonics?: true
    Max angular momentum: 3

  ==> DFT Potential <==

   => LibXC <=

    Version 6.2.2
    S. Lehtola, C. Steigemann, M. J.T. Oliveira, and M. A.L. Marques.,  SoftwareX 7, 1–5 (2018) (10.1016/j.softx.2017.11.002)

   => Composite Functional: B3LYP <= 

    B3LYP Hyb-GGA Exchange-Correlation Functional

    P. J. Stephens, F. J. Devlin, C. F. Chabalowski, and M. J. Frisch.,  J. Phys. Chem. 98, 11623 (1994) (10.1021/j100096a001)

    Deriv               =              1
    GGA                 =           TRUE
    Meta                =          FALSE

    Exchange Hybrid     =           TRUE
    MP2 Hybrid          =          FALSE

   => Exchange Functionals <=

    0.0800   Slater exchange
    0.7200         Becke 88

   => Exact (HF) Exchange <=

    0.2000               HF 

   => Correlation Functionals <=

    0.1900   Vosko, Wilk & Nusair (VWN5_RPA)
    0.8100   Lee, Yang & Parr

   => LibXC Density Thresholds  <==

    XC_HYB_GGA_XC_B3LYP:  1.00E-15 

   => Molecular Quadrature <=

    Radial Scheme          =       TREUTLER
    Pruning Scheme         =           NONE
    Nuclear Scheme         =       TREUTLER

    Blocking Scheme        =         OCTREE
    BS radius alpha        =              1
    Pruning alpha          =              1
    Radial Points          =             75
    Spherical Points       =            302
    Total Points           =          44317
    Total Blocks           =            435
    Max Points             =            254
    Max Functions          =             32
    Weights Tolerance      =       1.00E-15


  -Total Gradient:
     Atom            X                  Y                   Z
    ------   -----------------  -----------------  -----------------
       1        0.000000000000     0.000000000000    -0.588553955436
       2        0.000000000000     0.000000000000     0.588410161588


*** tstop() called on Joses-MacBook-Pro-2.local at Wed Jul 16 18:37:20 2025
Module time:
	user time   =       0.77 seconds =       0.01 minutes
	system time =       1.58 seconds =       0.03 minutes
	total time  =          0 seconds =       0.00 minutes
Total time:
	user time   =       9.91 seconds =       0.17 minutes
	system time =      10.11 seconds =       0.17 minutes
	total time  =          2 seconds =       0.03 minutes

    			-----------------------------------------

    			 OPTKING 3.0: for geometry optimizations 

    			     By R.A. King, Bethel University     

    			        with contributions from          

    			    A.V. Copan, J. Cayton, A. Heide      

    			-----------------------------------------

    
	                            ===> Fragment 1 <== 

	 Z (Atomic Numbers)          Masses                          Geom                  
	       3.000000             7.016003          0.00000000  0.00000000  2.05171083   
	      17.000000            34.968853          0.00000000  0.00000000 -0.41164663   

	 - Coordinate -           - BOHR/RAD -       - ANG/DEG -
	 R(1,2)           =         2.463357           1.303553


	        --- Internal Coordinate Step in ANG or DEG, aJ/ANG or AJ/DEG ---
	-------------------------------------------------------------------------------
	           Coordinate      Previous         Force          Change          New 
	           ----------      --------        ------          ------        ------
	               R(1,2)       1.30355        4.84834        0.13869       1.44224
	-------------------------------------------------------------------------------

	                                 ==> Convergence Check <==                                  
    
	Measures of convergence in internal coordinates in au.
    
	Criteria marked as inactive (o), active & met (*), and active & unmet ( ).

	----------------------------------------------------------------------------------------------
	   Step    Total Energy     Delta E     Max Force     RMS Force      Max Disp      RMS Disp   
	----------------------------------------------------------------------------------------------
	  Convergence Criteria     1.00e-06 *    3.00e-04 *             o    1.20e-03 *             o
	----------------------------------------------------------------------------------------------
	     2    -467.32308192   -1.39e-01      5.88e-01      5.88e-01 o    2.62e-01      2.62e-01 o  ~
	----------------------------------------------------------------------------------------------

Next Geometry in Ang 
	Fragment 1 (Ang)

	   Li   0.0000000000   0.0000000000   1.1550646116
	   Cl   0.0000000000   0.0000000000  -0.2871800097


    Structure for next step:
    Molecular point group: c2v
    Full point group: C_inf_v

    Geometry (in Angstrom), charge = 0, multiplicity = 3:

    LI           0.000000000000     0.000000000000     1.201234072399
    CL           0.000000000000     0.000000000000    -0.241010548923


Scratch directory: /tmp/
gradient() will perform analytic gradient computation.
   => Libint2 <=

    Primary   basis highest AM E, G, H:  6, 6, 3
    Auxiliary basis highest AM E, G, H:  7, 7, 4
    Onebody   basis highest AM E, G, H:  -, -, -
    Solid Harmonics ordering:            Gaussian

*** tstart() called on Joses-MacBook-Pro-2.local
*** at Wed Jul 16 18:37:20 2025

   => Loading Basis Set <=

    Name: CC-PVDZ
    Role: ORBITAL
    Keyword: BASIS
    atoms 1 entry LI         line    42 file /Users/joseantoniorodriguesromero/anaconda3/share/psi4/basis/cc-pvdz.gbs 
    atoms 2 entry CL         line   658 file /Users/joseantoniorodriguesromero/anaconda3/share/psi4/basis/cc-pvdz.gbs 


         ---------------------------------------------------------
                                   SCF
               by Justin Turney, Rob Parrish, Andy Simmonett
                          and Daniel G. A. Smith
                              UKS Reference
                        1 Threads,    500 MiB Core
         ---------------------------------------------------------

  ==> Geometry <==

    Molecular point group: c2v
    Full point group: C_inf_v

    Geometry (in Angstrom), charge = 0, multiplicity = 3:

       Center              X                  Y                   Z               Mass       
    ------------   -----------------  -----------------  -----------------  -----------------
         LI           0.000000000000     0.000000000000     1.201234072399     7.016003436600
         CL           0.000000000000     0.000000000000    -0.241010548923    34.968852682000

  Running in c2v symmetry.

  Rotational constants: A = ************  B =      1.38688  C =      1.38688 [cm^-1]
  Rotational constants: A = ************  B =  41577.73587  C =  41577.73587 [MHz]
  Nuclear repulsion =   18.712524453320121

  Charge       = 0
  Multiplicity = 3
  Electrons    = 20
  Nalpha       = 11
  Nbeta        = 9

  ==> Algorithm <==

  SCF Algorithm Type is DF.
  DIIS enabled.
  MOM disabled.
  Fractional occupation disabled.
  Guess Type is READ.
  Energy threshold   = 1.00e-08
  Density threshold  = 1.00e-08
  Integral threshold = 1.00e-12

  ==> Primary Basis <==

  Basis Set: CC-PVDZ
    Blend: CC-PVDZ
    Number of shells: 14
    Number of basis functions: 32
    Number of Cartesian functions: 34
    Spherical Harmonics?: true
    Max angular momentum: 2

  ==> DFT Potential <==

   => LibXC <=

    Version 6.2.2
    S. Lehtola, C. Steigemann, M. J.T. Oliveira, and M. A.L. Marques.,  SoftwareX 7, 1–5 (2018) (10.1016/j.softx.2017.11.002)

   => Composite Functional: B3LYP <= 

    B3LYP Hyb-GGA Exchange-Correlation Functional

    P. J. Stephens, F. J. Devlin, C. F. Chabalowski, and M. J. Frisch.,  J. Phys. Chem. 98, 11623 (1994) (10.1021/j100096a001)

    Deriv               =              1
    GGA                 =           TRUE
    Meta                =          FALSE

    Exchange Hybrid     =           TRUE
    MP2 Hybrid          =          FALSE

   => Exchange Functionals <=

    0.0800   Slater exchange
    0.7200         Becke 88

   => Exact (HF) Exchange <=

    0.2000               HF 

   => Correlation Functionals <=

    0.1900   Vosko, Wilk & Nusair (VWN5_RPA)
    0.8100   Lee, Yang & Parr

   => LibXC Density Thresholds  <==

    XC_HYB_GGA_XC_B3LYP:  1.00E-15 

   => Molecular Quadrature <=

    Radial Scheme          =       TREUTLER
    Pruning Scheme         =           NONE
    Nuclear Scheme         =       TREUTLER

    Blocking Scheme        =         OCTREE
    BS radius alpha        =              1
    Pruning alpha          =              1
    Radial Points          =             75
    Spherical Points       =            302
    Total Points           =          44319
    Total Blocks           =            435
    Max Points             =            255
    Max Functions          =             32
    Weights Tolerance      =       1.00E-15

   => Loading Basis Set <=

    Name: (CC-PVDZ AUX)
    Role: JKFIT
    Keyword: DF_BASIS_SCF
    atoms 1 entry LI         line    54 file /Users/joseantoniorodriguesromero/anaconda3/share/psi4/basis/def2-universal-jkfit.gbs 
    atoms 2 entry CL         line   667 file /Users/joseantoniorodriguesromero/anaconda3/share/psi4/basis/cc-pvdz-jkfit.gbs 

   => Loading Basis Set <=

    Name: CC-PVDZ
    Role: ORBITAL
    Keyword: BASIS
    atoms 1 entry LI         line    42 file /Users/joseantoniorodriguesromero/anaconda3/share/psi4/basis/cc-pvdz.gbs 
    atoms 2 entry CL         line   658 file /Users/joseantoniorodriguesromero/anaconda3/share/psi4/basis/cc-pvdz.gbs 

  Reading orbitals from file /tmp/triplet_LiCl.default.68390.180.npy, no projection.

  ==> Integral Setup <==

  DFHelper Memory: AOs need 0.002 GiB; user supplied 0.328 GiB. 
  Using in-core AOs.

  ==> MemDFJK: Density-Fitted J/K Matrices <==

    J tasked:                   Yes
    K tasked:                   Yes
    wK tasked:                   No
    OpenMP threads:               1
    Memory [MiB]:               335
    Algorithm:                 Core
    Schwarz Cutoff:           1E-12
    Mask sparsity (%):       0.0000
    Fitting Condition:        1E-10

   => Auxiliary Basis Set <=

  Basis Set: (CC-PVDZ AUX)
    Blend: CC-PVDZ-JKFIT + DEF2-UNIVERSAL-JKFIT
    Number of shells: 53
    Number of basis functions: 163
    Number of Cartesian functions: 190
    Spherical Harmonics?: true
    Max angular momentum: 3

  Cached 100.0% of DFT collocation blocks in 0.038 [GiB].

  Minimum eigenvalue in the overlap matrix is 5.3270702879E-03.
  Reciprocal condition number of the overlap matrix is 1.8409494878E-03.
    Using symmetric orthogonalization.

  ==> Pre-Iterations <==

  SCF Guess: Orbitals guess was supplied from a previous computation.

   -------------------------------------------------------
    Irrep   Nso     Nmo     Nalpha   Nbeta   Ndocc  Nsocc
   -------------------------------------------------------
     A1        16      16       7       5       5       2
     A2         2       2       0       0       0       0
     B1         7       7       2       2       2       0
     B2         7       7       2       2       2       0
   -------------------------------------------------------
    Total      32      32      11       9       9       2
   -------------------------------------------------------

  ==> Iterations <==

                           Total Energy        Delta E     RMS |[F,P]|

   @DF-UKS iter   0:  -467.44406128128128   -4.67444e+02   9.59100e-03 
   @DF-UKS iter   1:  -467.44298038997135    1.08089e-03   2.44350e-03 DIIS/ADIIS
   @DF-UKS iter   2:  -467.44363841689875   -6.58027e-04   1.84024e-03 DIIS/ADIIS/DAMP=1%
   @DF-UKS iter   3:  -467.44576827724285   -2.12986e-03   1.12968e-04 DIIS/ADIIS/DAMP=1%
   @DF-UKS iter   4:  -467.44443520207136    1.33308e-03   5.47026e-05 DIIS/DAMP=1%
   @DF-UKS iter   5:  -467.44431109030000    1.24112e-04   6.88190e-06 DIIS/DAMP=1%
   @DF-UKS iter   6:  -467.44433091751023   -1.98272e-05   1.11981e-06 DIIS/DAMP=1%
   @DF-UKS iter   7:  -467.44432751655728    3.40095e-06   9.38617e-08 DIIS/DAMP=1%
   @DF-UKS iter   8:  -467.44432845860240   -9.42045e-07   1.04163e-08 DIIS/DAMP=1%
   @DF-UKS iter   9:  -467.44432834493131    1.13671e-07   9.18216e-10 DIIS/DAMP=1%
   @DF-UKS iter  10:  -467.44432834908577   -4.15446e-09   1.19991e-10 DIIS/DAMP=1%
  Energy and wave function converged.


  ==> Post-Iterations <==

   Electrons on quadrature grid:
      Nalpha   =   11.0000032760 ; deviation = 3.276e-06
      Nbeta    =    9.0000034691 ; deviation = 3.469e-06
      Ntotal   =   20.0000067451 ; deviation = 6.745e-06 

   @Spin Contamination Metric:   2.066068630E-03
   @S^2 Expected:                2.000000000E+00
   @S^2 Observed:                2.002066069E+00
   @S   Expected:                1.000000000E+00
   @S   Observed:                1.000000000E+00

    Orbital Energies [Eh]
    ---------------------

    Alpha Occupied:                                                       

       1A1  -101.672136     2A1    -9.604354     3A1    -7.379235  
       1B2    -7.351437     1B1    -7.351437     4A1    -2.140410  
       5A1    -0.959139     6A1    -0.512370     2B2    -0.466164  
       2B1    -0.466164     7A1    -0.117059  

    Alpha Virtual:                                                        

       3B1    -0.012751     3B2    -0.012751     8A1    -0.009726  
       4B1     0.052853     4B2     0.052853     9A1     0.074290  
      10A1     0.177375     1A2     0.177375    11A1     0.190082  
       5B2     0.258151     5B1     0.258151    12A1     0.360700  
      13A1     0.473882     6B2     0.488178     6B1     0.488178  
      14A1     0.655460     2A2     0.655463    15A1     0.717148  
       7B1     0.785373     7B2     0.785373    16A1     1.179916  

    Beta Occupied:                                                        

       1A1  -101.664141     2A1    -9.596412     3A1    -7.353855  
       1B2    -7.346675     1B1    -7.346675     4A1    -2.122481  
       5A1    -0.901924     2B2    -0.448476     2B1    -0.448476  

    Beta Virtual:                                                         

       6A1    -0.341271     7A1    -0.044329     3B1     0.007877  
       3B2     0.007877     8A1     0.009381     4B1     0.073028  
       4B2     0.073028     9A1     0.102262    10A1     0.198692  
       1A2     0.198695    11A1     0.228789     5B2     0.302024  
       5B1     0.302024    12A1     0.388763     6B2     0.512016  
       6B1     0.512016    13A1     0.535416    14A1     0.666617  
       2A2     0.666622    15A1     0.772069     7B1     0.824071  
       7B2     0.824071    16A1     1.197901  

    Final Occupation by Irrep:
             A1    A2    B1    B2 
    DOCC [     5,    0,    2,    2 ]
    SOCC [     2,    0,    0,    0 ]
    NA   [     7,    0,    2,    2 ]
    NB   [     5,    0,    2,    2 ]

  @DF-UKS Final Energy:  -467.44432834908577

   => Energetics <=

    Nuclear Repulsion Energy =             18.7125244533201212
    One-Electron Energy =                -679.7842618624698616
    Two-Electron Energy =                 217.9186028236988761
    DFT Exchange-Correlation Energy =     -24.2911937636348902
    Empirical Dispersion Energy =           0.0000000000000000
    VV10 Nonlocal Energy =                  0.0000000000000000
    Total Energy =                       -467.4443283490857652

  UHF NO Occupations:
  HONO-2 :    5 A1 1.9990603
  HONO-1 :    6 A1 1.0000000
  HONO-0 :    7 A1 1.0000000
  LUNO+0 :    8 A1 0.0009397
  LUNO+1 :    3 B1 0.0000445
  LUNO+2 :    3 B2 0.0000445
  LUNO+3 :    9 A1 0.0000047


Computation Completed


Properties will be evaluated at   0.000000,   0.000000,   0.000000 [a0]

Properties computed using the SCF density matrix


 Multipole Moments:

 ------------------------------------------------------------------------------------
     Multipole            Electronic (a.u.)      Nuclear  (a.u.)        Total (a.u.)
 ------------------------------------------------------------------------------------

 L = 1.  Multiply by 2.5417464519 to convert [e a0] to [Debye]
 Dipole X            :          0.0000000            0.0000000            0.0000000
 Dipole Y            :          0.0000000            0.0000000            0.0000000
 Dipole Z            :         -0.6529000           -0.9325366           -1.5854366
 Magnitude           :                                                    1.5854366

 ------------------------------------------------------------------------------------

*** tstop() called on Joses-MacBook-Pro-2.local at Wed Jul 16 18:37:21 2025
Module time:
	user time   =       4.59 seconds =       0.08 minutes
	system time =       3.33 seconds =       0.06 minutes
	total time  =          1 seconds =       0.02 minutes
Total time:
	user time   =      14.56 seconds =       0.24 minutes
	system time =      13.78 seconds =       0.23 minutes
	total time  =          3 seconds =       0.05 minutes

*** tstart() called on Joses-MacBook-Pro-2.local
*** at Wed Jul 16 18:37:21 2025


         ------------------------------------------------------------
                                   SCF GRAD                          
                          Rob Parrish, Justin Turney,                
                       Andy Simmonett, and Alex Sokolov              
         ------------------------------------------------------------

  ==> Geometry <==

    Molecular point group: c2v
    Full point group: C_inf_v

    Geometry (in Angstrom), charge = 0, multiplicity = 3:

       Center              X                  Y                   Z               Mass       
    ------------   -----------------  -----------------  -----------------  -----------------
         LI           0.000000000000     0.000000000000     1.201234072399     7.016003436600
         CL           0.000000000000     0.000000000000    -0.241010548923    34.968852682000

  Nuclear repulsion =   18.712524453320121

  ==> Basis Set <==

  Basis Set: CC-PVDZ
    Blend: CC-PVDZ
    Number of shells: 14
    Number of basis functions: 32
    Number of Cartesian functions: 34
    Spherical Harmonics?: true
    Max angular momentum: 2

  ==> DFJKGrad: Density-Fitted SCF Gradients <==

    Gradient:                    1
    J tasked:                  Yes
    K tasked:                  Yes
    wK tasked:                  No
    OpenMP threads:              1
    Integrals threads:           1
    Memory [MiB]:              375
    Schwarz Cutoff:          1E-12
    Fitting Condition:       1E-10

   => Auxiliary Basis Set <=

  Basis Set: (CC-PVDZ AUX)
    Blend: CC-PVDZ-JKFIT + DEF2-UNIVERSAL-JKFIT
    Number of shells: 53
    Number of basis functions: 163
    Number of Cartesian functions: 190
    Spherical Harmonics?: true
    Max angular momentum: 3

  ==> DFT Potential <==

   => LibXC <=

    Version 6.2.2
    S. Lehtola, C. Steigemann, M. J.T. Oliveira, and M. A.L. Marques.,  SoftwareX 7, 1–5 (2018) (10.1016/j.softx.2017.11.002)

   => Composite Functional: B3LYP <= 

    B3LYP Hyb-GGA Exchange-Correlation Functional

    P. J. Stephens, F. J. Devlin, C. F. Chabalowski, and M. J. Frisch.,  J. Phys. Chem. 98, 11623 (1994) (10.1021/j100096a001)

    Deriv               =              1
    GGA                 =           TRUE
    Meta                =          FALSE

    Exchange Hybrid     =           TRUE
    MP2 Hybrid          =          FALSE

   => Exchange Functionals <=

    0.0800   Slater exchange
    0.7200         Becke 88

   => Exact (HF) Exchange <=

    0.2000               HF 

   => Correlation Functionals <=

    0.1900   Vosko, Wilk & Nusair (VWN5_RPA)
    0.8100   Lee, Yang & Parr

   => LibXC Density Thresholds  <==

    XC_HYB_GGA_XC_B3LYP:  1.00E-15 

   => Molecular Quadrature <=

    Radial Scheme          =       TREUTLER
    Pruning Scheme         =           NONE
    Nuclear Scheme         =       TREUTLER

    Blocking Scheme        =         OCTREE
    BS radius alpha        =              1
    Pruning alpha          =              1
    Radial Points          =             75
    Spherical Points       =            302
    Total Points           =          44319
    Total Blocks           =            435
    Max Points             =            255
    Max Functions          =             32
    Weights Tolerance      =       1.00E-15


  -Total Gradient:
     Atom            X                  Y                   Z
    ------   -----------------  -----------------  -----------------
       1       -0.000000000000     0.000000000000    -0.355591411805
       2        0.000000000000     0.000000000000     0.355471880391


*** tstop() called on Joses-MacBook-Pro-2.local at Wed Jul 16 18:37:21 2025
Module time:
	user time   =       0.60 seconds =       0.01 minutes
	system time =       1.60 seconds =       0.03 minutes
	total time  =          0 seconds =       0.00 minutes
Total time:
	user time   =      15.17 seconds =       0.25 minutes
	system time =      15.38 seconds =       0.26 minutes
	total time  =          3 seconds =       0.05 minutes

    			-----------------------------------------

    			 OPTKING 3.0: for geometry optimizations 

    			     By R.A. King, Bethel University     

    			        with contributions from          

    			    A.V. Copan, J. Cayton, A. Heide      

    			-----------------------------------------

    
	                            ===> Fragment 1 <== 

	 Z (Atomic Numbers)          Masses                          Geom                  
	       3.000000             7.016003          0.00000000  0.00000000  2.27000341   
	      17.000000            34.968853          0.00000000  0.00000000 -0.45544393   

	 - Coordinate -           - BOHR/RAD -       - ANG/DEG -
	 R(1,2)           =         2.725447           1.442245


	        --- Internal Coordinate Step in ANG or DEG, aJ/ANG or AJ/DEG ---
	-------------------------------------------------------------------------------
	           Coordinate      Previous         Force          Change          New 
	           ----------      --------        ------          ------        ------
	               R(1,2)       1.44224        2.92913        0.15828       1.60052
	-------------------------------------------------------------------------------

	                                 ==> Convergence Check <==                                  
    
	Measures of convergence in internal coordinates in au.
    
	Criteria marked as inactive (o), active & met (*), and active & unmet ( ).

	----------------------------------------------------------------------------------------------
	   Step    Total Energy     Delta E     Max Force     RMS Force      Max Disp      RMS Disp   
	----------------------------------------------------------------------------------------------
	  Convergence Criteria     1.00e-06 *    3.00e-04 *             o    1.20e-03 *             o
	----------------------------------------------------------------------------------------------
	     3    -467.44432835   -1.21e-01      3.56e-01      3.56e-01 o    2.99e-01      2.99e-01 o  ~
	----------------------------------------------------------------------------------------------

Next Geometry in Ang 
	Fragment 1 (Ang)

	   Li   0.0000000000   0.0000000000   1.2803736191
	   Cl   0.0000000000   0.0000000000  -0.3201500957


    Structure for next step:
    Molecular point group: c2v
    Full point group: C_inf_v

    Geometry (in Angstrom), charge = 0, multiplicity = 3:

    LI           0.000000000000     0.000000000000     1.333063470300
    CL           0.000000000000     0.000000000000    -0.267460244518


Scratch directory: /tmp/
gradient() will perform analytic gradient computation.
   => Libint2 <=

    Primary   basis highest AM E, G, H:  6, 6, 3
    Auxiliary basis highest AM E, G, H:  7, 7, 4
    Onebody   basis highest AM E, G, H:  -, -, -
    Solid Harmonics ordering:            Gaussian

*** tstart() called on Joses-MacBook-Pro-2.local
*** at Wed Jul 16 18:37:21 2025

   => Loading Basis Set <=

    Name: CC-PVDZ
    Role: ORBITAL
    Keyword: BASIS
    atoms 1 entry LI         line    42 file /Users/joseantoniorodriguesromero/anaconda3/share/psi4/basis/cc-pvdz.gbs 
    atoms 2 entry CL         line   658 file /Users/joseantoniorodriguesromero/anaconda3/share/psi4/basis/cc-pvdz.gbs 


         ---------------------------------------------------------
                                   SCF
               by Justin Turney, Rob Parrish, Andy Simmonett
                          and Daniel G. A. Smith
                              UKS Reference
                        1 Threads,    500 MiB Core
         ---------------------------------------------------------

  ==> Geometry <==

    Molecular point group: c2v
    Full point group: C_inf_v

    Geometry (in Angstrom), charge = 0, multiplicity = 3:

       Center              X                  Y                   Z               Mass       
    ------------   -----------------  -----------------  -----------------  -----------------
         LI           0.000000000000     0.000000000000     1.333063470300     7.016003436600
         CL           0.000000000000     0.000000000000    -0.267460244518    34.968852682000

  Running in c2v symmetry.

  Rotational constants: A = ************  B =      1.12614  C =      1.12614 [cm^-1]
  Rotational constants: A = ************  B =  33760.93495  C =  33760.93495 [MHz]
  Nuclear repulsion =   16.862004289173100

  Charge       = 0
  Multiplicity = 3
  Electrons    = 20
  Nalpha       = 11
  Nbeta        = 9

  ==> Algorithm <==

  SCF Algorithm Type is DF.
  DIIS enabled.
  MOM disabled.
  Fractional occupation disabled.
  Guess Type is READ.
  Energy threshold   = 1.00e-08
  Density threshold  = 1.00e-08
  Integral threshold = 1.00e-12

  ==> Primary Basis <==

  Basis Set: CC-PVDZ
    Blend: CC-PVDZ
    Number of shells: 14
    Number of basis functions: 32
    Number of Cartesian functions: 34
    Spherical Harmonics?: true
    Max angular momentum: 2

  ==> DFT Potential <==

   => LibXC <=

    Version 6.2.2
    S. Lehtola, C. Steigemann, M. J.T. Oliveira, and M. A.L. Marques.,  SoftwareX 7, 1–5 (2018) (10.1016/j.softx.2017.11.002)

   => Composite Functional: B3LYP <= 

    B3LYP Hyb-GGA Exchange-Correlation Functional

    P. J. Stephens, F. J. Devlin, C. F. Chabalowski, and M. J. Frisch.,  J. Phys. Chem. 98, 11623 (1994) (10.1021/j100096a001)

    Deriv               =              1
    GGA                 =           TRUE
    Meta                =          FALSE

    Exchange Hybrid     =           TRUE
    MP2 Hybrid          =          FALSE

   => Exchange Functionals <=

    0.0800   Slater exchange
    0.7200         Becke 88

   => Exact (HF) Exchange <=

    0.2000               HF 

   => Correlation Functionals <=

    0.1900   Vosko, Wilk & Nusair (VWN5_RPA)
    0.8100   Lee, Yang & Parr

   => LibXC Density Thresholds  <==

    XC_HYB_GGA_XC_B3LYP:  1.00E-15 

   => Molecular Quadrature <=

    Radial Scheme          =       TREUTLER
    Pruning Scheme         =           NONE
    Nuclear Scheme         =       TREUTLER

    Blocking Scheme        =         OCTREE
    BS radius alpha        =              1
    Pruning alpha          =              1
    Radial Points          =             75
    Spherical Points       =            302
    Total Points           =          44322
    Total Blocks           =            434
    Max Points             =            254
    Max Functions          =             32
    Weights Tolerance      =       1.00E-15

   => Loading Basis Set <=

    Name: (CC-PVDZ AUX)
    Role: JKFIT
    Keyword: DF_BASIS_SCF
    atoms 1 entry LI         line    54 file /Users/joseantoniorodriguesromero/anaconda3/share/psi4/basis/def2-universal-jkfit.gbs 
    atoms 2 entry CL         line   667 file /Users/joseantoniorodriguesromero/anaconda3/share/psi4/basis/cc-pvdz-jkfit.gbs 

   => Loading Basis Set <=

    Name: CC-PVDZ
    Role: ORBITAL
    Keyword: BASIS
    atoms 1 entry LI         line    42 file /Users/joseantoniorodriguesromero/anaconda3/share/psi4/basis/cc-pvdz.gbs 
    atoms 2 entry CL         line   658 file /Users/joseantoniorodriguesromero/anaconda3/share/psi4/basis/cc-pvdz.gbs 

  Reading orbitals from file /tmp/triplet_LiCl.default.68390.180.npy, no projection.

  ==> Integral Setup <==

  DFHelper Memory: AOs need 0.002 GiB; user supplied 0.328 GiB. 
  Using in-core AOs.

  ==> MemDFJK: Density-Fitted J/K Matrices <==

    J tasked:                   Yes
    K tasked:                   Yes
    wK tasked:                   No
    OpenMP threads:               1
    Memory [MiB]:               336
    Algorithm:                 Core
    Schwarz Cutoff:           1E-12
    Mask sparsity (%):       0.0000
    Fitting Condition:        1E-10

   => Auxiliary Basis Set <=

  Basis Set: (CC-PVDZ AUX)
    Blend: CC-PVDZ-JKFIT + DEF2-UNIVERSAL-JKFIT
    Number of shells: 53
    Number of basis functions: 163
    Number of Cartesian functions: 190
    Spherical Harmonics?: true
    Max angular momentum: 3

  Cached 100.0% of DFT collocation blocks in 0.038 [GiB].

  Minimum eigenvalue in the overlap matrix is 5.1487067895E-03.
  Reciprocal condition number of the overlap matrix is 1.7818355438E-03.
    Using symmetric orthogonalization.

  ==> Pre-Iterations <==

  SCF Guess: Orbitals guess was supplied from a previous computation.

   -------------------------------------------------------
    Irrep   Nso     Nmo     Nalpha   Nbeta   Ndocc  Nsocc
   -------------------------------------------------------
     A1        16      16       7       5       5       2
     A2         2       2       0       0       0       0
     B1         7       7       2       2       2       0
     B2         7       7       2       2       2       0
   -------------------------------------------------------
    Total      32      32      11       9       9       2
   -------------------------------------------------------

  ==> Iterations <==

                           Total Energy        Delta E     RMS |[F,P]|

   @DF-UKS iter   0:  -467.52109324007500   -4.67521e+02   7.91876e-03 
   @DF-UKS iter   1:  -467.52424608478833   -3.15284e-03   1.97083e-03 DIIS/ADIIS
   @DF-UKS iter   2:  -467.52462243171635   -3.76347e-04   1.52582e-03 DIIS/ADIIS/DAMP=1%
   @DF-UKS iter   3:  -467.52599582325217   -1.37339e-03   9.24192e-05 DIIS/DAMP=1%
   @DF-UKS iter   4:  -467.52520447909836    7.91344e-04   3.33360e-05 DIIS/DAMP=1%
   @DF-UKS iter   5:  -467.52509227427458    1.12205e-04   4.54162e-06 DIIS/DAMP=1%
   @DF-UKS iter   6:  -467.52511008962921   -1.78154e-05   7.85772e-07 DIIS/DAMP=1%
   @DF-UKS iter   7:  -467.52510725359917    2.83603e-06   9.19523e-08 DIIS/DAMP=1%
   @DF-UKS iter   8:  -467.52510801367544   -7.60076e-07   6.89843e-09 DIIS/DAMP=1%
   @DF-UKS iter   9:  -467.52510790632391    1.07352e-07   6.60687e-10 DIIS/DAMP=1%
   @DF-UKS iter  10:  -467.52510790931211   -2.98820e-09   8.76531e-11 DIIS/DAMP=1%
  Energy and wave function converged.


  ==> Post-Iterations <==

   Electrons on quadrature grid:
      Nalpha   =   10.9999997513 ; deviation = -2.487e-07
      Nbeta    =    9.0000000379 ; deviation = 3.792e-08
      Ntotal   =   19.9999997893 ; deviation = -2.107e-07 

   @Spin Contamination Metric:   2.064144168E-03
   @S^2 Expected:                2.000000000E+00
   @S^2 Observed:                2.002064144E+00
   @S   Expected:                1.000000000E+00
   @S   Observed:                1.000000000E+00

    Orbital Energies [Eh]
    ---------------------

    Alpha Occupied:                                                       

       1A1  -101.675054     2A1    -9.601088     3A1    -7.375364  
       1B2    -7.349289     1B1    -7.349289     4A1    -2.097507  
       5A1    -0.956956     6A1    -0.520877     2B1    -0.455303  
       2B2    -0.455303     7A1    -0.114672  

    Alpha Virtual:                                                        

       3B2    -0.016936     3B1    -0.016936     8A1    -0.009445  
       4B2     0.053893     4B1     0.053893     9A1     0.077470  
      10A1     0.181352    11A1     0.185777     1A2     0.185777  
       5B2     0.246344     5B1     0.246344    12A1     0.355448  
      13A1     0.486080     6B2     0.496668     6B1     0.496668  
       2A2     0.650548    14A1     0.650550    15A1     0.660600  
       7B2     0.769589     7B1     0.769589    16A1     1.195828  

    Beta Occupied:                                                        

       1A1  -101.667426     2A1    -9.593496     3A1    -7.351093  
       1B2    -7.344721     1B1    -7.344721     4A1    -2.084751  
       5A1    -0.899989     2B1    -0.438089     2B2    -0.438089  

    Beta Virtual:                                                         

       6A1    -0.352447     7A1    -0.042563     3B2     0.005471  
       3B1     0.005471     8A1     0.010204     4B2     0.072622  
       4B1     0.072622     9A1     0.106841     1A2     0.209029  
      10A1     0.209031    11A1     0.218366     5B2     0.292114  
       5B1     0.292114    12A1     0.382095     6B2     0.516992  
       6B1     0.516992    13A1     0.552082     2A2     0.661312  
      14A1     0.661315    15A1     0.715870     7B2     0.811310  
       7B1     0.811310    16A1     1.212803  

    Final Occupation by Irrep:
             A1    A2    B1    B2 
    DOCC [     5,    0,    2,    2 ]
    SOCC [     2,    0,    0,    0 ]
    NA   [     7,    0,    2,    2 ]
    NB   [     5,    0,    2,    2 ]

  @DF-UKS Final Energy:  -467.52510790931211

   => Energetics <=

    Nuclear Repulsion Energy =             16.8620042891731003
    One-Electron Energy =                -676.4024541189326101
    Two-Electron Energy =                 216.2748195073706370
    DFT Exchange-Correlation Energy =     -24.2594775869232357
    Empirical Dispersion Energy =           0.0000000000000000
    VV10 Nonlocal Energy =                  0.0000000000000000
    Total Energy =                       -467.5251079093121120

  UHF NO Occupations:
  HONO-2 :    5 A1 1.9990600
  HONO-1 :    6 A1 1.0000000
  HONO-0 :    7 A1 1.0000000
  LUNO+0 :    8 A1 0.0009400
  LUNO+1 :    3 B2 0.0000450
  LUNO+2 :    3 B1 0.0000450
  LUNO+3 :    9 A1 0.0000025


Computation Completed


Properties will be evaluated at   0.000000,   0.000000,   0.000000 [a0]

Properties computed using the SCF density matrix


 Multipole Moments:

 ------------------------------------------------------------------------------------
     Multipole            Electronic (a.u.)      Nuclear  (a.u.)        Total (a.u.)
 ------------------------------------------------------------------------------------

 L = 1.  Multiply by 2.5417464519 to convert [e a0] to [Debye]
 Dipole X            :          0.0000000            0.0000000            0.0000000
 Dipole Y            :          0.0000000            0.0000000            0.0000000
 Dipole Z            :         -0.5616342           -1.0348778           -1.5965120
 Magnitude           :                                                    1.5965120

 ------------------------------------------------------------------------------------

*** tstop() called on Joses-MacBook-Pro-2.local at Wed Jul 16 18:37:22 2025
Module time:
	user time   =       6.08 seconds =       0.10 minutes
	system time =       2.64 seconds =       0.04 minutes
	total time  =          1 seconds =       0.02 minutes
Total time:
	user time   =      21.29 seconds =       0.35 minutes
	system time =      18.24 seconds =       0.30 minutes
	total time  =          4 seconds =       0.07 minutes

*** tstart() called on Joses-MacBook-Pro-2.local
*** at Wed Jul 16 18:37:22 2025


         ------------------------------------------------------------
                                   SCF GRAD                          
                          Rob Parrish, Justin Turney,                
                       Andy Simmonett, and Alex Sokolov              
         ------------------------------------------------------------

  ==> Geometry <==

    Molecular point group: c2v
    Full point group: C_inf_v

    Geometry (in Angstrom), charge = 0, multiplicity = 3:

       Center              X                  Y                   Z               Mass       
    ------------   -----------------  -----------------  -----------------  -----------------
         LI           0.000000000000     0.000000000000     1.333063470300     7.016003436600
         CL           0.000000000000     0.000000000000    -0.267460244518    34.968852682000

  Nuclear repulsion =   16.862004289173100

  ==> Basis Set <==

  Basis Set: CC-PVDZ
    Blend: CC-PVDZ
    Number of shells: 14
    Number of basis functions: 32
    Number of Cartesian functions: 34
    Spherical Harmonics?: true
    Max angular momentum: 2

  ==> DFJKGrad: Density-Fitted SCF Gradients <==

    Gradient:                    1
    J tasked:                  Yes
    K tasked:                  Yes
    wK tasked:                  No
    OpenMP threads:              1
    Integrals threads:           1
    Memory [MiB]:              375
    Schwarz Cutoff:          1E-12
    Fitting Condition:       1E-10

   => Auxiliary Basis Set <=

  Basis Set: (CC-PVDZ AUX)
    Blend: CC-PVDZ-JKFIT + DEF2-UNIVERSAL-JKFIT
    Number of shells: 53
    Number of basis functions: 163
    Number of Cartesian functions: 190
    Spherical Harmonics?: true
    Max angular momentum: 3

  ==> DFT Potential <==

   => LibXC <=

    Version 6.2.2
    S. Lehtola, C. Steigemann, M. J.T. Oliveira, and M. A.L. Marques.,  SoftwareX 7, 1–5 (2018) (10.1016/j.softx.2017.11.002)

   => Composite Functional: B3LYP <= 

    B3LYP Hyb-GGA Exchange-Correlation Functional

    P. J. Stephens, F. J. Devlin, C. F. Chabalowski, and M. J. Frisch.,  J. Phys. Chem. 98, 11623 (1994) (10.1021/j100096a001)

    Deriv               =              1
    GGA                 =           TRUE
    Meta                =          FALSE

    Exchange Hybrid     =           TRUE
    MP2 Hybrid          =          FALSE

   => Exchange Functionals <=

    0.0800   Slater exchange
    0.7200         Becke 88

   => Exact (HF) Exchange <=

    0.2000               HF 

   => Correlation Functionals <=

    0.1900   Vosko, Wilk & Nusair (VWN5_RPA)
    0.8100   Lee, Yang & Parr

   => LibXC Density Thresholds  <==

    XC_HYB_GGA_XC_B3LYP:  1.00E-15 

   => Molecular Quadrature <=

    Radial Scheme          =       TREUTLER
    Pruning Scheme         =           NONE
    Nuclear Scheme         =       TREUTLER

    Blocking Scheme        =         OCTREE
    BS radius alpha        =              1
    Pruning alpha          =              1
    Radial Points          =             75
    Spherical Points       =            302
    Total Points           =          44322
    Total Blocks           =            434
    Max Points             =            254
    Max Functions          =             32
    Weights Tolerance      =       1.00E-15


  -Total Gradient:
     Atom            X                  Y                   Z
    ------   -----------------  -----------------  -----------------
       1        0.000000000000     0.000000000000    -0.199712297347
       2        0.000000000000     0.000000000000     0.199654945558


*** tstop() called on Joses-MacBook-Pro-2.local at Wed Jul 16 18:37:22 2025
Module time:
	user time   =       1.84 seconds =       0.03 minutes
	system time =       1.01 seconds =       0.02 minutes
	total time  =          0 seconds =       0.00 minutes
Total time:
	user time   =      23.13 seconds =       0.39 minutes
	system time =      19.25 seconds =       0.32 minutes
	total time  =          4 seconds =       0.07 minutes

    			-----------------------------------------

    			 OPTKING 3.0: for geometry optimizations 

    			     By R.A. King, Bethel University     

    			        with contributions from          

    			    A.V. Copan, J. Cayton, A. Heide      

    			-----------------------------------------

    
	                            ===> Fragment 1 <== 

	 Z (Atomic Numbers)          Masses                          Geom                  
	       3.000000             7.016003          0.00000000  0.00000000  2.51912487   
	      17.000000            34.968853          0.00000000  0.00000000 -0.50542661   

	 - Coordinate -           - BOHR/RAD -       - ANG/DEG -
	 R(1,2)           =         3.024551           1.600524


	        --- Internal Coordinate Step in ANG or DEG, aJ/ANG or AJ/DEG ---
	-------------------------------------------------------------------------------
	           Coordinate      Previous         Force          Change          New 
	           ----------      --------        ------          ------        ------
	               R(1,2)       1.60052        1.64514        0.17947       1.78000
	-------------------------------------------------------------------------------

	                                 ==> Convergence Check <==                                  
    
	Measures of convergence in internal coordinates in au.
    
	Criteria marked as inactive (o), active & met (*), and active & unmet ( ).

	----------------------------------------------------------------------------------------------
	   Step    Total Energy     Delta E     Max Force     RMS Force      Max Disp      RMS Disp   
	----------------------------------------------------------------------------------------------
	  Convergence Criteria     1.00e-06 *    3.00e-04 *             o    1.20e-03 *             o
	----------------------------------------------------------------------------------------------
	     4    -467.52510791   -8.08e-02      2.00e-01      2.00e-01 o    3.39e-01      3.39e-01 o  ~
	----------------------------------------------------------------------------------------------

Next Geometry in Ang 
	Fragment 1 (Ang)

	   Li   0.0000000000   0.0000000000   1.4227993292
	   Cl   0.0000000000   0.0000000000  -0.3571961034


    Structure for next step:
    Molecular point group: c2v
    Full point group: C_inf_v

    Geometry (in Angstrom), charge = 0, multiplicity = 3:

    LI           0.000000000000     0.000000000000     1.482544036444
    CL           0.000000000000     0.000000000000    -0.297451396224


Scratch directory: /tmp/
gradient() will perform analytic gradient computation.
   => Libint2 <=

    Primary   basis highest AM E, G, H:  6, 6, 3
    Auxiliary basis highest AM E, G, H:  7, 7, 4
    Onebody   basis highest AM E, G, H:  -, -, -
    Solid Harmonics ordering:            Gaussian

*** tstart() called on Joses-MacBook-Pro-2.local
*** at Wed Jul 16 18:37:22 2025

   => Loading Basis Set <=

    Name: CC-PVDZ
    Role: ORBITAL
    Keyword: BASIS
    atoms 1 entry LI         line    42 file /Users/joseantoniorodriguesromero/anaconda3/share/psi4/basis/cc-pvdz.gbs 
    atoms 2 entry CL         line   658 file /Users/joseantoniorodriguesromero/anaconda3/share/psi4/basis/cc-pvdz.gbs 


         ---------------------------------------------------------
                                   SCF
               by Justin Turney, Rob Parrish, Andy Simmonett
                          and Daniel G. A. Smith
                              UKS Reference
                        1 Threads,    500 MiB Core
         ---------------------------------------------------------

  ==> Geometry <==

    Molecular point group: c2v
    Full point group: C_inf_v

    Geometry (in Angstrom), charge = 0, multiplicity = 3:

       Center              X                  Y                   Z               Mass       
    ------------   -----------------  -----------------  -----------------  -----------------
         LI           0.000000000000     0.000000000000     1.482544036444     7.016003436600
         CL           0.000000000000     0.000000000000    -0.297451396224    34.968852682000

  Running in c2v symmetry.

  Rotational constants: A = ************  B =      0.91050  C =      0.91050 [cm^-1]
  Rotational constants: A = ************  B =  27296.11983  C =  27296.11983 [MHz]
  Nuclear repulsion =   15.161857861470827

  Charge       = 0
  Multiplicity = 3
  Electrons    = 20
  Nalpha       = 11
  Nbeta        = 9

  ==> Algorithm <==

  SCF Algorithm Type is DF.
  DIIS enabled.
  MOM disabled.
  Fractional occupation disabled.
  Guess Type is READ.
  Energy threshold   = 1.00e-08
  Density threshold  = 1.00e-08
  Integral threshold = 1.00e-12

  ==> Primary Basis <==

  Basis Set: CC-PVDZ
    Blend: CC-PVDZ
    Number of shells: 14
    Number of basis functions: 32
    Number of Cartesian functions: 34
    Spherical Harmonics?: true
    Max angular momentum: 2

  ==> DFT Potential <==

   => LibXC <=

    Version 6.2.2
    S. Lehtola, C. Steigemann, M. J.T. Oliveira, and M. A.L. Marques.,  SoftwareX 7, 1–5 (2018) (10.1016/j.softx.2017.11.002)

   => Composite Functional: B3LYP <= 

    B3LYP Hyb-GGA Exchange-Correlation Functional

    P. J. Stephens, F. J. Devlin, C. F. Chabalowski, and M. J. Frisch.,  J. Phys. Chem. 98, 11623 (1994) (10.1021/j100096a001)

    Deriv               =              1
[...]
	               R(1,2)       5.00170        0.00166        0.00090       5.00260
	-------------------------------------------------------------------------------

	                                 ==> Convergence Check <==                                  
    
	Measures of convergence in internal coordinates in au.
    
	Criteria marked as inactive (o), active & met (*), and active & unmet ( ).

	----------------------------------------------------------------------------------------------
	   Step    Total Energy     Delta E     Max Force     RMS Force      Max Disp      RMS Disp   
	----------------------------------------------------------------------------------------------
	  Convergence Criteria     1.00e-06 *    3.00e-04 *             o    1.20e-03 *             o
	----------------------------------------------------------------------------------------------
	    28    -467.64977177   -1.76e-04      2.02e-04 *    2.02e-04 o    1.70e-03      1.70e-03 o  ~
	----------------------------------------------------------------------------------------------

Next Geometry in Ang 
	Fragment 1 (Ang)

	   Li   0.0000000000   0.0000000000   4.1663284215
	   Cl   0.0000000000   0.0000000000  -0.8362747891


    Structure for next step:
    Molecular point group: c2v
    Full point group: C_inf_v

    Geometry (in Angstrom), charge = 0, multiplicity = 3:

    LI           0.000000000000     0.000000000000     4.166628419609
    CL           0.000000000000     0.000000000000    -0.835974790962


Scratch directory: /tmp/
gradient() will perform analytic gradient computation.
   => Libint2 <=

    Primary   basis highest AM E, G, H:  6, 6, 3
    Auxiliary basis highest AM E, G, H:  7, 7, 4
    Onebody   basis highest AM E, G, H:  -, -, -
    Solid Harmonics ordering:            Gaussian

*** tstart() called on Joses-MacBook-Pro-2.local
*** at Wed Jul 16 18:37:44 2025

   => Loading Basis Set <=

    Name: CC-PVDZ
    Role: ORBITAL
    Keyword: BASIS
    atoms 1 entry LI         line    42 file /Users/joseantoniorodriguesromero/anaconda3/share/psi4/basis/cc-pvdz.gbs 
    atoms 2 entry CL         line   658 file /Users/joseantoniorodriguesromero/anaconda3/share/psi4/basis/cc-pvdz.gbs 


         ---------------------------------------------------------
                                   SCF
               by Justin Turney, Rob Parrish, Andy Simmonett
                          and Daniel G. A. Smith
                              UKS Reference
                        1 Threads,    500 MiB Core
         ---------------------------------------------------------

  ==> Geometry <==

    Molecular point group: c2v
    Full point group: C_inf_v

    Geometry (in Angstrom), charge = 0, multiplicity = 3:

       Center              X                  Y                   Z               Mass       
    ------------   -----------------  -----------------  -----------------  -----------------
         LI           0.000000000000     0.000000000000     4.166628419609     7.016003436600
         CL           0.000000000000     0.000000000000    -0.835974790962    34.968852682000

  Running in c2v symmetry.

  Rotational constants: A = ************  B =      0.11527  C =      0.11527 [cm^-1]
  Rotational constants: A = ************  B =   3455.78390  C =   3455.78390 [MHz]
  Nuclear repulsion =    5.394798789386313

  Charge       = 0
  Multiplicity = 3
  Electrons    = 20
  Nalpha       = 11
  Nbeta        = 9

  ==> Algorithm <==

  SCF Algorithm Type is DF.
  DIIS enabled.
  MOM disabled.
  Fractional occupation disabled.
  Guess Type is READ.
  Energy threshold   = 1.00e-08
  Density threshold  = 1.00e-08
  Integral threshold = 1.00e-12

  ==> Primary Basis <==

  Basis Set: CC-PVDZ
    Blend: CC-PVDZ
    Number of shells: 14
    Number of basis functions: 32
    Number of Cartesian functions: 34
    Spherical Harmonics?: true
    Max angular momentum: 2

  ==> DFT Potential <==

   => LibXC <=

    Version 6.2.2
    S. Lehtola, C. Steigemann, M. J.T. Oliveira, and M. A.L. Marques.,  SoftwareX 7, 1–5 (2018) (10.1016/j.softx.2017.11.002)

   => Composite Functional: B3LYP <= 

    B3LYP Hyb-GGA Exchange-Correlation Functional

    P. J. Stephens, F. J. Devlin, C. F. Chabalowski, and M. J. Frisch.,  J. Phys. Chem. 98, 11623 (1994) (10.1021/j100096a001)

    Deriv               =              1
    GGA                 =           TRUE
    Meta                =          FALSE

    Exchange Hybrid     =           TRUE
    MP2 Hybrid          =          FALSE

   => Exchange Functionals <=

    0.0800   Slater exchange
    0.7200         Becke 88

   => Exact (HF) Exchange <=

    0.2000               HF 

   => Correlation Functionals <=

    0.1900   Vosko, Wilk & Nusair (VWN5_RPA)
    0.8100   Lee, Yang & Parr

   => LibXC Density Thresholds  <==

    XC_HYB_GGA_XC_B3LYP:  1.00E-15 

   => Molecular Quadrature <=

    Radial Scheme          =       TREUTLER
    Pruning Scheme         =           NONE
    Nuclear Scheme         =       TREUTLER

    Blocking Scheme        =         OCTREE
    BS radius alpha        =              1
    Pruning alpha          =              1
    Radial Points          =             75
    Spherical Points       =            302
    Total Points           =          44412
    Total Blocks           =            467
    Max Points             =            255
    Max Functions          =             32
    Weights Tolerance      =       1.00E-15

   => Loading Basis Set <=

    Name: (CC-PVDZ AUX)
    Role: JKFIT
    Keyword: DF_BASIS_SCF
    atoms 1 entry LI         line    54 file /Users/joseantoniorodriguesromero/anaconda3/share/psi4/basis/def2-universal-jkfit.gbs 
    atoms 2 entry CL         line   667 file /Users/joseantoniorodriguesromero/anaconda3/share/psi4/basis/cc-pvdz-jkfit.gbs 

   => Loading Basis Set <=

    Name: CC-PVDZ
    Role: ORBITAL
    Keyword: BASIS
    atoms 1 entry LI         line    42 file /Users/joseantoniorodriguesromero/anaconda3/share/psi4/basis/cc-pvdz.gbs 
    atoms 2 entry CL         line   658 file /Users/joseantoniorodriguesromero/anaconda3/share/psi4/basis/cc-pvdz.gbs 

  Reading orbitals from file /tmp/triplet_LiCl.default.68390.180.npy, no projection.

  ==> Integral Setup <==

  DFHelper Memory: AOs need 0.002 GiB; user supplied 0.334 GiB. 
  Using in-core AOs.

  ==> MemDFJK: Density-Fitted J/K Matrices <==

    J tasked:                   Yes
    K tasked:                   Yes
    wK tasked:                   No
    OpenMP threads:               1
    Memory [MiB]:               342
    Algorithm:                 Core
    Schwarz Cutoff:           1E-12
    Mask sparsity (%):       0.0000
    Fitting Condition:        1E-10

   => Auxiliary Basis Set <=

  Basis Set: (CC-PVDZ AUX)
    Blend: CC-PVDZ-JKFIT + DEF2-UNIVERSAL-JKFIT
    Number of shells: 53
    Number of basis functions: 163
    Number of Cartesian functions: 190
    Spherical Harmonics?: true
    Max angular momentum: 3

  Cached 100.0% of DFT collocation blocks in 0.032 [GiB].

  Minimum eigenvalue in the overlap matrix is 3.5015257344E-02.
  Reciprocal condition number of the overlap matrix is 1.6693571222E-02.
    Using symmetric orthogonalization.

  ==> Pre-Iterations <==

  SCF Guess: Orbitals guess was supplied from a previous computation.

   -------------------------------------------------------
    Irrep   Nso     Nmo     Nalpha   Nbeta   Ndocc  Nsocc
   -------------------------------------------------------
     A1        16      16       7       5       5       2
     A2         2       2       0       0       0       0
     B1         7       7       2       2       2       0
     B2         7       7       2       2       2       0
   -------------------------------------------------------
    Total      32      32      11       9       9       2
   -------------------------------------------------------

  ==> Iterations <==

                           Total Energy        Delta E     RMS |[F,P]|

   @DF-UKS iter   0:  -467.64976819124740   -4.67650e+02   3.06151e-06 
   @DF-UKS iter   1:  -467.64977212458649   -3.93334e-06   9.35163e-08 DIIS
   @DF-UKS iter   2:  -467.64977212458808   -1.59162e-12   6.18187e-08 DIIS/DAMP=1%
   @DF-UKS iter   3:  -467.64977206098001    6.36081e-08   2.34128e-09 DIIS/DAMP=1%
   @DF-UKS iter   4:  -467.64977212451129   -6.35313e-08   9.26874e-10 DIIS/DAMP=1%
   @DF-UKS iter   5:  -467.64977212473525   -2.23963e-10   4.18939e-10 DIIS/DAMP=1%
  Energy and wave function converged.


  ==> Post-Iterations <==

   Electrons on quadrature grid:
      Nalpha   =   10.9999937980 ; deviation = -6.202e-06
      Nbeta    =    8.9999923491 ; deviation = -7.651e-06
      Ntotal   =   19.9999861471 ; deviation = -1.385e-05 

   @Spin Contamination Metric:   1.833196205E-03
   @S^2 Expected:                2.000000000E+00
   @S^2 Observed:                2.001833196E+00
   @S   Expected:                1.000000000E+00
   @S   Observed:                1.000000000E+00

    Orbital Energies [Eh]
    ---------------------

    Alpha Occupied:                                                       

       1A1  -101.591715     2A1    -9.505759     3A1    -7.279575  
       1B2    -7.255948     1B1    -7.255948     4A1    -2.034107  
       5A1    -0.843031     6A1    -0.405214     2B1    -0.349611  
       2B2    -0.349611     7A1    -0.135998  

    Alpha Virtual:                                                        

       8A1    -0.033077     3B2    -0.033045     3B1    -0.033045  
       4B1     0.070595     4B2     0.070595     9A1     0.071055  
      10A1     0.084257    11A1     0.213166     5B1     0.216157  
       5B2     0.216157    12A1     0.216836     1A2     0.216836  
      13A1     0.513143     6B1     0.532453     6B2     0.532453  
      14A1     0.617212    15A1     0.655808     7B1     0.667337  
       7B2     0.667337     2A2     0.711316    16A1     0.711348  

    Beta Occupied:                                                        

       1A1  -101.584986     2A1    -9.499109     3A1    -7.257647  
       1B2    -7.251954     1B1    -7.251954     4A1    -2.026818  
       5A1    -0.789665     2B1    -0.333696     2B2    -0.333696  

    Beta Virtual:                                                         

       6A1    -0.243992     7A1    -0.055931     3B2     0.000799  
       3B1     0.000799     8A1     0.001151     4B1     0.088668  
       4B2     0.088668     9A1     0.088909    10A1     0.105019  
      11A1     0.260444    12A1     0.263121     1A2     0.263123  
       5B2     0.263838     5B1     0.263838     6B1     0.539701  
       6B2     0.539701    13A1     0.556737    14A1     0.640951  
       2A2     0.719645    15A1     0.719674     7B2     0.724992  
       7B1     0.724992    16A1     0.734471  

    Final Occupation by Irrep:
             A1    A2    B1    B2 
    DOCC [     5,    0,    2,    2 ]
    SOCC [     2,    0,    0,    0 ]
    NA   [     7,    0,    2,    2 ]
    NB   [     5,    0,    2,    2 ]

  @DF-UKS Final Energy:  -467.64977212473525

   => Energetics <=

    Nuclear Repulsion Energy =              5.3947987893863134
    One-Electron Energy =                -655.5355928997744286
    Two-Electron Energy =                 206.6902323398242345
    DFT Exchange-Correlation Energy =     -24.1992103541713099
    Empirical Dispersion Energy =           0.0000000000000000
    VV10 Nonlocal Energy =                  0.0000000000000000
    Total Energy =                       -467.6497721247352501

  UHF NO Occupations:
  HONO-2 :    5 A1 1.9991387
  HONO-1 :    6 A1 1.0000000
  HONO-0 :    7 A1 1.0000000
  LUNO+0 :    8 A1 0.0008613
  LUNO+1 :    3 B1 0.0000278
  LUNO+2 :    3 B2 0.0000278
  LUNO+3 :    9 A1 0.0000002


Computation Completed


Properties will be evaluated at   0.000000,   0.000000,   0.000000 [a0]

Properties computed using the SCF density matrix


 Multipole Moments:

 ------------------------------------------------------------------------------------
     Multipole            Electronic (a.u.)      Nuclear  (a.u.)        Total (a.u.)
 ------------------------------------------------------------------------------------

 L = 1.  Multiply by 2.5417464519 to convert [e a0] to [Debye]
 Dipole X            :          0.0000000            0.0000000            0.0000000
 Dipole Y            :          0.0000000            0.0000000            0.0000000
 Dipole Z            :          3.2547500           -3.2346181            0.0201319
 Magnitude           :                                                    0.0201319

 ------------------------------------------------------------------------------------

*** tstop() called on Joses-MacBook-Pro-2.local at Wed Jul 16 18:37:44 2025
Module time:
	user time   =       1.75 seconds =       0.03 minutes
	system time =       2.44 seconds =       0.04 minutes
	total time  =          0 seconds =       0.00 minutes
Total time:
	user time   =     133.81 seconds =       2.23 minutes
	system time =     132.27 seconds =       2.20 minutes
	total time  =         26 seconds =       0.43 minutes

*** tstart() called on Joses-MacBook-Pro-2.local
*** at Wed Jul 16 18:37:44 2025


         ------------------------------------------------------------
                                   SCF GRAD                          
                          Rob Parrish, Justin Turney,                
                       Andy Simmonett, and Alex Sokolov              
         ------------------------------------------------------------

  ==> Geometry <==

    Molecular point group: c2v
    Full point group: C_inf_v

    Geometry (in Angstrom), charge = 0, multiplicity = 3:

       Center              X                  Y                   Z               Mass       
    ------------   -----------------  -----------------  -----------------  -----------------
         LI           0.000000000000     0.000000000000     4.166628419609     7.016003436600
         CL           0.000000000000     0.000000000000    -0.835974790962    34.968852682000

  Nuclear repulsion =    5.394798789386313

  ==> Basis Set <==

  Basis Set: CC-PVDZ
    Blend: CC-PVDZ
    Number of shells: 14
    Number of basis functions: 32
    Number of Cartesian functions: 34
    Spherical Harmonics?: true
    Max angular momentum: 2

  ==> DFJKGrad: Density-Fitted SCF Gradients <==

    Gradient:                    1
    J tasked:                  Yes
    K tasked:                  Yes
    wK tasked:                  No
    OpenMP threads:              1
    Integrals threads:           1
    Memory [MiB]:              375
    Schwarz Cutoff:          1E-12
    Fitting Condition:       1E-10

   => Auxiliary Basis Set <=

  Basis Set: (CC-PVDZ AUX)
    Blend: CC-PVDZ-JKFIT + DEF2-UNIVERSAL-JKFIT
    Number of shells: 53
    Number of basis functions: 163
    Number of Cartesian functions: 190
    Spherical Harmonics?: true
    Max angular momentum: 3

  ==> DFT Potential <==

   => LibXC <=

    Version 6.2.2
    S. Lehtola, C. Steigemann, M. J.T. Oliveira, and M. A.L. Marques.,  SoftwareX 7, 1–5 (2018) (10.1016/j.softx.2017.11.002)

   => Composite Functional: B3LYP <= 

    B3LYP Hyb-GGA Exchange-Correlation Functional

    P. J. Stephens, F. J. Devlin, C. F. Chabalowski, and M. J. Frisch.,  J. Phys. Chem. 98, 11623 (1994) (10.1021/j100096a001)

    Deriv               =              1
    GGA                 =           TRUE
    Meta                =          FALSE

    Exchange Hybrid     =           TRUE
    MP2 Hybrid          =          FALSE

   => Exchange Functionals <=

    0.0800   Slater exchange
    0.7200         Becke 88

   => Exact (HF) Exchange <=

    0.2000               HF 

   => Correlation Functionals <=

    0.1900   Vosko, Wilk & Nusair (VWN5_RPA)
    0.8100   Lee, Yang & Parr

   => LibXC Density Thresholds  <==

    XC_HYB_GGA_XC_B3LYP:  1.00E-15 

   => Molecular Quadrature <=

    Radial Scheme          =       TREUTLER
    Pruning Scheme         =           NONE
    Nuclear Scheme         =       TREUTLER

    Blocking Scheme        =         OCTREE
    BS radius alpha        =              1
    Pruning alpha          =              1
    Radial Points          =             75
    Spherical Points       =            302
    Total Points           =          44412
    Total Blocks           =            467
    Max Points             =            255
    Max Functions          =             32
    Weights Tolerance      =       1.00E-15


  -Total Gradient:
     Atom            X                  Y                   Z
    ------   -----------------  -----------------  -----------------
       1       -0.000000000000     0.000000000000    -0.000201605356
       2        0.000000000000    -0.000000000000     0.000200982295


*** tstop() called on Joses-MacBook-Pro-2.local at Wed Jul 16 18:37:44 2025
Module time:
	user time   =       1.04 seconds =       0.02 minutes
	system time =       1.71 seconds =       0.03 minutes
	total time  =          0 seconds =       0.00 minutes
Total time:
	user time   =     134.89 seconds =       2.25 minutes
	system time =     133.98 seconds =       2.23 minutes
	total time  =         26 seconds =       0.43 minutes

    			-----------------------------------------

    			 OPTKING 3.0: for geometry optimizations 

    			     By R.A. King, Bethel University     

    			        with contributions from          

    			    A.V. Copan, J. Cayton, A. Heide      

    			-----------------------------------------

    
	                            ===> Fragment 1 <== 

	 Z (Atomic Numbers)          Masses                          Geom                  
	       3.000000             7.016003          0.00000000  0.00000000  7.87378658   
	      17.000000            34.968853          0.00000000  0.00000000 -1.57976340   

	 - Coordinate -           - BOHR/RAD -       - ANG/DEG -
	 R(1,2)           =         9.453550           5.002603


	        --- Internal Coordinate Step in ANG or DEG, aJ/ANG or AJ/DEG ---
	-------------------------------------------------------------------------------
	           Coordinate      Previous         Force          Change          New 
	           ----------      --------        ------          ------        ------
	               R(1,2)       5.00260        0.00166        0.00090       5.00350
	-------------------------------------------------------------------------------

	                                 ==> Convergence Check <==                                  
    
	Measures of convergence in internal coordinates in au.
    
	Criteria marked as inactive (o), active & met (*), and active & unmet ( ).

	----------------------------------------------------------------------------------------------
	   Step    Total Energy     Delta E     Max Force     RMS Force      Max Disp      RMS Disp   
	----------------------------------------------------------------------------------------------
	  Convergence Criteria     1.00e-06 *    3.00e-04 *             o    1.20e-03 *             o
	----------------------------------------------------------------------------------------------
	    29    -467.64977212   -3.51e-07 *    2.01e-04 *    2.01e-04 o    1.70e-03      1.70e-03 o  ~
	----------------------------------------------------------------------------------------------

Next Geometry in Ang 
	Fragment 1 (Ang)

	   Li   0.0000000000   0.0000000000   4.1670782606
	   Cl   0.0000000000   0.0000000000  -0.8364246319


    Final optimized geometry and variables:
    Molecular point group: c2v
    Full point group: C_inf_v

    Geometry (in Angstrom), charge = 0, multiplicity = 3:

    LI           0.000000000000     0.000000000000     4.166628419609
    CL           0.000000000000     0.000000000000    -0.835974790962


    Psi4 stopped on: Wednesday, 16 July 2025 06:37PM
    Psi4 wall time for execution: 0:00:27.16

*** Psi4 exiting successfully. Buy a developer a beer!
