
    -----------------------------------------------------------------------
          Psi4: An Open-Source Ab Initio Electronic Structure Package
                               Psi4 1.9.1 release

                         Git: Rev {} zzzzzzz 


    D. G. A. Smith, L. A. Burns, A. C. Simmonett, R. M. Parrish,
    M. C. Schieber, R. Galvelis, P. Kraus, H. Kruse, R. Di Remigio,
    A. Alenaizan, A. M. James, S. Lehtola, J. P. Misiewicz, M. Scheurer,
    R. A. Shaw, J. B. Schriber, Y. Xie, Z. L. Glick, D. A. Sirianni,
    J. S. O'Brien, J. M. Waldrop, A. Kumar, E. G. Hohenstein,
    B. P. Pritchard, B. R. Brooks, H. F. Schaefer III, A. Yu. Sokolov,
    K. Patkowski, A. E. DePrince III, U. Bozkaya, R. A. King,
    F. A. Evangelista, J. M. Turney, T. D. Crawford, C. D. Sherrill,
    J. Chem. Phys. 152(18) 184108 (2020). https://doi.org/10.1063/5.0006002

                            Additional Code Authors
    E. T. Seidl, C. L. Janssen, E. F. Valeev, M. L. Leininger,
    J. F. Gonthier, R. M. Richard, H. R. McAlexander, M. Saitow, X. Wang,
    P. Verma, M. H. Lechner, A. Jiang, S. Behnle, A. G. Heide,
    M. F. Herbst, and D. L. Poole

             Previous Authors, Complete List of Code Contributors,
                       and Citations for Specific Modules
    https://github.com/psi4/psi4/blob/master/codemeta.json
    https://github.com/psi4/psi4/graphs/contributors
    http://psicode.org/psi4manual/master/introduction.html#citing-psifour

    -----------------------------------------------------------------------


    Psi4 started on: Saturday, 25 January 2025 09:14PM

    Process ID: 6744
    Host:       Joses-MacBook-Pro-2.local
    PSIDATADIR: /Users/joseantoniorodriguesromero/anaconda3/share/psi4
    Memory:     500.0 MiB
    Threads:    1
    
  ==> Input File <==

--------------------------------------------------------------------------
molecule { 
0 2
Cl           0.000000           0.000000           0.000000
}

set { 
basis              cc-pvtz
reference          uks
maxiter            500
DAMPING_PERCENTAGE 1
E_CONVERGENCE      1.0E-8
D_CONVERGENCE      1.0E-8
DIIS_MAX_VECS      400
MBIS_MAXITER       8000
guess              SAP
}

energy('b3lyp')
--------------------------------------------------------------------------

Scratch directory: /tmp/
   => Libint2 <=

    Primary   basis highest AM E, G, H:  6, 6, 3
    Auxiliary basis highest AM E, G, H:  7, 7, 4
    Onebody   basis highest AM E, G, H:  -, -, -
    Solid Harmonics ordering:            Gaussian

*** tstart() called on Joses-MacBook-Pro-2.local
*** at Sat Jan 25 21:14:51 2025

   => Loading Basis Set <=

    Name: CC-PVTZ
    Role: ORBITAL
    Keyword: BASIS
    atoms 1 entry CL         line   847 file /Users/joseantoniorodriguesromero/anaconda3/share/psi4/basis/cc-pvtz.gbs 


         ---------------------------------------------------------
                                   SCF
               by Justin Turney, Rob Parrish, Andy Simmonett
                          and Daniel G. A. Smith
                              UKS Reference
                        1 Threads,    500 MiB Core
         ---------------------------------------------------------

  ==> Geometry <==

    Molecular point group: d2h
    Geometry (in Angstrom), charge = 0, multiplicity = 2:

       Center              X                  Y                   Z               Mass       
    ------------   -----------------  -----------------  -----------------  -----------------
         CL           0.000000000000     0.000000000000     0.000000000000    34.968852682000

  Running in d2h symmetry.

  Rotational constants: A = ************  B = ************  C = ************ [cm^-1]
  Rotational constants: A = ************  B = ************  C = ************ [MHz]
  Nuclear repulsion =    0.000000000000000

  Charge       = 0
  Multiplicity = 2
  Electrons    = 17
  Nalpha       = 9
  Nbeta        = 8

  ==> Algorithm <==

  SCF Algorithm Type is DF.
  DIIS enabled.
  MOM disabled.
  Fractional occupation disabled.
  Guess Type is SAP.
  Energy threshold   = 1.00e-08
  Density threshold  = 1.00e-08
  Integral threshold = 1.00e-12

  ==> Primary Basis <==

  Basis Set: CC-PVTZ
    Blend: CC-PVTZ
    Number of shells: 12
    Number of basis functions: 34
    Number of Cartesian functions: 39
    Spherical Harmonics?: true
    Max angular momentum: 3

  ==> DFT Potential <==

   => LibXC <=

    Version 6.2.2
    S. Lehtola, C. Steigemann, M. J.T. Oliveira, and M. A.L. Marques.,  SoftwareX 7, 1–5 (2018) (10.1016/j.softx.2017.11.002)

   => Composite Functional: B3LYP <= 

    B3LYP Hyb-GGA Exchange-Correlation Functional

    P. J. Stephens, F. J. Devlin, C. F. Chabalowski, and M. J. Frisch.,  J. Phys. Chem. 98, 11623 (1994) (10.1021/j100096a001)

    Deriv               =              1
    GGA                 =           TRUE
    Meta                =          FALSE

    Exchange Hybrid     =           TRUE
    MP2 Hybrid          =          FALSE

   => Exchange Functionals <=

    0.0800   Slater exchange
    0.7200         Becke 88

   => Exact (HF) Exchange <=

    0.2000               HF 

   => Correlation Functionals <=

    0.1900   Vosko, Wilk & Nusair (VWN5_RPA)
    0.8100   Lee, Yang & Parr

   => LibXC Density Thresholds  <==

    XC_HYB_GGA_XC_B3LYP:  1.00E-15 

   => Molecular Quadrature <=

    Radial Scheme          =       TREUTLER
    Pruning Scheme         =           NONE
    Nuclear Scheme         =       TREUTLER

    Blocking Scheme        =         OCTREE
    BS radius alpha        =              1
    Pruning alpha          =              1
    Radial Points          =             75
    Spherical Points       =            302
    Total Points           =          20234
    Total Blocks           =            209
    Max Points             =            252
    Max Functions          =             34
    Weights Tolerance      =       1.00E-15

   => Loading Basis Set <=

    Name: (CC-PVTZ AUX)
    Role: JKFIT
    Keyword: DF_BASIS_SCF
    atoms 1 entry CL         line   689 file /Users/joseantoniorodriguesromero/anaconda3/share/psi4/basis/cc-pvtz-jkfit.gbs 

  ==> Integral Setup <==

  DFHelper Memory: AOs need 0.001 GiB; user supplied 0.346 GiB. 
  Using in-core AOs.

  ==> MemDFJK: Density-Fitted J/K Matrices <==

    J tasked:                   Yes
    K tasked:                   Yes
    wK tasked:                   No
    OpenMP threads:               1
    Memory [MiB]:               354
    Algorithm:                 Core
    Schwarz Cutoff:           1E-12
    Mask sparsity (%):       0.0000
    Fitting Condition:        1E-10

   => Auxiliary Basis Set <=

  Basis Set: (CC-PVTZ AUX)
    Blend: CC-PVTZ-JKFIT
    Number of shells: 37
    Number of basis functions: 121
    Number of Cartesian functions: 145
    Spherical Harmonics?: true
    Max angular momentum: 4

  Cached 100.0% of DFT collocation blocks in 0.020 [GiB].

  Minimum eigenvalue in the overlap matrix is 1.9192561686E-02.
  Reciprocal condition number of the overlap matrix is 8.5600897954E-03.
    Using symmetric orthogonalization.

  ==> Pre-Iterations <==

  SCF Guess: Superposition of Atomic Potentials (doi:10.1021/acs.jctc.8b01089).

  ==> SAP guess <==

   => Molecular Quadrature <=

    Radial Scheme          =       TREUTLER
    Pruning Scheme         =           NONE
    Nuclear Scheme         =       TREUTLER

    Blocking Scheme        =         OCTREE
    BS radius alpha        =              1
    Pruning alpha          =              1
    Radial Points          =             75
    Spherical Points       =            302
    Total Points           =          20234
    Total Blocks           =            209
    Max Points             =            252
    Max Functions          =             34
    Weights Tolerance      =       1.00E-15

   -------------------------------------------------------
    Irrep   Nso     Nmo     Nalpha   Nbeta   Ndocc  Nsocc
   -------------------------------------------------------
     Ag         9       9       3       3       3       0
     B1g        2       2       0       0       0       0
     B2g        2       2       0       0       0       0
     B3g        2       2       0       0       0       0
     Au         1       1       0       0       0       0
     B1u        6       6       2       2       2       0
     B2u        6       6       2       1       1       1
     B3u        6       6       2       2       2       0
   -------------------------------------------------------
    Total      34      34       9       8       8       1
   -------------------------------------------------------

  ==> Iterations <==

                           Total Energy        Delta E     RMS |[F,P]|

   @DF-UKS iter   1:  -460.16835410269812   -4.60168e+02   1.43037e-02 ADIIS/DIIS
   @DF-UKS iter   2:  -460.17400774321351   -5.65364e-03   3.32459e-03 ADIIS/DIIS/DAMP=1%
   @DF-UKS iter   3:  -460.17737406553141   -3.36632e-03   1.29348e-03 ADIIS/DIIS/DAMP=1%
   @DF-UKS iter   4:  -460.17366011820172    3.71395e-03   1.57972e-04 ADIIS/DIIS/DAMP=1%
   @DF-UKS iter   5:  -460.17478263293697   -1.12251e-03   2.55205e-05 DIIS/DAMP=1%
   @DF-UKS iter   6:  -460.17464595620413    1.36677e-04   3.40825e-07 DIIS/DAMP=1%
   @DF-UKS iter   7:  -460.17466468559434   -1.87294e-05   1.40672e-07 DIIS/DAMP=1%
   @DF-UKS iter   8:  -460.17466453256367    1.53031e-07   1.15200e-08 DIIS/DAMP=1%
   @DF-UKS iter   9:  -460.17466464235184   -1.09788e-07   1.06070e-09 DIIS/DAMP=1%
   @DF-UKS iter  10:  -460.17466463602790    6.32394e-09   8.82633e-11 DIIS/DAMP=1%
  Energy and wave function converged.


  ==> Post-Iterations <==

   Electrons on quadrature grid:
      Nalpha   =    8.9999999925 ; deviation = -7.530e-09
      Nbeta    =    7.9999999925 ; deviation = -7.529e-09
      Ntotal   =   16.9999999849 ; deviation = -1.506e-08 

   @Spin Contamination Metric:   2.987345028E-03
   @S^2 Expected:                7.500000000E-01
   @S^2 Observed:                7.529873450E-01
   @S   Expected:                5.000000000E-01
   @S   Observed:                5.000000000E-01

    Orbital Energies [Eh]
    ---------------------

    Alpha Occupied:                                                       

       1Ag  -101.609591     2Ag    -9.512278     1B2u   -7.286484  
       1B3u   -7.263602     1B1u   -7.263602     3Ag    -0.848323  
       2B2u   -0.410864     2B1u   -0.355971     2B3u   -0.355971  

    Alpha Virtual:                                                        

       3B2u    0.306776     3B3u    0.330203     3B1u    0.330203  
       4Ag     0.391371     5Ag     0.398017     1B1g    0.402359  
       1B3g    0.402359     1B2g    0.438992     6Ag     0.438992  
       7Ag     1.816675     2B3g    1.827791     2B1g    1.827791  
       2B2g    1.863526     8Ag     1.863526     4B2u    2.003375  
       4B1u    2.010115     4B3u    2.010115     1Au     2.029448  
       5B2u    2.029448     5B3u    2.062416     5B1u    2.062416  
       6B2u    2.119890     6B1u    2.162882     6B3u    2.162882  
       9Ag     4.043466  

    Beta Occupied:                                                        

       1Ag  -101.602860     2Ag    -9.505710     1B2u   -7.264314  
       1B3u   -7.259742     1B1u   -7.259742     3Ag    -0.794875  
       2B1u   -0.341006     2B3u   -0.341006  

    Beta Virtual:                                                         

       2B2u   -0.246419     3B3u    0.334643     3B1u    0.334643  
       3B2u    0.340840     4Ag     0.415430     1B2g    0.443881  
       5Ag     0.443881     1B1g    0.450596     1B3g    0.450596  
       6Ag     0.459009     2B1g    1.866913     2B3g    1.866913  
       2B2g    1.867467     7Ag     1.867467     8Ag     1.870990  
       4B2u    2.062825     1Au     2.062825     4B3u    2.063915  
       4B1u    2.063915     5B1u    2.066343     5B3u    2.066343  
       5B2u    2.070574     6B1u    2.171265     6B3u    2.171265  
       6B2u    2.173769     9Ag     4.061473  

    Final Occupation by Irrep:
             Ag   B1g   B2g   B3g    Au   B1u   B2u   B3u 
    DOCC [     3,    0,    0,    0,    0,    2,    1,    2 ]
    SOCC [     0,    0,    0,    0,    0,    0,    1,    0 ]
    NA   [     3,    0,    0,    0,    0,    2,    2,    2 ]
    NB   [     3,    0,    0,    0,    0,    2,    1,    2 ]

  @DF-UKS Final Energy:  -460.17466463602790

   => Energetics <=

    Nuclear Repulsion Energy =              0.0000000000000000
    One-Electron Energy =                -634.9401264561256539
    Two-Electron Energy =                 197.4652570582191515
    DFT Exchange-Correlation Energy =     -22.6997952381214283
    Empirical Dispersion Energy =           0.0000000000000000
    VV10 Nonlocal Energy =                  0.0000000000000000
    Total Energy =                       -460.1746646360279556

  UHF NO Occupations:
  HONO-2 :    2B1u 1.9998625
  HONO-1 :    3 Ag 1.9987809
  HONO-0 :    2B2u 1.0000000
  LUNO+0 :    4 Ag 0.0012191
  LUNO+1 :    3B1u 0.0001375
  LUNO+2 :    3B3u 0.0001375
  LUNO+3 :    3B2u 0.0000002


Computation Completed


Properties will be evaluated at   0.000000,   0.000000,   0.000000 [a0]

Properties computed using the SCF density matrix


 Multipole Moments:

 ------------------------------------------------------------------------------------
     Multipole            Electronic (a.u.)      Nuclear  (a.u.)        Total (a.u.)
 ------------------------------------------------------------------------------------

 L = 1.  Multiply by 2.5417464519 to convert [e a0] to [Debye]
 Dipole X            :          0.0000000            0.0000000            0.0000000
 Dipole Y            :          0.0000000            0.0000000            0.0000000
 Dipole Z            :          0.0000000            0.0000000            0.0000000
 Magnitude           :                                                    0.0000000

 ------------------------------------------------------------------------------------

*** tstop() called on Joses-MacBook-Pro-2.local at Sat Jan 25 21:14:51 2025
Module time:
	user time   =       5.14 seconds =       0.09 minutes
	system time =       1.20 seconds =       0.02 minutes
	total time  =          0 seconds =       0.00 minutes
Total time:
	user time   =       5.14 seconds =       0.09 minutes
	system time =       1.20 seconds =       0.02 minutes
	total time  =          0 seconds =       0.00 minutes

    Psi4 stopped on: Saturday, 25 January 2025 09:14PM
    Psi4 wall time for execution: 0:00:00.69

*** Psi4 exiting successfully. Buy a developer a beer!
