
    -----------------------------------------------------------------------
          Psi4: An Open-Source Ab Initio Electronic Structure Package
                               Psi4 1.9.1 release

                         Git: Rev {} zzzzzzz 


    D. G. A. Smith, L. A. Burns, A. C. Simmonett, R. M. Parrish,
    M. C. Schieber, R. Galvelis, P. Kraus, H. Kruse, R. Di Remigio,
    A. Alenaizan, A. M. James, S. Lehtola, J. P. Misiewicz, M. Scheurer,
    R. A. Shaw, J. B. Schriber, Y. Xie, Z. L. Glick, D. A. Sirianni,
    J. S. O'Brien, J. M. Waldrop, A. Kumar, E. G. Hohenstein,
    B. P. Pritchard, B. R. Brooks, H. F. Schaefer III, A. Yu. Sokolov,
    K. Patkowski, A. E. DePrince III, U. Bozkaya, R. A. King,
    F. A. Evangelista, J. M. Turney, T. D. Crawford, C. D. Sherrill,
    J. Chem. Phys. 152(18) 184108 (2020). https://doi.org/10.1063/5.0006002

                            Additional Code Authors
    E. T. Seidl, C. L. Janssen, E. F. Valeev, M. L. Leininger,
    J. F. Gonthier, R. M. Richard, H. R. McAlexander, M. Saitow, X. Wang,
    P. Verma, M. H. Lechner, A. Jiang, S. Behnle, A. G. Heide,
    M. F. Herbst, and D. L. Poole

             Previous Authors, Complete List of Code Contributors,
                       and Citations for Specific Modules
    https://github.com/psi4/psi4/blob/master/codemeta.json
    https://github.com/psi4/psi4/graphs/contributors
    http://psicode.org/psi4manual/master/introduction.html#citing-psifour

    -----------------------------------------------------------------------


    Psi4 started on: Saturday, 25 January 2025 09:14PM

    Process ID: 6726
    Host:       Joses-MacBook-Pro-2.local
    PSIDATADIR: /Users/joseantoniorodriguesromero/anaconda3/share/psi4
    Memory:     500.0 MiB
    Threads:    1
    
  ==> Input File <==

--------------------------------------------------------------------------
molecule { 
0 5
Si           0.000000           0.000000           0.000000
}

set { 
basis              cc-pvtz
reference          uks
maxiter            500
DAMPING_PERCENTAGE 1
E_CONVERGENCE      1.0E-8
D_CONVERGENCE      1.0E-8
DIIS_MAX_VECS      400
MBIS_MAXITER       8000
guess              SAP
}

energy('b3lyp')
--------------------------------------------------------------------------

Scratch directory: /tmp/
   => Libint2 <=

    Primary   basis highest AM E, G, H:  6, 6, 3
    Auxiliary basis highest AM E, G, H:  7, 7, 4
    Onebody   basis highest AM E, G, H:  -, -, -
    Solid Harmonics ordering:            Gaussian

*** tstart() called on Joses-MacBook-Pro-2.local
*** at Sat Jan 25 21:14:41 2025

   => Loading Basis Set <=

    Name: CC-PVTZ
    Role: ORBITAL
    Keyword: BASIS
    atoms 1 entry SI         line   625 file /Users/joseantoniorodriguesromero/anaconda3/share/psi4/basis/cc-pvtz.gbs 


         ---------------------------------------------------------
                                   SCF
               by Justin Turney, Rob Parrish, Andy Simmonett
                          and Daniel G. A. Smith
                              UKS Reference
                        1 Threads,    500 MiB Core
         ---------------------------------------------------------

  ==> Geometry <==

    Molecular point group: d2h
    Geometry (in Angstrom), charge = 0, multiplicity = 5:

       Center              X                  Y                   Z               Mass       
    ------------   -----------------  -----------------  -----------------  -----------------
         SI           0.000000000000     0.000000000000     0.000000000000    27.976926534650

  Running in d2h symmetry.

  Rotational constants: A = ************  B = ************  C = ************ [cm^-1]
  Rotational constants: A = ************  B = ************  C = ************ [MHz]
  Nuclear repulsion =    0.000000000000000

  Charge       = 0
  Multiplicity = 5
  Electrons    = 14
  Nalpha       = 9
  Nbeta        = 5

  ==> Algorithm <==

  SCF Algorithm Type is DF.
  DIIS enabled.
  MOM disabled.
  Fractional occupation disabled.
  Guess Type is SAP.
  Energy threshold   = 1.00e-08
  Density threshold  = 1.00e-08
  Integral threshold = 1.00e-12

  ==> Primary Basis <==

  Basis Set: CC-PVTZ
    Blend: CC-PVTZ
    Number of shells: 12
    Number of basis functions: 34
    Number of Cartesian functions: 39
    Spherical Harmonics?: true
    Max angular momentum: 3

  ==> DFT Potential <==

   => LibXC <=

    Version 6.2.2
    S. Lehtola, C. Steigemann, M. J.T. Oliveira, and M. A.L. Marques.,  SoftwareX 7, 1–5 (2018) (10.1016/j.softx.2017.11.002)

   => Composite Functional: B3LYP <= 

    B3LYP Hyb-GGA Exchange-Correlation Functional

    P. J. Stephens, F. J. Devlin, C. F. Chabalowski, and M. J. Frisch.,  J. Phys. Chem. 98, 11623 (1994) (10.1021/j100096a001)

    Deriv               =              1
    GGA                 =           TRUE
    Meta                =          FALSE

    Exchange Hybrid     =           TRUE
    MP2 Hybrid          =          FALSE

   => Exchange Functionals <=

    0.0800   Slater exchange
    0.7200         Becke 88

   => Exact (HF) Exchange <=

    0.2000               HF 

   => Correlation Functionals <=

    0.1900   Vosko, Wilk & Nusair (VWN5_RPA)
    0.8100   Lee, Yang & Parr

   => LibXC Density Thresholds  <==

    XC_HYB_GGA_XC_B3LYP:  1.00E-15 

   => Molecular Quadrature <=

    Radial Scheme          =       TREUTLER
    Pruning Scheme         =           NONE
    Nuclear Scheme         =       TREUTLER

    Blocking Scheme        =         OCTREE
    BS radius alpha        =              1
    Pruning alpha          =              1
    Radial Points          =             75
    Spherical Points       =            302
    Total Points           =          20536
    Total Blocks           =            216
    Max Points             =            254
    Max Functions          =             34
    Weights Tolerance      =       1.00E-15

   => Loading Basis Set <=

    Name: (CC-PVTZ AUX)
    Role: JKFIT
    Keyword: DF_BASIS_SCF
    atoms 1 entry SI         line   461 file /Users/joseantoniorodriguesromero/anaconda3/share/psi4/basis/cc-pvtz-jkfit.gbs 

  ==> Integral Setup <==

  DFHelper Memory: AOs need 0.001 GiB; user supplied 0.346 GiB. 
  Using in-core AOs.

  ==> MemDFJK: Density-Fitted J/K Matrices <==

    J tasked:                   Yes
    K tasked:                   Yes
    wK tasked:                   No
    OpenMP threads:               1
    Memory [MiB]:               354
    Algorithm:                 Core
    Schwarz Cutoff:           1E-12
    Mask sparsity (%):       0.0000
    Fitting Condition:        1E-10

   => Auxiliary Basis Set <=

  Basis Set: (CC-PVTZ AUX)
    Blend: CC-PVTZ-JKFIT
    Number of shells: 37
    Number of basis functions: 121
    Number of Cartesian functions: 145
    Spherical Harmonics?: true
    Max angular momentum: 4

  Cached 100.0% of DFT collocation blocks in 0.020 [GiB].

  Minimum eigenvalue in the overlap matrix is 2.0788165487E-02.
  Reciprocal condition number of the overlap matrix is 9.0568962878E-03.
    Using symmetric orthogonalization.

  ==> Pre-Iterations <==

  SCF Guess: Superposition of Atomic Potentials (doi:10.1021/acs.jctc.8b01089).

  ==> SAP guess <==

   => Molecular Quadrature <=

    Radial Scheme          =       TREUTLER
    Pruning Scheme         =           NONE
    Nuclear Scheme         =       TREUTLER

    Blocking Scheme        =         OCTREE
    BS radius alpha        =              1
    Pruning alpha          =              1
    Radial Points          =             75
    Spherical Points       =            302
    Total Points           =          20536
    Total Blocks           =            216
    Max Points             =            254
    Max Functions          =             34
    Weights Tolerance      =       1.00E-15

   -------------------------------------------------------
    Irrep   Nso     Nmo     Nalpha   Nbeta   Ndocc  Nsocc
   -------------------------------------------------------
     Ag         9       9       3       2       2       1
     B1g        2       2       0       0       0       0
     B2g        2       2       0       0       0       0
     B3g        2       2       0       0       0       0
     Au         1       1       0       0       0       0
     B1u        6       6       2       1       1       1
     B2u        6       6       2       1       1       1
     B3u        6       6       2       1       1       1
   -------------------------------------------------------
    Total      34      34       9       5       5       4
   -------------------------------------------------------

  ==> Iterations <==

                           Total Energy        Delta E     RMS |[F,P]|

   @DF-UKS iter   1:  -289.21498835958221   -2.89215e+02   1.36647e-02 DIIS/ADIIS
   @DF-UKS iter   2:  -289.22783292094437   -1.28446e-02   6.14740e-03 DIIS/ADIIS/DAMP=1%
   @DF-UKS iter   3:  -289.23327324731372   -5.44033e-03   5.98162e-04 DIIS/ADIIS/DAMP=1%
   @DF-UKS iter   4:  -289.22992036789526    3.35288e-03   5.30268e-05 DIIS/DAMP=1%
   @DF-UKS iter   5:  -289.22995803824443   -3.76703e-05   5.21521e-06 DIIS/DAMP=1%
   @DF-UKS iter   6:  -289.23000906387551   -5.10256e-05   4.13006e-07 DIIS/DAMP=1%
   @DF-UKS iter   7:  -289.23000523649171    3.82738e-06   3.72572e-08 DIIS/DAMP=1%
   @DF-UKS iter   8:  -289.23000554703833   -3.10547e-07   8.09216e-10 DIIS/DAMP=1%
   @DF-UKS iter   9:  -289.23000552463458    2.24038e-08   1.80731e-10 DIIS/DAMP=1%
   @DF-UKS iter  10:  -289.23000552410792    5.26654e-10   1.79626e-11 DIIS/DAMP=1%
  Energy and wave function converged.


  ==> Post-Iterations <==

   Electrons on quadrature grid:
      Nalpha   =    9.0000000026 ; deviation = 2.590e-09
      Nbeta    =    5.0000000026 ; deviation = 2.577e-09
      Ntotal   =   14.0000000052 ; deviation = 5.166e-09 

   @Spin Contamination Metric:   1.164656132E-05
   @S^2 Expected:                6.000000000E+00
   @S^2 Observed:                6.000011647E+00
   @S   Expected:                2.000000000E+00
   @S   Observed:                2.000000000E+00

    Orbital Energies [Eh]
    ---------------------

    Alpha Occupied:                                                       

       1Ag   -66.217428     2Ag    -5.354902     1B1u   -3.715210  
       1B2u   -3.715210     1B3u   -3.715210     3Ag    -0.507138  
       2B2u   -0.225323     2B3u   -0.225323     2B1u   -0.225323  

    Alpha Virtual:                                                        

       4Ag     0.153398     5Ag     0.175048     1B3g    0.175048  
       1B2g    0.175048     1B1g    0.175048     6Ag     0.175048  
       3B1u    0.221115     3B3u    0.221115     3B2u    0.221115  
       2B2g    0.906883     2B1g    0.906883     2B3g    0.906883  
       7Ag     0.906883     8Ag     0.906883     1Au     0.950619  
       4B3u    0.950619     4B1u    0.950619     4B2u    0.950619  
       5B1u    0.950619     5B3u    0.950619     5B2u    0.950619  
       9Ag     1.877504     6B3u    2.035941     6B2u    2.035941  
       6B1u    2.035941  

    Beta Occupied:                                                        

       1Ag   -66.200190     2Ag    -5.332983     1B1u   -3.691272  
       1B2u   -3.691272     1B3u   -3.691272  

    Beta Virtual:                                                         

       3Ag    -0.279638     2B3u   -0.040782     2B2u   -0.040782  
       2B1u   -0.040782     4Ag     0.225369     1B1g    0.293493  
       1B2g    0.293493     5Ag     0.293493     6Ag     0.293493  
       1B3g    0.293493     3B3u    0.296127     3B2u    0.296127  
       3B1u    0.296127     2B1g    1.003915     2B2g    1.003915  
       7Ag     1.003915     2B3g    1.003915     8Ag     1.003915  
       4B3u    1.077903     1Au     1.077903     4B1u    1.077903  
       5B3u    1.077903     4B2u    1.077903     5B1u    1.077903  
       5B2u    1.077903     9Ag     1.941340     6B3u    2.094531  
       6B2u    2.094531     6B1u    2.094531  

    Final Occupation by Irrep:
             Ag   B1g   B2g   B3g    Au   B1u   B2u   B3u 
    DOCC [     2,    0,    0,    0,    0,    1,    1,    1 ]
    SOCC [     1,    0,    0,    0,    0,    1,    1,    1 ]
    NA   [     3,    0,    0,    0,    0,    2,    2,    2 ]
    NB   [     2,    0,    0,    0,    0,    1,    1,    1 ]

  @DF-UKS Final Energy:  -289.23000552410792

   => Energetics <=

    Nuclear Repulsion Energy =              0.0000000000000000
    One-Electron Energy =                -399.9990097157279934
    Two-Electron Energy =                 127.5541185793186258
    DFT Exchange-Correlation Energy =     -16.7851143876985738
    Empirical Dispersion Energy =           0.0000000000000000
    VV10 Nonlocal Energy =                  0.0000000000000000
    Total Energy =                       -289.2300055241079235

  UHF NO Occupations:
  HONO-2 :    2B2u 1.0000000
  HONO-1 :    2B3u 1.0000000
  HONO-0 :    2B1u 1.0000000
  LUNO+0 :    3B2u 0.0000016
  LUNO+1 :    3B1u 0.0000016
  LUNO+2 :    3B3u 0.0000016
  LUNO+3 :    4 Ag 0.0000009


Computation Completed


Properties will be evaluated at   0.000000,   0.000000,   0.000000 [a0]

Properties computed using the SCF density matrix


 Multipole Moments:

 ------------------------------------------------------------------------------------
     Multipole            Electronic (a.u.)      Nuclear  (a.u.)        Total (a.u.)
 ------------------------------------------------------------------------------------

 L = 1.  Multiply by 2.5417464519 to convert [e a0] to [Debye]
 Dipole X            :          0.0000000            0.0000000            0.0000000
 Dipole Y            :          0.0000000            0.0000000            0.0000000
 Dipole Z            :          0.0000000            0.0000000            0.0000000
 Magnitude           :                                                    0.0000000

 ------------------------------------------------------------------------------------

*** tstop() called on Joses-MacBook-Pro-2.local at Sat Jan 25 21:14:41 2025
Module time:
	user time   =       4.91 seconds =       0.08 minutes
	system time =       1.46 seconds =       0.02 minutes
	total time  =          0 seconds =       0.00 minutes
Total time:
	user time   =       4.91 seconds =       0.08 minutes
	system time =       1.46 seconds =       0.02 minutes
	total time  =          0 seconds =       0.00 minutes

    Psi4 stopped on: Saturday, 25 January 2025 09:14PM
    Psi4 wall time for execution: 0:00:00.69

*** Psi4 exiting successfully. Buy a developer a beer!
