
    -----------------------------------------------------------------------
          Psi4: An Open-Source Ab Initio Electronic Structure Package
                               Psi4 1.9.1 release

                         Git: Rev {} zzzzzzz 


    D. G. A. Smith, L. A. Burns, A. C. Simmonett, R. M. Parrish,
    M. C. Schieber, R. Galvelis, P. Kraus, H. Kruse, R. Di Remigio,
    A. Alenaizan, A. M. James, S. Lehtola, J. P. Misiewicz, M. Scheurer,
    R. A. Shaw, J. B. Schriber, Y. Xie, Z. L. Glick, D. A. Sirianni,
    J. S. O'Brien, J. M. Waldrop, A. Kumar, E. G. Hohenstein,
    B. P. Pritchard, B. R. Brooks, H. F. Schaefer III, A. Yu. Sokolov,
    K. Patkowski, A. E. DePrince III, U. Bozkaya, R. A. King,
    F. A. Evangelista, J. M. Turney, T. D. Crawford, C. D. Sherrill,
    J. Chem. Phys. 152(18) 184108 (2020). https://doi.org/10.1063/5.0006002

                            Additional Code Authors
    E. T. Seidl, C. L. Janssen, E. F. Valeev, M. L. Leininger,
    J. F. Gonthier, R. M. Richard, H. R. McAlexander, M. Saitow, X. Wang,
    P. Verma, M. H. Lechner, A. Jiang, S. Behnle, A. G. Heide,
    M. F. Herbst, and D. L. Poole

             Previous Authors, Complete List of Code Contributors,
                       and Citations for Specific Modules
    https://github.com/psi4/psi4/blob/master/codemeta.json
    https://github.com/psi4/psi4/graphs/contributors
    http://psicode.org/psi4manual/master/introduction.html#citing-psifour

    -----------------------------------------------------------------------


    Psi4 started on: Saturday, 25 January 2025 09:33PM

    Process ID: 7171
    Host:       Joses-MacBook-Pro-2.local
    PSIDATADIR: /Users/joseantoniorodriguesromero/anaconda3/share/psi4
    Memory:     500.0 MiB
    Threads:    1
    
  ==> Input File <==

--------------------------------------------------------------------------
molecule { 
1 4
Ar           0.000000           0.000000           0.000000
}

set { 
basis              cc-pvtz
reference          uks
maxiter            500
DAMPING_PERCENTAGE 1
E_CONVERGENCE      1.0E-8
D_CONVERGENCE      1.0E-8
DIIS_MAX_VECS      400
MBIS_MAXITER       8000
guess              SAP
}

energy('b3lyp')
--------------------------------------------------------------------------

Scratch directory: /tmp/
   => Libint2 <=

    Primary   basis highest AM E, G, H:  6, 6, 3
    Auxiliary basis highest AM E, G, H:  7, 7, 4
    Onebody   basis highest AM E, G, H:  -, -, -
    Solid Harmonics ordering:            Gaussian

*** tstart() called on Joses-MacBook-Pro-2.local
*** at Sat Jan 25 21:33:11 2025

   => Loading Basis Set <=

    Name: CC-PVTZ
    Role: ORBITAL
    Keyword: BASIS
    atoms 1 entry AR         line   921 file /Users/joseantoniorodriguesromero/anaconda3/share/psi4/basis/cc-pvtz.gbs 


         ---------------------------------------------------------
                                   SCF
               by Justin Turney, Rob Parrish, Andy Simmonett
                          and Daniel G. A. Smith
                              UKS Reference
                        1 Threads,    500 MiB Core
         ---------------------------------------------------------

  ==> Geometry <==

    Molecular point group: d2h
    Geometry (in Angstrom), charge = 1, multiplicity = 4:

       Center              X                  Y                   Z               Mass       
    ------------   -----------------  -----------------  -----------------  -----------------
         AR           0.000000000000     0.000000000000     0.000000000000    39.962383123700

  Running in d2h symmetry.

  Rotational constants: A = ************  B = ************  C = ************ [cm^-1]
  Rotational constants: A = ************  B = ************  C = ************ [MHz]
  Nuclear repulsion =    0.000000000000000

  Charge       = 1
  Multiplicity = 4
  Electrons    = 17
  Nalpha       = 10
  Nbeta        = 7

  ==> Algorithm <==

  SCF Algorithm Type is DF.
  DIIS enabled.
  MOM disabled.
  Fractional occupation disabled.
  Guess Type is SAP.
  Energy threshold   = 1.00e-08
  Density threshold  = 1.00e-08
  Integral threshold = 1.00e-12

  ==> Primary Basis <==

  Basis Set: CC-PVTZ
    Blend: CC-PVTZ
    Number of shells: 12
    Number of basis functions: 34
    Number of Cartesian functions: 39
    Spherical Harmonics?: true
    Max angular momentum: 3

  ==> DFT Potential <==

   => LibXC <=

    Version 6.2.2
    S. Lehtola, C. Steigemann, M. J.T. Oliveira, and M. A.L. Marques.,  SoftwareX 7, 1–5 (2018) (10.1016/j.softx.2017.11.002)

   => Composite Functional: B3LYP <= 

    B3LYP Hyb-GGA Exchange-Correlation Functional

    P. J. Stephens, F. J. Devlin, C. F. Chabalowski, and M. J. Frisch.,  J. Phys. Chem. 98, 11623 (1994) (10.1021/j100096a001)

    Deriv               =              1
    GGA                 =           TRUE
    Meta                =          FALSE

    Exchange Hybrid     =           TRUE
    MP2 Hybrid          =          FALSE

   => Exchange Functionals <=

    0.0800   Slater exchange
    0.7200         Becke 88

   => Exact (HF) Exchange <=

    0.2000               HF 

   => Correlation Functionals <=

    0.1900   Vosko, Wilk & Nusair (VWN5_RPA)
    0.8100   Lee, Yang & Parr

   => LibXC Density Thresholds  <==

    XC_HYB_GGA_XC_B3LYP:  1.00E-15 

   => Molecular Quadrature <=

    Radial Scheme          =       TREUTLER
    Pruning Scheme         =           NONE
    Nuclear Scheme         =       TREUTLER

    Blocking Scheme        =         OCTREE
    BS radius alpha        =              1
    Pruning alpha          =              1
    Radial Points          =             75
    Spherical Points       =            302
    Total Points           =          19630
    Total Blocks           =            205
    Max Points             =            248
    Max Functions          =             34
    Weights Tolerance      =       1.00E-15

   => Loading Basis Set <=

    Name: (CC-PVTZ AUX)
    Role: JKFIT
    Keyword: DF_BASIS_SCF
    atoms 1 entry AR         line   765 file /Users/joseantoniorodriguesromero/anaconda3/share/psi4/basis/cc-pvtz-jkfit.gbs 

  ==> Integral Setup <==

  DFHelper Memory: AOs need 0.001 GiB; user supplied 0.347 GiB. 
  Using in-core AOs.

  ==> MemDFJK: Density-Fitted J/K Matrices <==

    J tasked:                   Yes
    K tasked:                   Yes
    wK tasked:                   No
    OpenMP threads:               1
    Memory [MiB]:               355
    Algorithm:                 Core
    Schwarz Cutoff:           1E-12
    Mask sparsity (%):       0.0000
    Fitting Condition:        1E-10

   => Auxiliary Basis Set <=

  Basis Set: (CC-PVTZ AUX)
    Blend: CC-PVTZ-JKFIT
    Number of shells: 37
    Number of basis functions: 121
    Number of Cartesian functions: 145
    Spherical Harmonics?: true
    Max angular momentum: 4

  Cached 100.0% of DFT collocation blocks in 0.019 [GiB].

  Minimum eigenvalue in the overlap matrix is 1.8784975937E-02.
  Reciprocal condition number of the overlap matrix is 8.4110484019E-03.
    Using symmetric orthogonalization.

  ==> Pre-Iterations <==

  SCF Guess: Superposition of Atomic Potentials (doi:10.1021/acs.jctc.8b01089).

  ==> SAP guess <==

   => Molecular Quadrature <=

    Radial Scheme          =       TREUTLER
    Pruning Scheme         =           NONE
    Nuclear Scheme         =       TREUTLER

    Blocking Scheme        =         OCTREE
    BS radius alpha        =              1
    Pruning alpha          =              1
    Radial Points          =             75
    Spherical Points       =            302
    Total Points           =          19630
    Total Blocks           =            205
    Max Points             =            248
    Max Functions          =             34
    Weights Tolerance      =       1.00E-15

   -------------------------------------------------------
    Irrep   Nso     Nmo     Nalpha   Nbeta   Ndocc  Nsocc
   -------------------------------------------------------
     Ag         9       9       3       3       3       0
     B1g        2       2       0       0       0       0
     B2g        2       2       0       0       0       0
     B3g        2       2       0       0       0       0
     Au         1       1       0       0       0       0
     B1u        6       6       3       2       2       1
     B2u        6       6       2       1       1       1
     B3u        6       6       2       1       1       1
   -------------------------------------------------------
    Total      34      34      10       7       7       3
   -------------------------------------------------------

  ==> Iterations <==

                           Total Energy        Delta E     RMS |[F,P]|

    Occupation by irrep:
             Ag   B1g   B2g   B3g    Au   B1u   B2u   B3u 
    DOCC [     3,    0,    0,    0,    0,    2,    1,    1 ]
    SOCC [     1,    0,    0,    0,    0,    0,    1,    1 ]
    NA   [     4,    0,    0,    0,    0,    2,    2,    2 ]
    NB   [     3,    0,    0,    0,    0,    2,    1,    1 ]

   @DF-UKS iter   1:  -526.00692237881276   -5.26007e+02   3.88809e-02 DIIS/ADIIS
   @DF-UKS iter   2:  -526.17491721723911   -1.67995e-01   2.77799e-02 DIIS/ADIIS/DAMP=1%
   @DF-UKS iter   3:  -526.24782324373814   -7.29060e-02   3.53222e-03 DIIS/ADIIS/DAMP=1%
   @DF-UKS iter   4:  -526.23133316906512    1.64901e-02   4.41507e-04 DIIS/ADIIS/DAMP=1%
   @DF-UKS iter   5:  -526.23140798574536   -7.48167e-05   5.17043e-05 DIIS/DAMP=1%
   @DF-UKS iter   6:  -526.23159053219604   -1.82546e-04   1.00301e-05 DIIS/DAMP=1%
   @DF-UKS iter   7:  -526.23157432324263    1.62090e-05   6.57524e-07 DIIS/DAMP=1%
   @DF-UKS iter   8:  -526.23158104334357   -6.72010e-06   3.49484e-08 DIIS/DAMP=1%
   @DF-UKS iter   9:  -526.23158067182828    3.71515e-07   2.67237e-09 DIIS/DAMP=1%
   @DF-UKS iter  10:  -526.23158068669068   -1.48624e-08   1.52378e-10 DIIS/DAMP=1%
   @DF-UKS iter  11:  -526.23158068648820    2.02476e-10   6.78950e-12 DIIS/DAMP=1%
  Energy and wave function converged.


  ==> Post-Iterations <==

   Electrons on quadrature grid:
      Nalpha   =   10.0000000174 ; deviation = 1.741e-08
      Nbeta    =    7.0000000174 ; deviation = 1.741e-08
      Ntotal   =   17.0000000348 ; deviation = 3.482e-08 

   @Spin Contamination Metric:   4.770161583E-03
   @S^2 Expected:                3.750000000E+00
   @S^2 Observed:                3.754770162E+00
   @S   Expected:                1.500000000E+00
   @S   Observed:                1.500000000E+00

    Orbital Energies [Eh]
    ---------------------

    Alpha Occupied:                                                       

       1Ag  -115.781663     2Ag   -11.741231     1B2u   -9.309982  
       1B3u   -9.309982     1B1u   -9.288148     3Ag    -1.504714  
       2B3u   -0.957910     2B2u   -0.957910     2B1u   -0.896756  
       4Ag    -0.103410  

    Alpha Virtual:                                                        

       1B1g    0.031815     1B3g    0.044925     1B2g    0.044925  
       3B2u    0.049898     3B3u    0.049898     5Ag     0.053064  
       3B1u    0.061269     6Ag     0.112107     7Ag     1.623597  
       2B1g    1.666341     2B2g    1.679671     2B3g    1.679671  
       8Ag     1.686460     4B2u    2.007168     4B3u    2.007168  
       5B3u    2.020770     5B2u    2.020770     4B1u    2.031379  
       5B1u    2.052100     1Au     2.066234     6B2u    2.069958  
       6B3u    2.069958     6B1u    2.073214     9Ag     4.425999  

    Beta Occupied:                                                        

       1Ag  -115.764084     2Ag   -11.722999     1B1u   -9.278283  
       1B2u   -9.274596     1B3u   -9.274596     3Ag    -1.353983  
       2B1u   -0.854514  

    Beta Virtual:                                                         

       2B2u   -0.700271     2B3u   -0.700271     3B1u    0.070050  
       3B3u    0.094506     3B2u    0.094506     4Ag     0.119823  
       1B3g    0.123143     1B2g    0.123143     1B1g    0.153866  
       5Ag     0.162004     6Ag     0.179845     7Ag     1.735052  
       2B2g    1.737494     2B3g    1.737494     2B1g    1.757469  
       8Ag     1.776479     4B1u    2.076359     4B3u    2.110104  
       4B2u    2.110104     5B1u    2.139785     5B2u    2.144460  
       5B3u    2.144460     1Au     2.145989     6B1u    2.163584  
       6B2u    2.192295     6B3u    2.192295     9Ag     4.480761  

    Final Occupation by Irrep:
             Ag   B1g   B2g   B3g    Au   B1u   B2u   B3u 
    DOCC [     3,    0,    0,    0,    0,    2,    1,    1 ]
    SOCC [     1,    0,    0,    0,    0,    0,    1,    1 ]
    NA   [     4,    0,    0,    0,    0,    2,    2,    2 ]
    NB   [     3,    0,    0,    0,    0,    2,    1,    1 ]

  @DF-UKS Final Energy:  -526.23158068648820

   => Energetics <=

    Nuclear Repulsion Energy =              0.0000000000000000
    One-Electron Energy =                -717.6463894263880547
    Two-Electron Energy =                 215.9793349323070117
    DFT Exchange-Correlation Energy =     -24.5645261924071470
    Empirical Dispersion Energy =           0.0000000000000000
    VV10 Nonlocal Energy =                  0.0000000000000000
    Total Energy =                       -526.2315806864882006

  UHF NO Occupations:
  HONO-2 :    2B2u 1.0000000
  HONO-1 :    2B3u 1.0000000
  HONO-0 :    4 Ag 1.0000000
  LUNO+0 :    5 Ag 0.0020766
  LUNO+1 :    3B1u 0.0003097
  LUNO+2 :    3B2u 0.0000003
  LUNO+3 :    3B3u 0.0000003


Computation Completed


Properties will be evaluated at   0.000000,   0.000000,   0.000000 [a0]

Properties computed using the SCF density matrix


 Multipole Moments:

 ------------------------------------------------------------------------------------
     Multipole            Electronic (a.u.)      Nuclear  (a.u.)        Total (a.u.)
 ------------------------------------------------------------------------------------

 L = 1.  Multiply by 2.5417464519 to convert [e a0] to [Debye]
 Dipole X            :          0.0000000            0.0000000            0.0000000
 Dipole Y            :          0.0000000            0.0000000            0.0000000
 Dipole Z            :          0.0000000            0.0000000            0.0000000
 Magnitude           :                                                    0.0000000

 ------------------------------------------------------------------------------------

*** tstop() called on Joses-MacBook-Pro-2.local at Sat Jan 25 21:33:11 2025
Module time:
	user time   =       3.71 seconds =       0.06 minutes
	system time =       1.43 seconds =       0.02 minutes
	total time  =          0 seconds =       0.00 minutes
Total time:
	user time   =       3.71 seconds =       0.06 minutes
	system time =       1.43 seconds =       0.02 minutes
	total time  =          0 seconds =       0.00 minutes

    Psi4 stopped on: Saturday, 25 January 2025 09:33PM
    Psi4 wall time for execution: 0:00:00.56

*** Psi4 exiting successfully. Buy a developer a beer!
