
    -----------------------------------------------------------------------
          Psi4: An Open-Source Ab Initio Electronic Structure Package
                               Psi4 1.9.1 release

                         Git: Rev {} zzzzzzz 


    D. G. A. Smith, L. A. Burns, A. C. Simmonett, R. M. Parrish,
    M. C. Schieber, R. Galvelis, P. Kraus, H. Kruse, R. Di Remigio,
    A. Alenaizan, A. M. James, S. Lehtola, J. P. Misiewicz, M. Scheurer,
    R. A. Shaw, J. B. Schriber, Y. Xie, Z. L. Glick, D. A. Sirianni,
    J. S. O'Brien, J. M. Waldrop, A. Kumar, E. G. Hohenstein,
    B. P. Pritchard, B. R. Brooks, H. F. Schaefer III, A. Yu. Sokolov,
    K. Patkowski, A. E. DePrince III, U. Bozkaya, R. A. King,
    F. A. Evangelista, J. M. Turney, T. D. Crawford, C. D. Sherrill,
    J. Chem. Phys. 152(18) 184108 (2020). https://doi.org/10.1063/5.0006002

                            Additional Code Authors
    E. T. Seidl, C. L. Janssen, E. F. Valeev, M. L. Leininger,
    J. F. Gonthier, R. M. Richard, H. R. McAlexander, M. Saitow, X. Wang,
    P. Verma, M. H. Lechner, A. Jiang, S. Behnle, A. G. Heide,
    M. F. Herbst, and D. L. Poole

             Previous Authors, Complete List of Code Contributors,
                       and Citations for Specific Modules
    https://github.com/psi4/psi4/blob/master/codemeta.json
    https://github.com/psi4/psi4/graphs/contributors
    http://psicode.org/psi4manual/master/introduction.html#citing-psifour

    -----------------------------------------------------------------------


    Psi4 started on: Saturday, 25 January 2025 09:32PM

    Process ID: 7120
    Host:       Joses-MacBook-Pro-2.local
    PSIDATADIR: /Users/joseantoniorodriguesromero/anaconda3/share/psi4
    Memory:     500.0 MiB
    Threads:    1
    
  ==> Input File <==

--------------------------------------------------------------------------
molecule { 
1 3
Na           0.000000           0.000000           0.000000
}

set { 
basis              cc-pvtz
reference          uks
maxiter            500
DAMPING_PERCENTAGE 1
E_CONVERGENCE      1.0E-8
D_CONVERGENCE      1.0E-8
DIIS_MAX_VECS      400
MBIS_MAXITER       8000
guess              SAP
}

energy('b3lyp')
--------------------------------------------------------------------------

Scratch directory: /tmp/
   => Libint2 <=

    Primary   basis highest AM E, G, H:  6, 6, 3
    Auxiliary basis highest AM E, G, H:  7, 7, 4
    Onebody   basis highest AM E, G, H:  -, -, -
    Solid Harmonics ordering:            Gaussian

*** tstart() called on Joses-MacBook-Pro-2.local
*** at Sat Jan 25 21:32:41 2025

   => Loading Basis Set <=

    Name: CC-PVTZ
    Role: ORBITAL
    Keyword: BASIS
    atoms 1 entry NA         line   376 file /Users/joseantoniorodriguesromero/anaconda3/share/psi4/basis/cc-pvtz.gbs 


         ---------------------------------------------------------
                                   SCF
               by Justin Turney, Rob Parrish, Andy Simmonett
                          and Daniel G. A. Smith
                              UKS Reference
                        1 Threads,    500 MiB Core
         ---------------------------------------------------------

  ==> Geometry <==

    Molecular point group: d2h
    Geometry (in Angstrom), charge = 1, multiplicity = 3:

       Center              X                  Y                   Z               Mass       
    ------------   -----------------  -----------------  -----------------  -----------------
         NA           0.000000000000     0.000000000000     0.000000000000    22.989769282000

  Running in d2h symmetry.

  Rotational constants: A = ************  B = ************  C = ************ [cm^-1]
  Rotational constants: A = ************  B = ************  C = ************ [MHz]
  Nuclear repulsion =    0.000000000000000

  Charge       = 1
  Multiplicity = 3
  Electrons    = 10
  Nalpha       = 6
  Nbeta        = 4

  ==> Algorithm <==

  SCF Algorithm Type is DF.
  DIIS enabled.
  MOM disabled.
  Fractional occupation disabled.
  Guess Type is SAP.
  Energy threshold   = 1.00e-08
  Density threshold  = 1.00e-08
  Integral threshold = 1.00e-12

  ==> Primary Basis <==

  Basis Set: CC-PVTZ
    Blend: CC-PVTZ
    Number of shells: 12
    Number of basis functions: 34
    Number of Cartesian functions: 39
    Spherical Harmonics?: true
    Max angular momentum: 3

  ==> DFT Potential <==

   => LibXC <=

    Version 6.2.2
    S. Lehtola, C. Steigemann, M. J.T. Oliveira, and M. A.L. Marques.,  SoftwareX 7, 1–5 (2018) (10.1016/j.softx.2017.11.002)

   => Composite Functional: B3LYP <= 

    B3LYP Hyb-GGA Exchange-Correlation Functional

    P. J. Stephens, F. J. Devlin, C. F. Chabalowski, and M. J. Frisch.,  J. Phys. Chem. 98, 11623 (1994) (10.1021/j100096a001)

    Deriv               =              1
    GGA                 =           TRUE
    Meta                =          FALSE

    Exchange Hybrid     =           TRUE
    MP2 Hybrid          =          FALSE

   => Exchange Functionals <=

    0.0800   Slater exchange
    0.7200         Becke 88

   => Exact (HF) Exchange <=

    0.2000               HF 

   => Correlation Functionals <=

    0.1900   Vosko, Wilk & Nusair (VWN5_RPA)
    0.8100   Lee, Yang & Parr

   => LibXC Density Thresholds  <==

    XC_HYB_GGA_XC_B3LYP:  1.00E-15 

   => Molecular Quadrature <=

    Radial Scheme          =       TREUTLER
    Pruning Scheme         =           NONE
    Nuclear Scheme         =       TREUTLER

    Blocking Scheme        =         OCTREE
    BS radius alpha        =              1
    Pruning alpha          =              1
    Radial Points          =             75
    Spherical Points       =            302
    Total Points           =          22040
    Total Blocks           =            259
    Max Points             =            245
    Max Functions          =             34
    Weights Tolerance      =       1.00E-15

   => Loading Basis Set <=

    Name: (CC-PVTZ AUX)
    Role: JKFIT
    Keyword: DF_BASIS_SCF
    atoms 1 entry NA         line   498 file /Users/joseantoniorodriguesromero/anaconda3/share/psi4/basis/def2-universal-jkfit.gbs 

  ==> Integral Setup <==

  DFHelper Memory: AOs need 0.001 GiB; user supplied 0.345 GiB. 
  Using in-core AOs.

  ==> MemDFJK: Density-Fitted J/K Matrices <==

    J tasked:                   Yes
    K tasked:                   Yes
    wK tasked:                   No
    OpenMP threads:               1
    Memory [MiB]:               352
    Algorithm:                 Core
    Schwarz Cutoff:           1E-12
    Mask sparsity (%):       0.0000
    Fitting Condition:        1E-10

   => Auxiliary Basis Set <=

  Basis Set: (CC-PVTZ AUX)
    Blend: DEF2-UNIVERSAL-JKFIT
    Number of shells: 34
    Number of basis functions: 112
    Number of Cartesian functions: 137
    Spherical Harmonics?: true
    Max angular momentum: 4

  Cached 100.0% of DFT collocation blocks in 0.022 [GiB].

  Minimum eigenvalue in the overlap matrix is 5.7406971431E-03.
  Reciprocal condition number of the overlap matrix is 2.0830302477E-03.
    Using symmetric orthogonalization.

  ==> Pre-Iterations <==

  SCF Guess: Superposition of Atomic Potentials (doi:10.1021/acs.jctc.8b01089).

  ==> SAP guess <==

   => Molecular Quadrature <=

    Radial Scheme          =       TREUTLER
    Pruning Scheme         =           NONE
    Nuclear Scheme         =       TREUTLER

    Blocking Scheme        =         OCTREE
    BS radius alpha        =              1
    Pruning alpha          =              1
    Radial Points          =             75
    Spherical Points       =            302
    Total Points           =          22040
    Total Blocks           =            259
    Max Points             =            245
    Max Functions          =             34
    Weights Tolerance      =       1.00E-15

   -------------------------------------------------------
    Irrep   Nso     Nmo     Nalpha   Nbeta   Ndocc  Nsocc
   -------------------------------------------------------
     Ag         9       9       3       2       2       1
     B1g        2       2       0       0       0       0
     B2g        2       2       0       0       0       0
     B3g        2       2       0       0       0       0
     Au         1       1       0       0       0       0
     B1u        6       6       1       1       1       0
     B2u        6       6       1       1       1       0
     B3u        6       6       1       0       0       1
   -------------------------------------------------------
    Total      34      34       6       4       4       2
   -------------------------------------------------------

  ==> Iterations <==

                           Total Energy        Delta E     RMS |[F,P]|

   @DF-UKS iter   1:  -160.67569655488890   -1.60676e+02   3.91173e-02 DIIS/ADIIS
   @DF-UKS iter   2:  -160.81879536884958   -1.43099e-01   6.04831e-03 DIIS/ADIIS/DAMP=1%
   @DF-UKS iter   3:  -160.82271667747406   -3.92131e-03   2.09533e-04 DIIS/ADIIS/DAMP=1%
   @DF-UKS iter   4:  -160.82144022016919    1.27646e-03   8.20474e-06 DIIS/DAMP=1%
   @DF-UKS iter   5:  -160.82141875768451    2.14625e-05   1.54943e-06 DIIS/DAMP=1%
   @DF-UKS iter   6:  -160.82142001662010   -1.25894e-06   1.32029e-07 DIIS/DAMP=1%
   @DF-UKS iter   7:  -160.82142003636659   -1.97465e-08   3.87299e-09 DIIS/DAMP=1%
   @DF-UKS iter   8:  -160.82142003330719    3.05940e-09   8.80483e-11 DIIS/DAMP=1%
  Energy and wave function converged.


  ==> Post-Iterations <==

   Electrons on quadrature grid:
      Nalpha   =    5.9999999969 ; deviation = -3.052e-09
      Nbeta    =    3.9999999970 ; deviation = -3.041e-09
      Ntotal   =    9.9999999939 ; deviation = -6.093e-09 

   @Spin Contamination Metric:   8.979888908E-05
   @S^2 Expected:                2.000000000E+00
   @S^2 Observed:                2.000089799E+00
   @S   Expected:                1.000000000E+00
   @S   Observed:                1.000000000E+00

    Orbital Energies [Eh]
    ---------------------

    Alpha Occupied:                                                       

       1Ag   -39.828707     2Ag    -3.208160     1B3u   -2.212630  
       1B2u   -2.091513     1B1u   -2.091513     3Ag    -0.445633  

    Alpha Virtual:                                                        

       2B3u   -0.259444     2B2u   -0.250804     2B1u   -0.250804  
       4Ag    -0.112684     5Ag    -0.095141     1B2g   -0.094302  
       1B1g   -0.094302     6Ag    -0.091487     1B3g   -0.091487  
       3B3u   -0.081362     3B1u   -0.080360     3B2u   -0.080360  
       4B3u    0.012725     4B2u    0.016038     4B1u    0.016038  
       7Ag     0.143374     2B2g    0.144936     2B1g    0.144936  
       2B3g    0.150039     8Ag     0.150039     5B3u    0.179156  
       5B2u    0.179651     5B1u    0.179651     6B3u    0.181154  
       1Au     0.181154     6B1u    0.183758     6B2u    0.183758  
       9Ag     0.804408  

    Beta Occupied:                                                        

       1Ag   -39.781834     2Ag    -3.081160     1B1u   -2.042425  
       1B2u   -2.042425  

    Beta Virtual:                                                         

       1B3u   -1.806132     3Ag    -0.354242     2B2u   -0.209389  
       2B1u   -0.209389     2B3u   -0.206103     4Ag    -0.107416  
       3B1u   -0.075627     3B2u   -0.075627     3B3u   -0.073289  
       5Ag    -0.064840     1B3g   -0.064839     1B1g   -0.063025  
       1B2g   -0.063025     6Ag    -0.060520     4B2u    0.024385  
       4B1u    0.024385     4B3u    0.027840     2B1g    0.171319  
       2B2g    0.171319     7Ag     0.172475     2B3g    0.172476  
       8Ag     0.173287     5B1u    0.216996     5B2u    0.216996  
       5B3u    0.217847     1Au     0.217849     6B2u    0.218565  
       6B1u    0.218565     6B3u    0.221488     9Ag     0.862051  

    Final Occupation by Irrep:
             Ag   B1g   B2g   B3g    Au   B1u   B2u   B3u 
    DOCC [     2,    0,    0,    0,    0,    1,    1,    0 ]
    SOCC [     1,    0,    0,    0,    0,    0,    0,    1 ]
    NA   [     3,    0,    0,    0,    0,    1,    1,    1 ]
    NB   [     2,    0,    0,    0,    0,    1,    1,    0 ]

  @DF-UKS Final Energy:  -160.82142003330719

   => Energetics <=

    Nuclear Repulsion Energy =              0.0000000000000000
    One-Electron Energy =                -216.9835401787540832
    Two-Electron Energy =                  67.0988077782586032
    DFT Exchange-Correlation Energy =     -10.9366876328117346
    Empirical Dispersion Energy =           0.0000000000000000
    VV10 Nonlocal Energy =                  0.0000000000000000
    Total Energy =                       -160.8214200333071915

  UHF NO Occupations:
  HONO-2 :    2 Ag 1.9999601
  HONO-1 :    3 Ag 1.0000000
  HONO-0 :    1B3u 1.0000000
  LUNO+0 :    4 Ag 0.0000399
  LUNO+1 :    2B1u 0.0000025
  LUNO+2 :    2B2u 0.0000025
  LUNO+3 :    5 Ag 0.0000000


Computation Completed


Properties will be evaluated at   0.000000,   0.000000,   0.000000 [a0]

Properties computed using the SCF density matrix


 Multipole Moments:

 ------------------------------------------------------------------------------------
     Multipole            Electronic (a.u.)      Nuclear  (a.u.)        Total (a.u.)
 ------------------------------------------------------------------------------------

 L = 1.  Multiply by 2.5417464519 to convert [e a0] to [Debye]
 Dipole X            :          0.0000000            0.0000000            0.0000000
 Dipole Y            :          0.0000000            0.0000000            0.0000000
 Dipole Z            :          0.0000000            0.0000000            0.0000000
 Magnitude           :                                                    0.0000000

 ------------------------------------------------------------------------------------

*** tstop() called on Joses-MacBook-Pro-2.local at Sat Jan 25 21:32:42 2025
Module time:
	user time   =       3.37 seconds =       0.06 minutes
	system time =       1.61 seconds =       0.03 minutes
	total time  =          1 seconds =       0.02 minutes
Total time:
	user time   =       3.37 seconds =       0.06 minutes
	system time =       1.61 seconds =       0.03 minutes
	total time  =          1 seconds =       0.02 minutes

    Psi4 stopped on: Saturday, 25 January 2025 09:32PM
    Psi4 wall time for execution: 0:00:00.63

*** Psi4 exiting successfully. Buy a developer a beer!
