
    -----------------------------------------------------------------------
          Psi4: An Open-Source Ab Initio Electronic Structure Package
                               Psi4 1.9.1 release

                         Git: Rev {} zzzzzzz 


    D. G. A. Smith, L. A. Burns, A. C. Simmonett, R. M. Parrish,
    M. C. Schieber, R. Galvelis, P. Kraus, H. Kruse, R. Di Remigio,
    A. Alenaizan, A. M. James, S. Lehtola, J. P. Misiewicz, M. Scheurer,
    R. A. Shaw, J. B. Schriber, Y. Xie, Z. L. Glick, D. A. Sirianni,
    J. S. O'Brien, J. M. Waldrop, A. Kumar, E. G. Hohenstein,
    B. P. Pritchard, B. R. Brooks, H. F. Schaefer III, A. Yu. Sokolov,
    K. Patkowski, A. E. DePrince III, U. Bozkaya, R. A. King,
    F. A. Evangelista, J. M. Turney, T. D. Crawford, C. D. Sherrill,
    J. Chem. Phys. 152(18) 184108 (2020). https://doi.org/10.1063/5.0006002

                            Additional Code Authors
    E. T. Seidl, C. L. Janssen, E. F. Valeev, M. L. Leininger,
    J. F. Gonthier, R. M. Richard, H. R. McAlexander, M. Saitow, X. Wang,
    P. Verma, M. H. Lechner, A. Jiang, S. Behnle, A. G. Heide,
    M. F. Herbst, and D. L. Poole

             Previous Authors, Complete List of Code Contributors,
                       and Citations for Specific Modules
    https://github.com/psi4/psi4/blob/master/codemeta.json
    https://github.com/psi4/psi4/graphs/contributors
    http://psicode.org/psi4manual/master/introduction.html#citing-psifour

    -----------------------------------------------------------------------


    Psi4 started on: Sunday, 10 August 2025 05:12PM

    Process ID: 48463
    Host:       Mac.lan
    PSIDATADIR: /Users/joseantoniorodriguesromero/anaconda3/share/psi4
    Memory:     500.0 MiB
    Threads:    1
    
  ==> Input File <==

--------------------------------------------------------------------------
molecule { 
0 2
N           0.000000           0.000000           0.000000
C           0.000000           0.000000           1.175160
}

set { 
basis              cc-pvtz
reference          uks
maxiter            500
DAMPING_PERCENTAGE 1
E_CONVERGENCE      1.0E-8
D_CONVERGENCE      1.0E-8
DIIS_MAX_VECS      400
MBIS_MAXITER       8000
guess              SAP
}

E, wfn = optimize('b3lyp', return_wfn=True)
frequencies('b3lyp', wfn=wfn, return_wfn=True)
properties('b3lyp','MULLIKEN_CHARGES', wfn=wfn)
--------------------------------------------------------------------------

Scratch directory: /tmp/
gradient() will perform analytic gradient computation.
   => Libint2 <=

    Primary   basis highest AM E, G, H:  6, 6, 3
    Auxiliary basis highest AM E, G, H:  7, 7, 4
    Onebody   basis highest AM E, G, H:  -, -, -
    Solid Harmonics ordering:            Gaussian

*** tstart() called on Mac.lan
*** at Sun Aug 10 17:12:09 2025

   => Loading Basis Set <=

    Name: CC-PVTZ
    Role: ORBITAL
    Keyword: BASIS
    atoms 1 entry N          line   224 file /Users/joseantoniorodriguesromero/anaconda3/share/psi4/basis/cc-pvtz.gbs 
    atoms 2 entry C          line   186 file /Users/joseantoniorodriguesromero/anaconda3/share/psi4/basis/cc-pvtz.gbs 


         ---------------------------------------------------------
                                   SCF
               by Justin Turney, Rob Parrish, Andy Simmonett
                          and Daniel G. A. Smith
                              UKS Reference
                        1 Threads,    500 MiB Core
         ---------------------------------------------------------

  ==> Geometry <==

    Molecular point group: c2v
    Full point group: C_inf_v

    Geometry (in Angstrom), charge = 0, multiplicity = 2:

       Center              X                  Y                   Z               Mass       
    ------------   -----------------  -----------------  -----------------  -----------------
         N            0.000000000000     0.000000000000    -0.542317419763    14.003074004430
         C            0.000000000000     0.000000000000     0.632842580237    12.000000000000

  Running in c2v symmetry.

  Rotational constants: A = ************  B =      1.88896  C =      1.88896 [cm^-1]
  Rotational constants: A = ************  B =  56629.56950  C =  56629.56950 [MHz]
  Nuclear repulsion =   18.912695163330952

  Charge       = 0
  Multiplicity = 2
  Electrons    = 13
  Nalpha       = 7
  Nbeta        = 6

  ==> Algorithm <==

  SCF Algorithm Type is DF.
  DIIS enabled.
  MOM disabled.
  Fractional occupation disabled.
  Guess Type is SAP.
  Energy threshold   = 1.00e-08
  Density threshold  = 1.00e-08
  Integral threshold = 1.00e-12

  ==> Primary Basis <==

  Basis Set: CC-PVTZ
    Blend: CC-PVTZ
    Number of shells: 20
    Number of basis functions: 60
    Number of Cartesian functions: 70
    Spherical Harmonics?: true
    Max angular momentum: 3

  ==> DFT Potential <==

   => LibXC <=

    Version 6.2.2
    S. Lehtola, C. Steigemann, M. J.T. Oliveira, and M. A.L. Marques.,  SoftwareX 7, 1–5 (2018) (10.1016/j.softx.2017.11.002)

   => Composite Functional: B3LYP <= 

    B3LYP Hyb-GGA Exchange-Correlation Functional

    P. J. Stephens, F. J. Devlin, C. F. Chabalowski, and M. J. Frisch.,  J. Phys. Chem. 98, 11623 (1994) (10.1021/j100096a001)

    Deriv               =              1
    GGA                 =           TRUE
    Meta                =          FALSE

    Exchange Hybrid     =           TRUE
    MP2 Hybrid          =          FALSE

   => Exchange Functionals <=

    0.0800   Slater exchange
    0.7200         Becke 88

   => Exact (HF) Exchange <=

    0.2000               HF 

   => Correlation Functionals <=

    0.1900   Vosko, Wilk & Nusair (VWN5_RPA)
    0.8100   Lee, Yang & Parr

   => LibXC Density Thresholds  <==

    XC_HYB_GGA_XC_B3LYP:  1.00E-15 

   => Molecular Quadrature <=

    Radial Scheme          =       TREUTLER
    Pruning Scheme         =           NONE
    Nuclear Scheme         =       TREUTLER

    Blocking Scheme        =         OCTREE
    BS radius alpha        =              1
    Pruning alpha          =              1
    Radial Points          =             75
    Spherical Points       =            302
    Total Points           =          43234
    Total Blocks           =            390
    Max Points             =            256
    Max Functions          =             60
    Weights Tolerance      =       1.00E-15

   => Loading Basis Set <=

    Name: (CC-PVTZ AUX)
    Role: JKFIT
    Keyword: DF_BASIS_SCF
    atoms 1 entry N          line   177 file /Users/joseantoniorodriguesromero/anaconda3/share/psi4/basis/cc-pvtz-jkfit.gbs 
    atoms 2 entry C          line   125 file /Users/joseantoniorodriguesromero/anaconda3/share/psi4/basis/cc-pvtz-jkfit.gbs 

  ==> Integral Setup <==

  DFHelper Memory: AOs need 0.005 GiB; user supplied 0.294 GiB. 
  Using in-core AOs.

  ==> MemDFJK: Density-Fitted J/K Matrices <==

    J tasked:                   Yes
    K tasked:                   Yes
    wK tasked:                   No
    OpenMP threads:               1
    Memory [MiB]:               300
    Algorithm:                 Core
    Schwarz Cutoff:           1E-12
    Mask sparsity (%):       0.0000
    Fitting Condition:        1E-10

   => Auxiliary Basis Set <=

  Basis Set: (CC-PVTZ AUX)
    Blend: CC-PVTZ-JKFIT
    Number of shells: 50
    Number of basis functions: 158
    Number of Cartesian functions: 192
    Spherical Harmonics?: true
    Max angular momentum: 4

  Cached 100.0% of DFT collocation blocks in 0.072 [GiB].

  Minimum eigenvalue in the overlap matrix is 1.9101081002E-03.
  Reciprocal condition number of the overlap matrix is 4.6617712565E-04.
    Using symmetric orthogonalization.

  ==> Pre-Iterations <==

  SCF Guess: Superposition of Atomic Potentials (doi:10.1021/acs.jctc.8b01089).

  ==> SAP guess <==

   => Molecular Quadrature <=

    Radial Scheme          =       TREUTLER
    Pruning Scheme         =           NONE
    Nuclear Scheme         =       TREUTLER

    Blocking Scheme        =         OCTREE
    BS radius alpha        =              1
    Pruning alpha          =              1
    Radial Points          =             75
    Spherical Points       =            302
    Total Points           =          43234
    Total Blocks           =            390
    Max Points             =            256
    Max Functions          =             60
    Weights Tolerance      =       1.00E-15

   -------------------------------------------------------
    Irrep   Nso     Nmo     Nalpha   Nbeta   Ndocc  Nsocc
   -------------------------------------------------------
     A1        26      26       5       4       4       1
     A2         6       6       0       0       0       0
     B1        14      14       1       1       1       0
     B2        14      14       1       1       1       0
   -------------------------------------------------------
    Total      60      60       7       6       6       1
   -------------------------------------------------------

  ==> Iterations <==

                           Total Energy        Delta E     RMS |[F,P]|

   @DF-UKS iter   1:   -92.45015594321849   -9.24502e+01   2.53460e-02 DIIS/ADIIS
   @DF-UKS iter   2:   -91.17785036939728    1.27231e+00   4.98593e-02 DIIS/ADIIS/DAMP=1%
   @DF-UKS iter   3:   -92.68495590214523   -1.50711e+00   8.21630e-03 DIIS/ADIIS/DAMP=1%
   @DF-UKS iter   4:   -92.73554259220080   -5.05867e-02   3.04847e-03 DIIS/ADIIS/DAMP=1%
   @DF-UKS iter   5:   -92.74613624506721   -1.05937e-02   6.55228e-04 DIIS/ADIIS/DAMP=1%
   @DF-UKS iter   6:   -92.74527081711270    8.65428e-04   2.48767e-04 DIIS/ADIIS/DAMP=1%
   @DF-UKS iter   7:   -92.74541491401347   -1.44097e-04   3.05997e-05 DIIS/DAMP=1%
   @DF-UKS iter   8:   -92.74547395946061   -5.90454e-05   1.54051e-05 DIIS/DAMP=1%
   @DF-UKS iter   9:   -92.74547280845933    1.15100e-06   1.97309e-06 DIIS/DAMP=1%
   @DF-UKS iter  10:   -92.74547659559111   -3.78713e-06   1.63296e-06 DIIS/DAMP=1%
   @DF-UKS iter  11:   -92.74547574656238    8.49029e-07   2.03706e-07 DIIS/DAMP=1%
   @DF-UKS iter  12:   -92.74547630741411   -5.60852e-07   1.72173e-08 DIIS/DAMP=1%
   @DF-UKS iter  13:   -92.74547621502944    9.23847e-08   2.68667e-09 DIIS/DAMP=1%
   @DF-UKS iter  14:   -92.74547621285483    2.17462e-09   4.36473e-10 DIIS/DAMP=1%
  Energy and wave function converged.


  ==> Post-Iterations <==

   Electrons on quadrature grid:
      Nalpha   =    7.0000000639 ; deviation = 6.390e-08
      Nbeta    =    6.0000000700 ; deviation = 7.004e-08
      Ntotal   =   13.0000001339 ; deviation = 1.339e-07 

   @Spin Contamination Metric:   8.110108960E-03
   @S^2 Expected:                7.500000000E-01
   @S^2 Observed:                7.581101090E-01
   @S   Expected:                5.000000000E-01
   @S   Observed:                5.000000000E-01

    Orbital Energies [Eh]
    ---------------------

    Alpha Occupied:                                                       

       1A1   -14.391891     2A1   -10.299129     3A1    -0.962376  
       4A1    -0.506884     5A1    -0.412668     1B1    -0.393012  
       1B2    -0.393012  

    Alpha Virtual:                                                        

       2B2    -0.021610     2B1    -0.021610     6A1     0.165610  
       7A1     0.268029     3B1     0.281648     3B2     0.281648  
       8A1     0.436835     4B1     0.513667     4B2     0.513667  
       9A1     0.585276    10A1     0.619227     1A2     0.619227  
       5B2     0.816966     5B1     0.816966    11A1     0.879430  
       2A2     1.155389    12A1     1.155389    13A1     1.259474  
       6B1     1.501812     6B2     1.501812    14A1     1.739788  
       7B1     1.961023     7B2     1.961023    15A1     2.183010  
       8B2     2.616537     8B1     2.616537    16A1     2.700552  
       3A2     2.700552    17A1     2.737647     9B2     2.776641  
       9B1     2.776641    10B1     2.903917    10B2     2.903917  
      18A1     2.909551     4A2     2.909552    19A1     3.088315  
      11B2     3.391189    11B1     3.391189    20A1     3.852745  
      12B1     3.920412    12B2     3.920412     5A2     4.377277  
      21A1     4.377278     6A2     4.532411    22A1     4.532415  
      13B1     4.784215    13B2     4.784215    23A1     4.936562  
      24A1     5.313824    14B2     5.496763    14B1     5.496763  
      25A1     5.875657    26A1    12.322549  

    Beta Occupied:                                                        

       1A1   -14.387134     2A1   -10.283454     3A1    -0.939458  
       4A1    -0.440321     1B1    -0.384517     1B2    -0.384517  

    Beta Virtual:                                                         

       5A1    -0.253728     2B2     0.000068     2B1     0.000068  
       6A1     0.172804     3B1     0.291103     3B2     0.291103  
       7A1     0.307524     8A1     0.447927     4B1     0.515248  
       4B2     0.515248     9A1     0.629429     1A2     0.629429  
      10A1     0.631962     5B2     0.846959     5B1     0.846959  
      11A1     0.891265     2A2     1.157494    12A1     1.157494  
      13A1     1.296514     6B1     1.518858     6B2     1.518858  
      14A1     1.766578     7B1     1.975690     7B2     1.975690  
      15A1     2.233329     8B2     2.632889     8B1     2.632889  
       3A2     2.717037    16A1     2.717037    17A1     2.779251  
       9B2     2.809962     9B1     2.809962    10B1     2.942494  
      10B2     2.942494    18A1     2.949809     4A2     2.949810  
      19A1     3.166402    11B2     3.427691    11B1     3.427691  
      20A1     3.887884    12B1     3.915547    12B2     3.915547  
       5A2     4.377958    21A1     4.377960     6A2     4.538544  
      22A1     4.538548    13B1     4.808100    13B2     4.808100  
      23A1     4.974925    24A1     5.343588    14B2     5.522609  
      14B1     5.522609    25A1     5.890206    26A1    12.342639  

    Final Occupation by Irrep:
             A1    A2    B1    B2 
    DOCC [     4,    0,    1,    1 ]
    SOCC [     1,    0,    0,    0 ]
    NA   [     5,    0,    1,    1 ]
    NB   [     4,    0,    1,    1 ]

  @DF-UKS Final Energy:   -92.74547621285483

   => Energetics <=

    Nuclear Repulsion Energy =             18.9126951633309517
    One-Electron Energy =                -162.0620748978423364
    Two-Electron Energy =                  60.2295265465517886
    DFT Exchange-Correlation Energy =      -9.8256230248952132
    Empirical Dispersion Energy =           0.0000000000000000
    VV10 Nonlocal Energy =                  0.0000000000000000
    Total Energy =                        -92.7454762128548111

  UHF NO Occupations:
  HONO-2 :    1 B2 1.9986101
  HONO-1 :    1 B1 1.9986101
  HONO-0 :    5 A1 1.0000000
  LUNO+0 :    2 B2 0.0013899
  LUNO+1 :    2 B1 0.0013899
  LUNO+2 :    6 A1 0.0011771
  LUNO+3 :    7 A1 0.0001003


Computation Completed


Properties will be evaluated at   0.000000,   0.000000,   0.000000 [a0]

Properties computed using the SCF density matrix


 Multipole Moments:

 ------------------------------------------------------------------------------------
     Multipole            Electronic (a.u.)      Nuclear  (a.u.)        Total (a.u.)
 ------------------------------------------------------------------------------------

 L = 1.  Multiply by 2.5417464519 to convert [e a0] to [Debye]
 Dipole X            :          0.0000000            0.0000000            0.0000000
 Dipole Y            :          0.0000000            0.0000000            0.0000000
 Dipole Z            :          0.5103767            0.0015752            0.5119518
 Magnitude           :                                                    0.5119518

 ------------------------------------------------------------------------------------

*** tstop() called on Mac.lan at Sun Aug 10 17:12:11 2025
Module time:
	user time   =      19.07 seconds =       0.32 minutes
	system time =       1.27 seconds =       0.02 minutes
	total time  =          2 seconds =       0.03 minutes
Total time:
	user time   =      19.07 seconds =       0.32 minutes
	system time =       1.27 seconds =       0.02 minutes
	total time  =          2 seconds =       0.03 minutes

*** tstart() called on Mac.lan
*** at Sun Aug 10 17:12:11 2025


         ------------------------------------------------------------
                                   SCF GRAD                          
                          Rob Parrish, Justin Turney,                
                       Andy Simmonett, and Alex Sokolov              
         ------------------------------------------------------------

  ==> Geometry <==

    Molecular point group: c2v
    Full point group: C_inf_v

    Geometry (in Angstrom), charge = 0, multiplicity = 2:

       Center              X                  Y                   Z               Mass       
    ------------   -----------------  -----------------  -----------------  -----------------
         N            0.000000000000     0.000000000000    -0.542317419763    14.003074004430
         C            0.000000000000     0.000000000000     0.632842580237    12.000000000000

  Nuclear repulsion =   18.912695163330952

  ==> Basis Set <==

  Basis Set: CC-PVTZ
    Blend: CC-PVTZ
    Number of shells: 20
    Number of basis functions: 60
    Number of Cartesian functions: 70
    Spherical Harmonics?: true
    Max angular momentum: 3

  ==> DFJKGrad: Density-Fitted SCF Gradients <==

    Gradient:                    1
    J tasked:                  Yes
    K tasked:                  Yes
    wK tasked:                  No
    OpenMP threads:              1
    Integrals threads:           1
    Memory [MiB]:              375
    Schwarz Cutoff:          1E-12
    Fitting Condition:       1E-10

   => Auxiliary Basis Set <=

  Basis Set: (CC-PVTZ AUX)
    Blend: CC-PVTZ-JKFIT
    Number of shells: 50
    Number of basis functions: 158
    Number of Cartesian functions: 192
    Spherical Harmonics?: true
    Max angular momentum: 4

  ==> DFT Potential <==

   => LibXC <=

    Version 6.2.2
    S. Lehtola, C. Steigemann, M. J.T. Oliveira, and M. A.L. Marques.,  SoftwareX 7, 1–5 (2018) (10.1016/j.softx.2017.11.002)

   => Composite Functional: B3LYP <= 

    B3LYP Hyb-GGA Exchange-Correlation Functional

    P. J. Stephens, F. J. Devlin, C. F. Chabalowski, and M. J. Frisch.,  J. Phys. Chem. 98, 11623 (1994) (10.1021/j100096a001)

    Deriv               =              1
    GGA                 =           TRUE
    Meta                =          FALSE

    Exchange Hybrid     =           TRUE
    MP2 Hybrid          =          FALSE

   => Exchange Functionals <=

    0.0800   Slater exchange
    0.7200         Becke 88

   => Exact (HF) Exchange <=

    0.2000               HF 

   => Correlation Functionals <=

    0.1900   Vosko, Wilk & Nusair (VWN5_RPA)
    0.8100   Lee, Yang & Parr

   => LibXC Density Thresholds  <==

    XC_HYB_GGA_XC_B3LYP:  1.00E-15 

   => Molecular Quadrature <=

    Radial Scheme          =       TREUTLER
    Pruning Scheme         =           NONE
    Nuclear Scheme         =       TREUTLER

    Blocking Scheme        =         OCTREE
    BS radius alpha        =              1
    Pruning alpha          =              1
    Radial Points          =             75
    Spherical Points       =            302
    Total Points           =          43234
    Total Blocks           =            390
    Max Points             =            256
    Max Functions          =             60
    Weights Tolerance      =       1.00E-15


  -Total Gradient:
     Atom            X                  Y                   Z
    ------   -----------------  -----------------  -----------------
       1        0.000000000000    -0.000000000000    -0.025359744555
       2        0.000000000000     0.000000000000     0.025360795486


*** tstop() called on Mac.lan at Sun Aug 10 17:12:11 2025
Module time:
	user time   =       3.54 seconds =       0.06 minutes
	system time =       0.28 seconds =       0.00 minutes
	total time  =          0 seconds =       0.00 minutes
Total time:
	user time   =      22.62 seconds =       0.38 minutes
	system time =       1.55 seconds =       0.03 minutes
	total time  =          2 seconds =       0.03 minutes

    			-----------------------------------------

    			 OPTKING 3.0: for geometry optimizations 

    			     By R.A. King, Bethel University     

    			        with contributions from          

    			    A.V. Copan, J. Cayton, A. Heide      

    			-----------------------------------------

    
	                            ===> Fragment 1 <== 

	 Z (Atomic Numbers)          Masses                          Geom                  
	       7.000000            14.003074          0.00000000  0.00000000 -1.02483140   
	       6.000000            12.000000          0.00000000  0.00000000  1.19589916   

	 - Coordinate -           - BOHR/RAD -       - ANG/DEG -
	 R(1,2)           =         2.220731           1.175160


	        --- Internal Coordinate Step in ANG or DEG, aJ/ANG or AJ/DEG ---
	-------------------------------------------------------------------------------
	           Coordinate      Previous         Force          Change          New 
	           ----------      --------        ------          ------        ------
	               R(1,2)       1.17516       -0.20894       -0.01133       1.16383
	-------------------------------------------------------------------------------

	                                 ==> Convergence Check <==                                  
    
	Measures of convergence in internal coordinates in au.
    
	Criteria marked as inactive (o), active & met (*), and active & unmet ( ).

	----------------------------------------------------------------------------------------------
	   Step    Total Energy     Delta E     Max Force     RMS Force      Max Disp      RMS Disp   
	----------------------------------------------------------------------------------------------
	  Convergence Criteria     1.00e-06 *    3.00e-04 *             o    1.20e-03 *             o
	----------------------------------------------------------------------------------------------
	     1     -92.74547621   -9.27e+01      2.54e-02      2.54e-02 o    2.14e-02      2.14e-02 o  ~
	----------------------------------------------------------------------------------------------

Next Geometry in Ang 
	Fragment 1 (Ang)

	    N   0.0000000000   0.0000000000  -0.5366510799
	    C   0.0000000000   0.0000000000   0.6271762404


    Structure for next step:
    Molecular point group: c2v
    Full point group: C_inf_v

    Geometry (in Angstrom), charge = 0, multiplicity = 2:

    N            0.000000000000     0.000000000000    -0.537087570534
    C            0.000000000000     0.000000000000     0.626739749754


Scratch directory: /tmp/
gradient() will perform analytic gradient computation.
   => Libint2 <=

    Primary   basis highest AM E, G, H:  6, 6, 3
    Auxiliary basis highest AM E, G, H:  7, 7, 4
    Onebody   basis highest AM E, G, H:  -, -, -
    Solid Harmonics ordering:            Gaussian

*** tstart() called on Mac.lan
*** at Sun Aug 10 17:12:11 2025

   => Loading Basis Set <=

    Name: CC-PVTZ
    Role: ORBITAL
    Keyword: BASIS
    atoms 1 entry N          line   224 file /Users/joseantoniorodriguesromero/anaconda3/share/psi4/basis/cc-pvtz.gbs 
    atoms 2 entry C          line   186 file /Users/joseantoniorodriguesromero/anaconda3/share/psi4/basis/cc-pvtz.gbs 


         ---------------------------------------------------------
                                   SCF
               by Justin Turney, Rob Parrish, Andy Simmonett
                          and Daniel G. A. Smith
                              UKS Reference
                        1 Threads,    500 MiB Core
         ---------------------------------------------------------

  ==> Geometry <==

    Molecular point group: c2v
    Full point group: C_inf_v

    Geometry (in Angstrom), charge = 0, multiplicity = 2:

       Center              X                  Y                   Z               Mass       
    ------------   -----------------  -----------------  -----------------  -----------------
         N            0.000000000000     0.000000000000    -0.537087570534    14.003074004430
         C            0.000000000000     0.000000000000     0.626739749754    12.000000000000

  Running in c2v symmetry.

  Rotational constants: A = ************  B =      1.92593  C =      1.92593 [cm^-1]
  Rotational constants: A = ************  B =  57737.79120  C =  57737.79120 [MHz]
  Nuclear repulsion =   19.096856089125669

  Charge       = 0
  Multiplicity = 2
  Electrons    = 13
  Nalpha       = 7
  Nbeta        = 6

  ==> Algorithm <==

  SCF Algorithm Type is DF.
  DIIS enabled.
  MOM disabled.
  Fractional occupation disabled.
  Guess Type is READ.
  Energy threshold   = 1.00e-08
  Density threshold  = 1.00e-08
  Integral threshold = 1.00e-12

  ==> Primary Basis <==

  Basis Set: CC-PVTZ
    Blend: CC-PVTZ
    Number of shells: 20
    Number of basis functions: 60
    Number of Cartesian functions: 70
    Spherical Harmonics?: true
    Max angular momentum: 3

  ==> DFT Potential <==

   => LibXC <=

    Version 6.2.2
    S. Lehtola, C. Steigemann, M. J.T. Oliveira, and M. A.L. Marques.,  SoftwareX 7, 1–5 (2018) (10.1016/j.softx.2017.11.002)

   => Composite Functional: B3LYP <= 

    B3LYP Hyb-GGA Exchange-Correlation Functional

    P. J. Stephens, F. J. Devlin, C. F. Chabalowski, and M. J. Frisch.,  J. Phys. Chem. 98, 11623 (1994) (10.1021/j100096a001)

    Deriv               =              1
    GGA                 =           TRUE
    Meta                =          FALSE

    Exchange Hybrid     =           TRUE
    MP2 Hybrid          =          FALSE

   => Exchange Functionals <=

    0.0800   Slater exchange
    0.7200         Becke 88

   => Exact (HF) Exchange <=

    0.2000               HF 

   => Correlation Functionals <=

    0.1900   Vosko, Wilk & Nusair (VWN5_RPA)
    0.8100   Lee, Yang & Parr

   => LibXC Density Thresholds  <==

    XC_HYB_GGA_XC_B3LYP:  1.00E-15 

   => Molecular Quadrature <=

    Radial Scheme          =       TREUTLER
    Pruning Scheme         =           NONE
    Nuclear Scheme         =       TREUTLER

    Blocking Scheme        =         OCTREE
    BS radius alpha        =              1
    Pruning alpha          =              1
    Radial Points          =             75
    Spherical Points       =            302
    Total Points           =          43234
    Total Blocks           =            390
    Max Points             =            256
    Max Functions          =             60
    Weights Tolerance      =       1.00E-15

   => Loading Basis Set <=

    Name: (CC-PVTZ AUX)
    Role: JKFIT
    Keyword: DF_BASIS_SCF
    atoms 1 entry N          line   177 file /Users/joseantoniorodriguesromero/anaconda3/share/psi4/basis/cc-pvtz-jkfit.gbs 
    atoms 2 entry C          line   125 file /Users/joseantoniorodriguesromero/anaconda3/share/psi4/basis/cc-pvtz-jkfit.gbs 

   => Loading Basis Set <=

    Name: CC-PVTZ
    Role: ORBITAL
    Keyword: BASIS
    atoms 1 entry N          line   224 file /Users/joseantoniorodriguesromero/anaconda3/share/psi4/basis/cc-pvtz.gbs 
    atoms 2 entry C          line   186 file /Users/joseantoniorodriguesromero/anaconda3/share/psi4/basis/cc-pvtz.gbs 

  Reading orbitals from file /tmp/scan_CN.default.48463.180.npy, no projection.

  ==> Integral Setup <==

  DFHelper Memory: AOs need 0.005 GiB; user supplied 0.294 GiB. 
  Using in-core AOs.

  ==> MemDFJK: Density-Fitted J/K Matrices <==

    J tasked:                   Yes
    K tasked:                   Yes
    wK tasked:                   No
    OpenMP threads:               1
    Memory [MiB]:               300
    Algorithm:                 Core
    Schwarz Cutoff:           1E-12
    Mask sparsity (%):       0.0000
    Fitting Condition:        1E-10

   => Auxiliary Basis Set <=

  Basis Set: (CC-PVTZ AUX)
    Blend: CC-PVTZ-JKFIT
    Number of shells: 50
    Number of basis functions: 158
    Number of Cartesian functions: 192
    Spherical Harmonics?: true
    Max angular momentum: 4

  Cached 100.0% of DFT collocation blocks in 0.072 [GiB].

  Minimum eigenvalue in the overlap matrix is 1.8697203273E-03.
  Reciprocal condition number of the overlap matrix is 4.5528633070E-04.
    Using symmetric orthogonalization.

  ==> Pre-Iterations <==

  SCF Guess: Orbitals guess was supplied from a previous computation.

   -------------------------------------------------------
    Irrep   Nso     Nmo     Nalpha   Nbeta   Ndocc  Nsocc
   -------------------------------------------------------
     A1        26      26       5       4       4       1
     A2         6       6       0       0       0       0
     B1        14      14       1       1       1       0
     B2        14      14       1       1       1       0
   -------------------------------------------------------
    Total      60      60       7       6       6       1
   -------------------------------------------------------

  ==> Iterations <==

                           Total Energy        Delta E     RMS |[F,P]|

   @DF-UKS iter   0:   -92.75302090176447   -9.27530e+01   1.21506e-03 
   @DF-UKS iter   1:   -92.74573002145266    7.29088e-03   2.62019e-04 DIIS/ADIIS
   @DF-UKS iter   2:   -92.74555899005973    1.71031e-04   6.78738e-04 DIIS/ADIIS/DAMP=1%
   @DF-UKS iter   3:   -92.74603964146957   -4.80651e-04   1.20584e-04 DIIS/ADIIS/DAMP=1%
   @DF-UKS iter   4:   -92.74580246184266    2.37180e-04   3.39354e-05 DIIS/DAMP=1%
   @DF-UKS iter   5:   -92.74578140526445    2.10566e-05   6.94637e-06 DIIS/DAMP=1%
   @DF-UKS iter   6:   -92.74577468716772    6.71810e-06   3.95710e-06 DIIS/DAMP=1%
   @DF-UKS iter   7:   -92.74577347298695    1.21418e-06   1.02283e-06 DIIS/DAMP=1%
   @DF-UKS iter   8:   -92.74577396201734   -4.89030e-07   4.41702e-07 DIIS/DAMP=1%
   @DF-UKS iter   9:   -92.74577382195446    1.40063e-07   4.98932e-08 DIIS/DAMP=1%
   @DF-UKS iter  10:   -92.74577392587472   -1.03920e-07   8.70818e-09 DIIS/DAMP=1%
   @DF-UKS iter  11:   -92.74577390626092    1.96138e-08   1.93542e-09 DIIS/DAMP=1%
   @DF-UKS iter  12:   -92.74577391135935   -5.09843e-09   7.88696e-11 DIIS/DAMP=1%
  Energy and wave function converged.


  ==> Post-Iterations <==

   Electrons on quadrature grid:
      Nalpha   =    7.0000000341 ; deviation = 3.414e-08
      Nbeta    =    6.0000000387 ; deviation = 3.865e-08
      Ntotal   =   13.0000000728 ; deviation = 7.280e-08 

   @Spin Contamination Metric:   7.981112874E-03
   @S^2 Expected:                7.500000000E-01
   @S^2 Observed:                7.579811129E-01
   @S   Expected:                5.000000000E-01
   @S   Observed:                5.000000000E-01

    Orbital Energies [Eh]
    ---------------------

    Alpha Occupied:                                                       

       1A1   -14.388579     2A1   -10.295976     3A1    -0.966273  
       4A1    -0.504553     5A1    -0.412479     1B2    -0.395366  
       1B1    -0.395366  

    Alpha Virtual:                                                        

       2B2    -0.017462     2B1    -0.017462     6A1     0.165921  
       7A1     0.267111     3B1     0.281181     3B2     0.281181  
       8A1     0.437427     4B2     0.514415     4B1     0.514415  
       9A1     0.598276    10A1     0.618963     1A2     0.618963  
       5B1     0.821150     5B2     0.821150    11A1     0.881485  
       2A2     1.158651    12A1     1.158651    13A1     1.272701  
       6B2     1.506536     6B1     1.506536    14A1     1.745921  
       7B1     1.959059     7B2     1.959059    15A1     2.189062  
       8B2     2.615788     8B1     2.615788    16A1     2.705457  
       3A2     2.705457    17A1     2.734635     9B1     2.783468  
       9B2     2.783468    10B2     2.908498    10B1     2.908498  
      18A1     2.909899     4A2     2.909900    19A1     3.096372  
      11B1     3.398499    11B2     3.398499    20A1     3.883667  
      12B1     3.924063    12B2     3.924063     5A2     4.391591  
      21A1     4.391593     6A2     4.539309    22A1     4.539313  
      13B2     4.792737    13B1     4.792737    23A1     4.955065  
      24A1     5.321110    14B1     5.527207    14B2     5.527207  
      25A1     5.939888    26A1    12.521495  

    Beta Occupied:                                                        

       1A1   -14.383950     2A1   -10.280144     3A1    -0.943547  
       4A1    -0.438145     1B2    -0.386776     1B1    -0.386776  

    Beta Virtual:                                                         

       5A1    -0.253419     2B2     0.004379     2B1     0.004379  
       6A1     0.173079     3B1     0.290763     3B2     0.290763  
       7A1     0.306931     8A1     0.448593     4B2     0.516090  
       4B1     0.516090     9A1     0.629310     1A2     0.629310  
      10A1     0.644552     5B1     0.851201     5B2     0.851201  
      11A1     0.893106     2A2     1.160824    12A1     1.160824  
      13A1     1.310114     6B2     1.523242     6B1     1.523242  
      14A1     1.772605     7B1     1.973909     7B2     1.973909  
      15A1     2.239438     8B2     2.632354     8B1     2.632354  
       3A2     2.721469    16A1     2.721469    17A1     2.775905  
       9B1     2.819281     9B2     2.819281    10B1     2.945638  
      10B2     2.945638    18A1     2.951296     4A2     2.951297  
      19A1     3.175405    11B1     3.434705    11B2     3.434705  
      20A1     3.918226    12B1     3.919259    12B2     3.919259  
       5A2     4.391423    21A1     4.391425     6A2     4.546094  
      22A1     4.546098    13B2     4.815943    13B1     4.815943  
      23A1     4.992655    24A1     5.350326    14B1     5.553027  
      14B2     5.553027    25A1     5.954436    26A1    12.541855  

    Final Occupation by Irrep:
             A1    A2    B1    B2 
    DOCC [     4,    0,    1,    1 ]
    SOCC [     1,    0,    0,    0 ]
    NA   [     5,    0,    1,    1 ]
    NB   [     4,    0,    1,    1 ]

  @DF-UKS Final Energy:   -92.74577391135935

   => Energetics <=

    Nuclear Repulsion Energy =             19.0968560891256693
    One-Electron Energy =                -162.4247553403753557
    Two-Electron Energy =                  60.4174652966391861
    DFT Exchange-Correlation Energy =      -9.8353399567488609
    Empirical Dispersion Energy =           0.0000000000000000
    VV10 Nonlocal Energy =                  0.0000000000000000
    Total Energy =                        -92.7457739113593504

  UHF NO Occupations:
  HONO-2 :    1 B2 1.9986167
  HONO-1 :    1 B1 1.9986167
  HONO-0 :    5 A1 1.0000000
  LUNO+0 :    2 B1 0.0013833
  LUNO+1 :    2 B2 0.0013833
  LUNO+2 :    6 A1 0.0011294
  LUNO+3 :    7 A1 0.0000967


Computation Completed


Properties will be evaluated at   0.000000,   0.000000,   0.000000 [a0]

Properties computed using the SCF density matrix


 Multipole Moments:

 ------------------------------------------------------------------------------------
     Multipole            Electronic (a.u.)      Nuclear  (a.u.)        Total (a.u.)
 ------------------------------------------------------------------------------------

 L = 1.  Multiply by 2.5417464519 to convert [e a0] to [Debye]
 Dipole X            :          0.0000000            0.0000000            0.0000000
 Dipole Y            :          0.0000000            0.0000000            0.0000000
 Dipole Z            :          0.5179429            0.0015600            0.5195029
 Magnitude           :                                                    0.5195029

 ------------------------------------------------------------------------------------

*** tstop() called on Mac.lan at Sun Aug 10 17:12:13 2025
Module time:
	user time   =      16.48 seconds =       0.27 minutes
	system time =       1.25 seconds =       0.02 minutes
	total time  =          2 seconds =       0.03 minutes
Total time:
	user time   =      39.33 seconds =       0.66 minutes
	system time =       2.80 seconds =       0.05 minutes
	total time  =          4 seconds =       0.07 minutes

*** tstart() called on Mac.lan
*** at Sun Aug 10 17:12:13 2025


         ------------------------------------------------------------
                                   SCF GRAD                          
                          Rob Parrish, Justin Turney,                
                       Andy Simmonett, and Alex Sokolov              
         ------------------------------------------------------------

  ==> Geometry <==

    Molecular point group: c2v
    Full point group: C_inf_v

    Geometry (in Angstrom), charge = 0, multiplicity = 2:

       Center              X                  Y                   Z               Mass       
    ------------   -----------------  -----------------  -----------------  -----------------
         N            0.000000000000     0.000000000000    -0.537087570534    14.003074004430
         C            0.000000000000     0.000000000000     0.626739749754    12.000000000000

  Nuclear repulsion =   19.096856089125669

  ==> Basis Set <==

  Basis Set: CC-PVTZ
    Blend: CC-PVTZ
    Number of shells: 20
    Number of basis functions: 60
    Number of Cartesian functions: 70
    Spherical Harmonics?: true
    Max angular momentum: 3

  ==> DFJKGrad: Density-Fitted SCF Gradients <==

    Gradient:                    1
    J tasked:                  Yes
    K tasked:                  Yes
    wK tasked:                  No
    OpenMP threads:              1
    Integrals threads:           1
    Memory [MiB]:              375
    Schwarz Cutoff:          1E-12
    Fitting Condition:       1E-10

   => Auxiliary Basis Set <=

  Basis Set: (CC-PVTZ AUX)
    Blend: CC-PVTZ-JKFIT
    Number of shells: 50
    Number of basis functions: 158
    Number of Cartesian functions: 192
    Spherical Harmonics?: true
    Max angular momentum: 4

  ==> DFT Potential <==

   => LibXC <=

    Version 6.2.2
    S. Lehtola, C. Steigemann, M. J.T. Oliveira, and M. A.L. Marques.,  SoftwareX 7, 1–5 (2018) (10.1016/j.softx.2017.11.002)

   => Composite Functional: B3LYP <= 

    B3LYP Hyb-GGA Exchange-Correlation Functional

    P. J. Stephens, F. J. Devlin, C. F. Chabalowski, and M. J. Frisch.,  J. Phys. Chem. 98, 11623 (1994) (10.1021/j100096a001)

    Deriv               =              1
    GGA                 =           TRUE
    Meta                =          FALSE

    Exchange Hybrid     =           TRUE
    MP2 Hybrid          =          FALSE

   => Exchange Functionals <=

    0.0800   Slater exchange
    0.7200         Becke 88

   => Exact (HF) Exchange <=

    0.2000               HF 

   => Correlation Functionals <=

    0.1900   Vosko, Wilk & Nusair (VWN5_RPA)
    0.8100   Lee, Yang & Parr

   => LibXC Density Thresholds  <==

    XC_HYB_GGA_XC_B3LYP:  1.00E-15 

   => Molecular Quadrature <=

    Radial Scheme          =       TREUTLER
    Pruning Scheme         =           NONE
    Nuclear Scheme         =       TREUTLER

    Blocking Scheme        =         OCTREE
    BS radius alpha        =              1
    Pruning alpha          =              1
    Radial Points          =             75
    Spherical Points       =            302
    Total Points           =          43234
    Total Blocks           =            390
    Max Points             =            256
    Max Functions          =             60
    Weights Tolerance      =       1.00E-15


  -Total Gradient:
     Atom            X                  Y                   Z
    ------   -----------------  -----------------  -----------------
       1        0.000000000000     0.000000000000    -0.002139420240
       2        0.000000000000    -0.000000000000     0.002140950152


*** tstop() called on Mac.lan at Sun Aug 10 17:12:13 2025
Module time:
	user time   =       3.74 seconds =       0.06 minutes
	system time =       0.26 seconds =       0.00 minutes
	total time  =          0 seconds =       0.00 minutes
Total time:
	user time   =      43.10 seconds =       0.72 minutes
	system time =       3.06 seconds =       0.05 minutes
	total time  =          4 seconds =       0.07 minutes

    			-----------------------------------------

    			 OPTKING 3.0: for geometry optimizations 

    			     By R.A. King, Bethel University     

    			        with contributions from          

    			    A.V. Copan, J. Cayton, A. Heide      

    			-----------------------------------------

    
	                            ===> Fragment 1 <== 

	 Z (Atomic Numbers)          Masses                          Geom                  
	       7.000000            14.003074          0.00000000  0.00000000 -1.01494841   
	       6.000000            12.000000          0.00000000  0.00000000  1.18436648   

	 - Coordinate -           - BOHR/RAD -       - ANG/DEG -
	 R(1,2)           =         2.199315           1.163827


	        --- Internal Coordinate Step in ANG or DEG, aJ/ANG or AJ/DEG ---
	-------------------------------------------------------------------------------
	           Coordinate      Previous         Force          Change          New 
	           ----------      --------        ------          ------        ------
	               R(1,2)       1.16383       -0.01763       -0.00104       1.16278
	-------------------------------------------------------------------------------

	                                 ==> Convergence Check <==                                  
    
	Measures of convergence in internal coordinates in au.
    
	Criteria marked as inactive (o), active & met (*), and active & unmet ( ).

	----------------------------------------------------------------------------------------------
	   Step    Total Energy     Delta E     Max Force     RMS Force      Max Disp      RMS Disp   
	----------------------------------------------------------------------------------------------
	  Convergence Criteria     1.00e-06 *    3.00e-04 *             o    1.20e-03 *             o
	----------------------------------------------------------------------------------------------
	     2     -92.74577391   -2.98e-04      2.14e-03      2.14e-03 o    1.97e-03      1.97e-03 o  ~
	----------------------------------------------------------------------------------------------

Next Geometry in Ang 
	Fragment 1 (Ang)

	    N   0.0000000000   0.0000000000  -0.5365653085
	    C   0.0000000000   0.0000000000   0.6262174877


    Structure for next step:
    Molecular point group: c2v
    Full point group: C_inf_v

    Geometry (in Angstrom), charge = 0, multiplicity = 2:

    N            0.000000000000     0.000000000000    -0.536605539466
    C            0.000000000000     0.000000000000     0.626177256694


Scratch directory: /tmp/
gradient() will perform analytic gradient computation.
   => Libint2 <=

    Primary   basis highest AM E, G, H:  6, 6, 3
    Auxiliary basis highest AM E, G, H:  7, 7, 4
    Onebody   basis highest AM E, G, H:  -, -, -
    Solid Harmonics ordering:            Gaussian

*** tstart() called on Mac.lan
*** at Sun Aug 10 17:12:13 2025

   => Loading Basis Set <=

    Name: CC-PVTZ
    Role: ORBITAL
    Keyword: BASIS
    atoms 1 entry N          line   224 file /Users/joseantoniorodriguesromero/anaconda3/share/psi4/basis/cc-pvtz.gbs 
    atoms 2 entry C          line   186 file /Users/joseantoniorodriguesromero/anaconda3/share/psi4/basis/cc-pvtz.gbs 


         ---------------------------------------------------------
                                   SCF
               by Justin Turney, Rob Parrish, Andy Simmonett
                          and Daniel G. A. Smith
                              UKS Reference
                        1 Threads,    500 MiB Core
         ---------------------------------------------------------

  ==> Geometry <==

    Molecular point group: c2v
    Full point group: C_inf_v

    Geometry (in Angstrom), charge = 0, multiplicity = 2:

       Center              X                  Y                   Z               Mass       
    ------------   -----------------  -----------------  -----------------  -----------------
         N            0.000000000000     0.000000000000    -0.536605539466    14.003074004430
         C            0.000000000000     0.000000000000     0.626177256694    12.000000000000

  Running in c2v symmetry.

  Rotational constants: A = ************  B =      1.92939  C =      1.92939 [cm^-1]
  Rotational constants: A = ************  B =  57841.56914  C =  57841.56914 [MHz]
  Nuclear repulsion =   19.114010734876061

  Charge       = 0
  Multiplicity = 2
  Electrons    = 13
  Nalpha       = 7
  Nbeta        = 6

  ==> Algorithm <==

  SCF Algorithm Type is DF.
  DIIS enabled.
  MOM disabled.
  Fractional occupation disabled.
  Guess Type is READ.
  Energy threshold   = 1.00e-08
  Density threshold  = 1.00e-08
  Integral threshold = 1.00e-12

  ==> Primary Basis <==

  Basis Set: CC-PVTZ
    Blend: CC-PVTZ
    Number of shells: 20
    Number of basis functions: 60
    Number of Cartesian functions: 70
    Spherical Harmonics?: true
    Max angular momentum: 3

  ==> DFT Potential <==

   => LibXC <=

    Version 6.2.2
    S. Lehtola, C. Steigemann, M. J.T. Oliveira, and M. A.L. Marques.,  SoftwareX 7, 1–5 (2018) (10.1016/j.softx.2017.11.002)

   => Composite Functional: B3LYP <= 

    B3LYP Hyb-GGA Exchange-Correlation Functional

    P. J. Stephens, F. J. Devlin, C. F. Chabalowski, and M. J. Frisch.,  J. Phys. Chem. 98, 11623 (1994) (10.1021/j100096a001)

    Deriv               =              1
    GGA                 =           TRUE
    Meta                =          FALSE

    Exchange Hybrid     =           TRUE
    MP2 Hybrid          =          FALSE

   => Exchange Functionals <=

    0.0800   Slater exchange
    0.7200         Becke 88

   => Exact (HF) Exchange <=

    0.2000               HF 

   => Correlation Functionals <=

    0.1900   Vosko, Wilk & Nusair (VWN5_RPA)
    0.8100   Lee, Yang & Parr

   => LibXC Density Thresholds  <==

    XC_HYB_GGA_XC_B3LYP:  1.00E-15 

   => Molecular Quadrature <=

    Radial Scheme          =       TREUTLER
    Pruning Scheme         =           NONE
    Nuclear Scheme         =       TREUTLER

    Blocking Scheme        =         OCTREE
    BS radius alpha        =              1
    Pruning alpha          =              1
    Radial Points          =             75
    Spherical Points       =            302
    Total Points           =          43234
    Total Blocks           =            390
    Max Points             =            256
    Max Functions          =             60
    Weights Tolerance      =       1.00E-15

   => Loading Basis Set <=

    Name: (CC-PVTZ AUX)
    Role: JKFIT
    Keyword: DF_BASIS_SCF
    atoms 1 entry N          line   177 file /Users/joseantoniorodriguesromero/anaconda3/share/psi4/basis/cc-pvtz-jkfit.gbs 
    atoms 2 entry C          line   125 file /Users/joseantoniorodriguesromero/anaconda3/share/psi4/basis/cc-pvtz-jkfit.gbs 

   => Loading Basis Set <=

    Name: CC-PVTZ
    Role: ORBITAL
    Keyword: BASIS
    atoms 1 entry N          line   224 file /Users/joseantoniorodriguesromero/anaconda3/share/psi4/basis/cc-pvtz.gbs 
    atoms 2 entry C          line   186 file /Users/joseantoniorodriguesromero/anaconda3/share/psi4/basis/cc-pvtz.gbs 

  Reading orbitals from file /tmp/scan_CN.default.48463.180.npy, no projection.

  ==> Integral Setup <==

  DFHelper Memory: AOs need 0.005 GiB; user supplied 0.294 GiB. 
  Using in-core AOs.

  ==> MemDFJK: Density-Fitted J/K Matrices <==

    J tasked:                   Yes
    K tasked:                   Yes
    wK tasked:                   No
    OpenMP threads:               1
    Memory [MiB]:               300
    Algorithm:                 Core
    Schwarz Cutoff:           1E-12
    Mask sparsity (%):       0.0000
    Fitting Condition:        1E-10

   => Auxiliary Basis Set <=

  Basis Set: (CC-PVTZ AUX)
    Blend: CC-PVTZ-JKFIT
    Number of shells: 50
    Number of basis functions: 158
    Number of Cartesian functions: 192
    Spherical Harmonics?: true
    Max angular momentum: 4

  Cached 100.0% of DFT collocation blocks in 0.072 [GiB].

  Minimum eigenvalue in the overlap matrix is 1.8661274006E-03.
  Reciprocal condition number of the overlap matrix is 4.5431713119E-04.
    Using symmetric orthogonalization.

  ==> Pre-Iterations <==

  SCF Guess: Orbitals guess was supplied from a previous computation.

   -------------------------------------------------------
    Irrep   Nso     Nmo     Nalpha   Nbeta   Ndocc  Nsocc
   -------------------------------------------------------
     A1        26      26       5       4       4       1
     A2         6       6       0       0       0       0
     B1        14      14       1       1       1       0
     B2        14      14       1       1       1       0
   -------------------------------------------------------
    Total      60      60       7       6       6       1
   -------------------------------------------------------

  ==> Iterations <==

                           Total Energy        Delta E     RMS |[F,P]|

   @DF-UKS iter   0:   -92.74643084856339   -9.27464e+01   1.13426e-04 
   @DF-UKS iter   1:   -92.74577555965244    6.55289e-04   2.43712e-05 DIIS
   @DF-UKS iter   2:   -92.74577404512296    1.51453e-06   6.36569e-05 DIIS/DAMP=1%
   @DF-UKS iter   3:   -92.74580128701680   -2.72419e-05   1.06932e-05 DIIS/DAMP=1%
   @DF-UKS iter   4:   -92.74577886228552    2.24247e-05   3.11712e-06 DIIS/DAMP=1%
   @DF-UKS iter   5:   -92.74577663185252    2.23043e-06   6.52241e-07 DIIS/DAMP=1%
   @DF-UKS iter   6:   -92.74577602074376    6.11109e-07   3.50297e-07 DIIS/DAMP=1%
   @DF-UKS iter   7:   -92.74577589456365    1.26180e-07   9.31280e-08 DIIS/DAMP=1%
   @DF-UKS iter   8:   -92.74577594182561   -4.72620e-08   3.82901e-08 DIIS/DAMP=1%
   @DF-UKS iter   9:   -92.74577593103469    1.07909e-08   3.90162e-09 DIIS/DAMP=1%
   @DF-UKS iter  10:   -92.74577593891038   -7.87570e-09   7.25690e-10 DIIS/DAMP=1%
  Energy and wave function converged.


  ==> Post-Iterations <==

   Electrons on quadrature grid:
      Nalpha   =    7.0000000313 ; deviation = 3.126e-08
      Nbeta    =    6.0000000356 ; deviation = 3.561e-08
      Ntotal   =   13.0000000669 ; deviation = 6.687e-08 

   @Spin Contamination Metric:   7.969227087E-03
   @S^2 Expected:                7.500000000E-01
   @S^2 Observed:                7.579692271E-01
   @S   Expected:                5.000000000E-01
   @S   Observed:                5.000000000E-01

    Orbital Energies [Eh]
    ---------------------

    Alpha Occupied:                                                       

       1A1   -14.388269     2A1   -10.295684     3A1    -0.966632  
       4A1    -0.504338     5A1    -0.412459     1B1    -0.395585  
       1B2    -0.395585  

    Alpha Virtual:                                                        

       2B1    -0.017077     2B2    -0.017077     6A1     0.165949  
       7A1     0.267027     3B2     0.281138     3B1     0.281138  
       8A1     0.437481     4B1     0.514485     4B2     0.514485  
       9A1     0.599468    10A1     0.618939     1A2     0.618939  
       5B1     0.821538     5B2     0.821538    11A1     0.881685  
       2A2     1.158954    12A1     1.158954    13A1     1.273935  
       6B1     1.506971     6B2     1.506971    14A1     1.746497  
       7B1     1.958865     7B2     1.958865    15A1     2.189631  
       8B2     2.615718     8B1     2.615718    16A1     2.705913  
       3A2     2.705913    17A1     2.734387     9B2     2.784078  
       9B1     2.784078    10B2     2.908964    10B1     2.908964  
      18A1     2.909931     4A2     2.909932    19A1     3.097106  
      11B1     3.399173    11B2     3.399173    20A1     3.886531  
      12B2     3.924408    12B1     3.924408     5A2     4.392893  
      21A1     4.392895     6A2     4.539983    22A1     4.539987  
      13B1     4.793510    13B2     4.793510    23A1     4.956774  
      24A1     5.321809    14B1     5.530032    14B2     5.530032  
      25A1     5.945910    26A1    12.539804  

    Beta Occupied:                                                        

       1A1   -14.383652     2A1   -10.279838     3A1    -0.943923  
       4A1    -0.437944     1B1    -0.386986     1B2    -0.386986  

    Beta Virtual:                                                         

       5A1    -0.253389     2B1     0.004779     2B2     0.004779  
       6A1     0.173104     3B2     0.290732     3B1     0.290732  
       7A1     0.306877     8A1     0.448653     4B1     0.516169  
       4B2     0.516169     9A1     0.629299     1A2     0.629299  
      10A1     0.645710     5B1     0.851594     5B2     0.851594  
      11A1     0.893286     2A2     1.161133    12A1     1.161133  
      13A1     1.311385     6B1     1.523645     6B2     1.523645  
      14A1     1.773171     7B1     1.973733     7B2     1.973733  
      15A1     2.240013     8B2     2.632303     8B1     2.632303  
       3A2     2.721880    16A1     2.721880    17A1     2.775627  
       9B2     2.820136     9B1     2.820136    10B2     2.945954  
      10B1     2.945954    18A1     2.951434     4A2     2.951434  
      19A1     3.176225    11B1     3.435352    11B2     3.435352  
      12B2     3.919609    12B1     3.919609    20A1     3.921037  
       5A2     4.392645    21A1     4.392647     6A2     4.546830  
      22A1     4.546834    13B1     4.816653    13B2     4.816653  
      23A1     4.994291    24A1     5.350980    14B1     5.555851  
      14B2     5.555851    25A1     5.960456    26A1    12.560190  

    Final Occupation by Irrep:
             A1    A2    B1    B2 
    DOCC [     4,    0,    1,    1 ]
    SOCC [     1,    0,    0,    0 ]
    NA   [     5,    0,    1,    1 ]
    NB   [     4,    0,    1,    1 ]

  @DF-UKS Final Energy:   -92.74577593891038

   => Energetics <=

    Nuclear Repulsion Energy =             19.1140107348760608
    One-Electron Energy =                -162.4584924804125876
    Two-Electron Energy =                  60.4349544884618979
    DFT Exchange-Correlation Energy =      -9.8362486818357482
    Empirical Dispersion Energy =           0.0000000000000000
    VV10 Nonlocal Energy =                  0.0000000000000000
    Total Energy =                        -92.7457759389103842

  UHF NO Occupations:
  HONO-2 :    1 B2 1.9986174
  HONO-1 :    1 B1 1.9986174
  HONO-0 :    5 A1 1.0000000
  LUNO+0 :    2 B2 0.0013826
  LUNO+1 :    2 B1 0.0013826
  LUNO+2 :    6 A1 0.0011251
  LUNO+3 :    7 A1 0.0000964


Computation Completed


Properties will be evaluated at   0.000000,   0.000000,   0.000000 [a0]

Properties computed using the SCF density matrix


 Multipole Moments:

 ------------------------------------------------------------------------------------
     Multipole            Electronic (a.u.)      Nuclear  (a.u.)        Total (a.u.)
 ------------------------------------------------------------------------------------

 L = 1.  Multiply by 2.5417464519 to convert [e a0] to [Debye]
 Dipole X            :          0.0000000            0.0000000            0.0000000
 Dipole Y            :          0.0000000            0.0000000            0.0000000
 Dipole Z            :          0.5186509            0.0015586            0.5202095
 Magnitude           :                                                    0.5202095

 ------------------------------------------------------------------------------------

*** tstop() called on Mac.lan at Sun Aug 10 17:12:14 2025
Module time:
	user time   =      13.36 seconds =       0.22 minutes
	system time =       1.06 seconds =       0.02 minutes
	total time  =          1 seconds =       0.02 minutes
Total time:
	user time   =      56.72 seconds =       0.95 minutes
	system time =       4.12 seconds =       0.07 minutes
	total time  =          5 seconds =       0.08 minutes

*** tstart() called on Mac.lan
*** at Sun Aug 10 17:12:14 2025


         ------------------------------------------------------------
                                   SCF GRAD                          
                          Rob Parrish, Justin Turney,                
                       Andy Simmonett, and Alex Sokolov              
         ------------------------------------------------------------

  ==> Geometry <==

    Molecular point group: c2v
    Full point group: C_inf_v

    Geometry (in Angstrom), charge = 0, multiplicity = 2:

       Center              X                  Y                   Z               Mass       
    ------------   -----------------  -----------------  -----------------  -----------------
         N            0.000000000000     0.000000000000    -0.536605539466    14.003074004430
         C            0.000000000000     0.000000000000     0.626177256694    12.000000000000

  Nuclear repulsion =   19.114010734876061

  ==> Basis Set <==

  Basis Set: CC-PVTZ
    Blend: CC-PVTZ
    Number of shells: 20
    Number of basis functions: 60
    Number of Cartesian functions: 70
    Spherical Harmonics?: true
    Max angular momentum: 3

  ==> DFJKGrad: Density-Fitted SCF Gradients <==

    Gradient:                    1
    J tasked:                  Yes
    K tasked:                  Yes
    wK tasked:                  No
    OpenMP threads:              1
    Integrals threads:           1
    Memory [MiB]:              375
    Schwarz Cutoff:          1E-12
    Fitting Condition:       1E-10

   => Auxiliary Basis Set <=

  Basis Set: (CC-PVTZ AUX)
    Blend: CC-PVTZ-JKFIT
    Number of shells: 50
    Number of basis functions: 158
    Number of Cartesian functions: 192
    Spherical Harmonics?: true
    Max angular momentum: 4

  ==> DFT Potential <==

   => LibXC <=

    Version 6.2.2
    S. Lehtola, C. Steigemann, M. J.T. Oliveira, and M. A.L. Marques.,  SoftwareX 7, 1–5 (2018) (10.1016/j.softx.2017.11.002)

   => Composite Functional: B3LYP <= 

    B3LYP Hyb-GGA Exchange-Correlation Functional

    P. J. Stephens, F. J. Devlin, C. F. Chabalowski, and M. J. Frisch.,  J. Phys. Chem. 98, 11623 (1994) (10.1021/j100096a001)

    Deriv               =              1
    GGA                 =           TRUE
    Meta                =          FALSE

    Exchange Hybrid     =           TRUE
    MP2 Hybrid          =          FALSE

   => Exchange Functionals <=

    0.0800   Slater exchange
    0.7200         Becke 88

   => Exact (HF) Exchange <=

    0.2000               HF 

   => Correlation Functionals <=

    0.1900   Vosko, Wilk & Nusair (VWN5_RPA)
    0.8100   Lee, Yang & Parr

   => LibXC Density Thresholds  <==

    XC_HYB_GGA_XC_B3LYP:  1.00E-15 

   => Molecular Quadrature <=

    Radial Scheme          =       TREUTLER
    Pruning Scheme         =           NONE
    Nuclear Scheme         =       TREUTLER

    Blocking Scheme        =         OCTREE
    BS radius alpha        =              1
    Pruning alpha          =              1
    Radial Points          =             75
    Spherical Points       =            302
    Total Points           =          43234
    Total Blocks           =            390
    Max Points             =            256
    Max Functions          =             60
    Weights Tolerance      =       1.00E-15


  -Total Gradient:
     Atom            X                  Y                   Z
    ------   -----------------  -----------------  -----------------
       1        0.000000000000     0.000000000000     0.000091889423
       2       -0.000000000000     0.000000000000    -0.000090313748


*** tstop() called on Mac.lan at Sun Aug 10 17:12:15 2025
Module time:
	user time   =       3.56 seconds =       0.06 minutes
	system time =       0.70 seconds =       0.01 minutes
	total time  =          1 seconds =       0.02 minutes
Total time:
	user time   =      60.29 seconds =       1.00 minutes
	system time =       4.82 seconds =       0.08 minutes
	total time  =          6 seconds =       0.10 minutes

    			-----------------------------------------

    			 OPTKING 3.0: for geometry optimizations 

    			     By R.A. King, Bethel University     

    			        with contributions from          

    			    A.V. Copan, J. Cayton, A. Heide      

    			-----------------------------------------

    
	                            ===> Fragment 1 <== 

	 Z (Atomic Numbers)          Masses                          Geom                  
	       7.000000            14.003074          0.00000000  0.00000000 -1.01403751   
	       6.000000            12.000000          0.00000000  0.00000000  1.18330352   

	 - Coordinate -           - BOHR/RAD -       - ANG/DEG -
	 R(1,2)           =         2.197341           1.162783


	        --- Internal Coordinate Step in ANG or DEG, aJ/ANG or AJ/DEG ---
	-------------------------------------------------------------------------------
	           Coordinate      Previous         Force          Change          New 
	           ----------      --------        ------          ------        ------
	               R(1,2)       1.16278        0.00075        0.00004       1.16283
	-------------------------------------------------------------------------------

	                                 ==> Convergence Check <==                                  
    
	Measures of convergence in internal coordinates in au.
    
	Criteria marked as inactive (o), active & met (*), and active & unmet ( ).

	----------------------------------------------------------------------------------------------
	   Step    Total Energy     Delta E     Max Force     RMS Force      Max Disp      RMS Disp   
	----------------------------------------------------------------------------------------------
	  Convergence Criteria     1.00e-06 *    3.00e-04 *             o    1.20e-03 *             o
	----------------------------------------------------------------------------------------------
	     3     -92.74577594   -2.03e-06      9.11e-05 *    9.11e-05 o    8.37e-05 *    8.37e-05 o  ~
	----------------------------------------------------------------------------------------------

Next Geometry in Ang 
	Fragment 1 (Ang)

	    N   0.0000000000   0.0000000000  -0.5366276912
	    C   0.0000000000   0.0000000000   0.6261994084


    Final optimized geometry and variables:
    Molecular point group: c2v
    Full point group: C_inf_v

    Geometry (in Angstrom), charge = 0, multiplicity = 2:

    N            0.000000000000     0.000000000000    -0.536605539466
    C            0.000000000000     0.000000000000     0.626177256694


         ----------------------------------------------------------
                                   FINDIF
                     R. A. King and Jonathon Misiewicz
         ----------------------------------------------------------

  Using finite-differences of gradients to determine vibrational frequencies and 
  normal modes. Resulting frequencies are only valid at stationary points.
    Generating geometries for use with 3-point formula.
    Displacement size will be 5.00e-03.
    Number of atoms is 2.
    Number of irreps is 4.
    Number of SALCs is 3.
    Translations projected? 1. Rotations projected? 0.
    Index of SALCs per irrep:
      1 :  0 
      2 : 
      3 :  1 
      4 :  2 
    Number of SALCs per irrep:
      Irrep 1: 1
      Irrep 2: 0
      Irrep 3: 1
      Irrep 4: 1
    Number of geometries (including reference) is 5.
    Number of displacements per irrep:
      Irrep 1: 2
      Irrep 2: 0
      Irrep 3: 1
      Irrep 4: 1
 5 displacements needed ...

  //>>>>>>>>>>>>>>>>>>>>>>>>>>>>>>>>>>>//
  //    FiniteDifference Computations  //
  //<<<<<<<<<<<<<<<<<<<<<<<<<<<<<<<<<<<//


    -----------------------------------------------------------------------
          Psi4: An Open-Source Ab Initio Electronic Structure Package
                               Psi4 1.9.1 release

                         Git: Rev {} zzzzzzz 


    D. G. A. Smith, L. A. Burns, A. C. Simmonett, R. M. Parrish,
    M. C. Schieber, R. Galvelis, P. Kraus, H. Kruse, R. Di Remigio,
    A. Alenaizan, A. M. James, S. Lehtola, J. P. Misiewicz, M. Scheurer,
    R. A. Shaw, J. B. Schriber, Y. Xie, Z. L. Glick, D. A. Sirianni,
    J. S. O'Brien, J. M. Waldrop, A. Kumar, E. G. Hohenstein,
    B. P. Pritchard, B. R. Brooks, H. F. Schaefer III, A. Yu. Sokolov,
    K. Patkowski, A. E. DePrince III, U. Bozkaya, R. A. King,
    F. A. Evangelista, J. M. Turney, T. D. Crawford, C. D. Sherrill,
    J. Chem. Phys. 152(18) 184108 (2020). https://doi.org/10.1063/5.0006002

                            Additional Code Authors
    E. T. Seidl, C. L. Janssen, E. F. Valeev, M. L. Leininger,
    J. F. Gonthier, R. M. Richard, H. R. McAlexander, M. Saitow, X. Wang,
    P. Verma, M. H. Lechner, A. Jiang, S. Behnle, A. G. Heide,
    M. F. Herbst, and D. L. Poole

             Previous Authors, Complete List of Code Contributors,
                       and Citations for Specific Modules
    https://github.com/psi4/psi4/blob/master/codemeta.json
    https://github.com/psi4/psi4/graphs/contributors
    http://psicode.org/psi4manual/master/introduction.html#citing-psifour

    -----------------------------------------------------------------------


    Psi4 started on: Sunday, 10 August 2025 05:12PM

    Process ID: 48463
    Host:       Mac.lan
    PSIDATADIR: /Users/joseantoniorodriguesromero/anaconda3/share/psi4
    Memory:     500.0 MiB
    Threads:    1
    
  ==> Input QCSchema <==

--------------------------------------------------------------------------
{'driver': 'gradient',
 'extras': {'psiapi': True, 'wfn_qcvars_only': True},
 'id': None,
 'keywords': {'DAMPING_PERCENTAGE': 1.0,
              'DIIS_MAX_VECS': 400,
              'D_CONVERGENCE': 1e-08,
              'E_CONVERGENCE': 1e-08,
              'GUESS': 'SAP',
              'MAXITER': 500,
              'MBIS_MAXITER': 8000,
              'PARENT_SYMMETRY': 'C2v(Z)',
              'REFERENCE': 'UKS',
              'function_kwargs': {}},
 'model': {'basis': 'cc-pvtz', 'method': 'b3lyp'},
 'molecule': {'atom_labels': ['', ''],
              'atomic_numbers': [7, 6],
              'extras': {},
              'fix_com': True,
              'fix_orientation': True,
              'fragment_charges': [0.0],
              'fragment_multiplicities': [2],
              'fragments': [[0, 1]],
              'geometry': [0.0, 0.0, -1.0140375069945748, 0.0, 0.0, 1.1833035211427276],
              'mass_numbers': [14, 12],
              'masses': [14.00307400443, 12.0],
              'molecular_charge': 0.0,
              'molecular_multiplicity': 2,
              'name': 'CN',
              'provenance': {'creator': 'QCElemental',
                             'routine': 'qcelemental.molparse.from_string',
                             'version': '0.28.0'},
              'real': [True, True],
              'schema_name': 'qcschema_molecule',
              'schema_version': 2,
              'symbols': ['N', 'C'],
              'validated': True},
 'protocols': {'stdout': True},
 'provenance': {'creator': 'QCElemental', 'routine': 'qcelemental.models.results', 'version': '0.28.0'},
 'schema_name': 'qcschema_input',
 'schema_version': 1}
--------------------------------------------------------------------------

Scratch directory: /tmp/
gradient() will perform analytic gradient computation.
   => Libint2 <=

    Primary   basis highest AM E, G, H:  6, 6, 3
    Auxiliary basis highest AM E, G, H:  7, 7, 4
    Onebody   basis highest AM E, G, H:  -, -, -
    Solid Harmonics ordering:            Gaussian

*** tstart() called on Mac.lan
*** at Sun Aug 10 17:12:15 2025

   => Loading Basis Set <=

    Name: CC-PVTZ
    Role: ORBITAL
    Keyword: BASIS
    atoms 1 entry N          line   224 file /Users/joseantoniorodriguesromero/anaconda3/share/psi4/basis/cc-pvtz.gbs 
    atoms 2 entry C          line   186 file /Users/joseantoniorodriguesromero/anaconda3/share/psi4/basis/cc-pvtz.gbs 


         ---------------------------------------------------------
                                   SCF
               by Justin Turney, Rob Parrish, Andy Simmonett
                          and Daniel G. A. Smith
                              UKS Reference
                        1 Threads,    500 MiB Core
         ---------------------------------------------------------

  ==> Geometry <==

    Molecular point group: c2v
    Full point group: C_inf_v

    Geometry (in Bohr), charge = 0, multiplicity = 2:

       Center              X                  Y                   Z               Mass       
    ------------   -----------------  -----------------  -----------------  -----------------
         N            0.000000000000     0.000000000000    -1.014037506995    14.003074004430
         C            0.000000000000     0.000000000000     1.183303521143    12.000000000000

  Running in c2v symmetry.

  Rotational constants: A = ************  B =      1.92939  C =      1.92939 [cm^-1]
  Rotational constants: A = ************  B =  57841.56914  C =  57841.56914 [MHz]
  Nuclear repulsion =   19.114010734876061

  Charge       = 0
  Multiplicity = 2
  Electrons    = 13
  Nalpha       = 7
  Nbeta        = 6

  ==> Algorithm <==

  SCF Algorithm Type is DF.
  DIIS enabled.
  MOM disabled.
  Fractional occupation disabled.
  Guess Type is SAP.
  Energy threshold   = 1.00e-08
  Density threshold  = 1.00e-08
  Integral threshold = 1.00e-12

  ==> Primary Basis <==

  Basis Set: CC-PVTZ
    Blend: CC-PVTZ
    Number of shells: 20
    Number of basis functions: 60
    Number of Cartesian functions: 70
    Spherical Harmonics?: true
    Max angular momentum: 3

  ==> DFT Potential <==

   => LibXC <=

    Version 6.2.2
    S. Lehtola, C. Steigemann, M. J.T. Oliveira, and M. A.L. Marques.,  SoftwareX 7, 1–5 (2018) (10.1016/j.softx.2017.11.002)

   => Composite Functional: B3LYP <= 

    B3LYP Hyb-GGA Exchange-Correlation Functional

    P. J. Stephens, F. J. Devlin, C. F. Chabalowski, and M. J. Frisch.,  J. Phys. Chem. 98, 11623 (1994) (10.1021/j100096a001)

    Deriv               =              1
    GGA                 =           TRUE
    Meta                =          FALSE

    Exchange Hybrid     =           TRUE
    MP2 Hybrid          =          FALSE

   => Exchange Functionals <=

    0.0800   Slater exchange
    0.7200         Becke 88

   => Exact (HF) Exchange <=

    0.2000               HF 

   => Correlation Functionals <=

    0.1900   Vosko, Wilk & Nusair (VWN5_RPA)
    0.8100   Lee, Yang & Parr

   => LibXC Density Thresholds  <==

    XC_HYB_GGA_XC_B3LYP:  1.00E-15 

   => Molecular Quadrature <=

    Radial Scheme          =       TREUTLER
    Pruning Scheme         =           NONE
    Nuclear Scheme         =       TREUTLER

    Blocking Scheme        =         OCTREE
    BS radius alpha        =              1
    Pruning alpha          =              1
    Radial Points          =             75
    Spherical Points       =            302
    Total Points           =          43234
    Total Blocks           =            390
    Max Points             =            256
    Max Functions          =             60
    Weights Tolerance      =       1.00E-15

   => Loading Basis Set <=

    Name: (CC-PVTZ AUX)
    Role: JKFIT
    Keyword: DF_BASIS_SCF
    atoms 1 entry N          line   177 file /Users/joseantoniorodriguesromero/anaconda3/share/psi4/basis/cc-pvtz-jkfit.gbs 
    atoms 2 entry C          line   125 file /Users/joseantoniorodriguesromero/anaconda3/share/psi4/basis/cc-pvtz-jkfit.gbs 

  ==> Integral Setup <==

  DFHelper Memory: AOs need 0.005 GiB; user supplied 0.294 GiB. 
  Using in-core AOs.

  ==> MemDFJK: Density-Fitted J/K Matrices <==

    J tasked:                   Yes
    K tasked:                   Yes
    wK tasked:                   No
    OpenMP threads:               1
    Memory [MiB]:               300
    Algorithm:                 Core
    Schwarz Cutoff:           1E-12
    Mask sparsity (%):       0.0000
    Fitting Condition:        1E-10

   => Auxiliary Basis Set <=

  Basis Set: (CC-PVTZ AUX)
    Blend: CC-PVTZ-JKFIT
    Number of shells: 50
    Number of basis functions: 158
    Number of Cartesian functions: 192
    Spherical Harmonics?: true
    Max angular momentum: 4

  Cached 100.0% of DFT collocation blocks in 0.072 [GiB].

  Minimum eigenvalue in the overlap matrix is 1.8661274006E-03.
  Reciprocal condition number of the overlap matrix is 4.5431713119E-04.
    Using symmetric orthogonalization.

  ==> Pre-Iterations <==

  SCF Guess: Superposition of Atomic Potentials (doi:10.1021/acs.jctc.8b01089).

  ==> SAP guess <==

   => Molecular Quadrature <=

    Radial Scheme          =       TREUTLER
    Pruning Scheme         =           NONE
    Nuclear Scheme         =       TREUTLER

    Blocking Scheme        =         OCTREE
    BS radius alpha        =              1
    Pruning alpha          =              1
    Radial Points          =             75
    Spherical Points       =            302
    Total Points           =          43234
    Total Blocks           =            390
    Max Points             =            256
    Max Functions          =             60
    Weights Tolerance      =       1.00E-15

   -------------------------------------------------------
    Irrep   Nso     Nmo     Nalpha   Nbeta   Ndocc  Nsocc
   -------------------------------------------------------
     A1        26      26       5       4       4       1
     A2         6       6       0       0       0       0
     B1        14      14       1       1       1       0
     B2        14      14       1       1       1       0
   -------------------------------------------------------
    Total      60      60       7       6       6       1
   -------------------------------------------------------

  ==> Iterations <==

                           Total Energy        Delta E     RMS |[F,P]|

   @DF-UKS iter   1:   -92.44438278639279   -9.24444e+01   2.56701e-02 DIIS/ADIIS
   @DF-UKS iter   2:   -91.20273133429183    1.24165e+00   4.95690e-02 DIIS/ADIIS/DAMP=1%
   @DF-UKS iter   3:   -92.68230330554539   -1.47957e+00   8.47514e-03 DIIS/ADIIS/DAMP=1%
   @DF-UKS iter   4:   -92.73571317230481   -5.34099e-02   3.14604e-03 DIIS/ADIIS/DAMP=1%
   @DF-UKS iter   5:   -92.74642713720320   -1.07140e-02   6.46742e-04 DIIS/ADIIS/DAMP=1%
   @DF-UKS iter   6:   -92.74557093910070    8.56198e-04   2.44043e-04 DIIS/ADIIS/DAMP=1%
   @DF-UKS iter   7:   -92.74571499043024   -1.44051e-04   3.13845e-05 DIIS/DAMP=1%
   @DF-UKS iter   8:   -92.74577320800272   -5.82176e-05   1.47712e-05 DIIS/DAMP=1%
   @DF-UKS iter   9:   -92.74577265598441    5.52018e-07   1.90889e-06 DIIS/DAMP=1%
   @DF-UKS iter  10:   -92.74577623871615   -3.58273e-06   1.48601e-06 DIIS/DAMP=1%
   @DF-UKS iter  11:   -92.74577550755600    7.31160e-07   1.81564e-07 DIIS/DAMP=1%
   @DF-UKS iter  12:   -92.74577602100382   -5.13448e-07   1.62412e-08 DIIS/DAMP=1%
   @DF-UKS iter  13:   -92.74577593989152    8.11123e-08   2.40509e-09 DIIS/DAMP=1%
   @DF-UKS iter  14:   -92.74577593828242    1.60910e-09   3.66675e-10 DIIS/DAMP=1%
  Energy and wave function converged.


  ==> Post-Iterations <==

   Electrons on quadrature grid:
      Nalpha   =    7.0000000313 ; deviation = 3.126e-08
      Nbeta    =    6.0000000356 ; deviation = 3.561e-08
      Ntotal   =   13.0000000669 ; deviation = 6.687e-08 

   @Spin Contamination Metric:   7.969228466E-03
   @S^2 Expected:                7.500000000E-01
   @S^2 Observed:                7.579692285E-01
   @S   Expected:                5.000000000E-01
   @S   Observed:                5.000000000E-01

    Orbital Energies [Eh]
    ---------------------

    Alpha Occupied:                                                       

       1A1   -14.388269     2A1   -10.295684     3A1    -0.966632  
       4A1    -0.504338     5A1    -0.412459     1B1    -0.395585  
       1B2    -0.395585  

    Alpha Virtual:                                                        

       2B1    -0.017077     2B2    -0.017077     6A1     0.165949  
       7A1     0.267027     3B1     0.281138     3B2     0.281138  
       8A1     0.437481     4B1     0.514485     4B2     0.514485  
       9A1     0.599468    10A1     0.618939     1A2     0.618939  
       5B1     0.821538     5B2     0.821538    11A1     0.881685  
       2A2     1.158954    12A1     1.158954    13A1     1.273935  
       6B2     1.506971     6B1     1.506971    14A1     1.746497  
       7B1     1.958865     7B2     1.958865    15A1     2.189631  
       8B2     2.615718     8B1     2.615718    16A1     2.705913  
       3A2     2.705913    17A1     2.734387     9B2     2.784078  
       9B1     2.784078    10B2     2.908964    10B1     2.908964  
      18A1     2.909931     4A2     2.909932    19A1     3.097106  
      11B2     3.399173    11B1     3.399173    20A1     3.886531  
      12B2     3.924408    12B1     3.924408     5A2     4.392893  
      21A1     4.392895     6A2     4.539983    22A1     4.539987  
      13B2     4.793510    13B1     4.793510    23A1     4.956774  
      24A1     5.321809    14B2     5.530032    14B1     5.530032  
      25A1     5.945910    26A1    12.539804  

    Beta Occupied:                                                        

       1A1   -14.383652     2A1   -10.279838     3A1    -0.943923  
       4A1    -0.437944     1B1    -0.386986     1B2    -0.386986  

    Beta Virtual:                                                         

       5A1    -0.253389     2B1     0.004779     2B2     0.004779  
       6A1     0.173104     3B1     0.290732     3B2     0.290732  
       7A1     0.306877     8A1     0.448653     4B1     0.516169  
       4B2     0.516169     9A1     0.629299     1A2     0.629299  
      10A1     0.645710     5B1     0.851594     5B2     0.851594  
      11A1     0.893286     2A2     1.161133    12A1     1.161133  
      13A1     1.311385     6B2     1.523645     6B1     1.523645  
      14A1     1.773171     7B1     1.973733     7B2     1.973733  
      15A1     2.240013     8B2     2.632303     8B1     2.632303  
       3A2     2.721880    16A1     2.721880    17A1     2.775627  
       9B2     2.820136     9B1     2.820136    10B2     2.945954  
      10B1     2.945954    18A1     2.951434     4A2     2.951434  
      19A1     3.176225    11B2     3.435352    11B1     3.435352  
      12B2     3.919609    12B1     3.919609    20A1     3.921037  
       5A2     4.392645    21A1     4.392647     6A2     4.546830  
      22A1     4.546834    13B2     4.816653    13B1     4.816653  
      23A1     4.994291    24A1     5.350980    14B2     5.555851  
      14B1     5.555851    25A1     5.960456    26A1    12.560190  

    Final Occupation by Irrep:
             A1    A2    B1    B2 
    DOCC [     4,    0,    1,    1 ]
    SOCC [     1,    0,    0,    0 ]
    NA   [     5,    0,    1,    1 ]
    NB   [     4,    0,    1,    1 ]

  @DF-UKS Final Energy:   -92.74577593828242

   => Energetics <=

    Nuclear Repulsion Energy =             19.1140107348760608
    One-Electron Energy =                -162.4584925079034292
    Two-Electron Energy =                  60.4349545186060055
    DFT Exchange-Correlation Energy =      -9.8362486838610472
    Empirical Dispersion Energy =           0.0000000000000000
    VV10 Nonlocal Energy =                  0.0000000000000000
    Total Energy =                        -92.7457759382824207

  UHF NO Occupations:
  HONO-2 :    1 B2 1.9986174
  HONO-1 :    1 B1 1.9986174
  HONO-0 :    5 A1 1.0000000
  LUNO+0 :    2 B2 0.0013826
  LUNO+1 :    2 B1 0.0013826
  LUNO+2 :    6 A1 0.0011251
  LUNO+3 :    7 A1 0.0000964


Computation Completed


Properties will be evaluated at   0.000000,   0.000000,   0.000000 [a0]

Properties computed using the SCF density matrix


 Multipole Moments:

 ------------------------------------------------------------------------------------
[...]
    Translational S                         35.703 [cal/(mol K)]      149.381 [J/(mol K)]       0.05689632 [mEh/K] (mol. weight = 26.0031 [u], P = 101325.00 [Pa])
    Rotational S                            11.281 [cal/(mol K)]       47.198 [J/(mol K)]       0.01797672 [mEh/K] (symmetry no. = 1)
    Vibrational S                            0.001 [cal/(mol K)]        0.003 [J/(mol K)]       0.00000111 [mEh/K]
  Total S                                   48.362 [cal/(mol K)]      202.345 [J/(mol K)]       0.07706921 [mEh/K]
  Correction S                               0.000 [cal/(mol K)]        0.000 [J/(mol K)]       0.00000000 [mEh/K]

  Constant volume heat capacity, Cv
    Electronic Cv                            0.000 [cal/(mol K)]        0.000 [J/(mol K)]       0.00000000 [mEh/K]
    Translational Cv                         2.981 [cal/(mol K)]       12.472 [J/(mol K)]       0.00475022 [mEh/K]
    Rotational Cv                            1.987 [cal/(mol K)]        8.314 [J/(mol K)]       0.00316681 [mEh/K]
    Vibrational Cv                           0.007 [cal/(mol K)]        0.028 [J/(mol K)]       0.00001048 [mEh/K]
  Total Cv                                   4.975 [cal/(mol K)]       20.814 [J/(mol K)]       0.00792751 [mEh/K]
  Correction Cv                              0.000 [cal/(mol K)]        0.000 [J/(mol K)]       0.00000000 [mEh/K]

  Constant pressure heat capacity, Cp
    Electronic Cp                            0.000 [cal/(mol K)]        0.000 [J/(mol K)]       0.00000000 [mEh/K]
    Translational Cp                         4.968 [cal/(mol K)]       20.786 [J/(mol K)]       0.00791703 [mEh/K]
    Rotational Cp                            1.987 [cal/(mol K)]        8.314 [J/(mol K)]       0.00316681 [mEh/K]
    Vibrational Cp                           0.007 [cal/(mol K)]        0.028 [J/(mol K)]       0.00001048 [mEh/K]
  Total Cp                                   6.962 [cal/(mol K)]       29.128 [J/(mol K)]       0.01109432 [mEh/K]
  Correction Cp                              0.000 [cal/(mol K)]        0.000 [J/(mol K)]       0.00000000 [mEh/K]

  ==> Thermochemistry Energy Analysis <==

  Raw electronic energy, E_e
  Total E_e, Electronic energy at well bottom                                           -92.74577594 [Eh]

  Zero-point vibrational energy, ZPVE = Sum_i omega_i / 2,  E_0 = E_e + ZPVE
    Vibrational ZPVE                         3.079 [kcal/mol]       12.882 [kJ/mol]       0.00490664 [Eh]        1076.882 [cm^-1]
  Correction ZPVE to E_e                     3.079 [kcal/mol]       12.882 [kJ/mol]       0.00490664 [Eh]        1076.882 [cm^-1]
  Total E_0, Enthalpy at 0 [K]                                                          -92.74086930 [Eh]
  *** Absolute enthalpy, not an enthalpy of formation ***

  Thermal (internal) energy, E (includes ZPVE and finite-temperature corrections)
    Electronic contrib to E beyond E_e       0.000 [kcal/mol]        0.000 [kJ/mol]       0.00000000 [Eh]
    Translational contrib to E               0.889 [kcal/mol]        3.718 [kJ/mol]       0.00141628 [Eh]
    Rotational contrib to E                  0.592 [kcal/mol]        2.479 [kJ/mol]       0.00094418 [Eh]
    Vibrational contrib to E                 3.079 [kcal/mol]       12.883 [kJ/mol]       0.00490694 [Eh]
  Correction E                               4.560 [kcal/mol]       19.081 [kJ/mol]       0.00726740 [Eh]
  Total E, Thermal (internal) energy at  298.15 [K]                                     -92.73850854 [Eh]

  Enthalpy, H_trans = E_trans + k_B * T = E_trans + P * V
    Electronic contrib to H beyond E_e       0.000 [kcal/mol]        0.000 [kJ/mol]       0.00000000 [Eh]
    Translational contrib to H               1.481 [kcal/mol]        6.197 [kJ/mol]       0.00236046 [Eh]
    Rotational contrib to H                  0.592 [kcal/mol]        2.479 [kJ/mol]       0.00094418 [Eh]
    Vibrational contrib to H                 3.079 [kcal/mol]       12.883 [kJ/mol]       0.00490694 [Eh]
  Correction H                               5.153 [kcal/mol]       21.560 [kJ/mol]       0.00821158 [Eh]
  Total H, Enthalpy at  298.15 [K]                                                      -92.73756436 [Eh]
  *** Absolute enthalpy, not an enthalpy of formation ***

  Gibbs free energy, G = H - T * S
    Electronic contrib to G beyond E_e      -0.411 [kcal/mol]       -1.718 [kJ/mol]      -0.00065446 [Eh]
    Translational contrib to G              -9.164 [kcal/mol]      -38.341 [kJ/mol]      -0.01460318 [Eh]
    Rotational contrib to G                 -2.771 [kcal/mol]      -11.593 [kJ/mol]      -0.00441557 [Eh]
    Vibrational contrib to G                 3.079 [kcal/mol]       12.882 [kJ/mol]       0.00490661 [Eh]
  Correction G                              -9.266 [kcal/mol]      -38.770 [kJ/mol]      -0.01476660 [Eh]
  Total G, Gibbs energy at  298.15 [K]                                                  -92.76054254 [Eh]
  *** Absolute Gibbs energy, not a free energy of formation ***


*** tstart() called on Mac.lan
*** at Sun Aug 10 17:12:27 2025

   => Libint2 <=

    Primary   basis highest AM E, G, H:  6, 6, 3
    Auxiliary basis highest AM E, G, H:  7, 7, 4
    Onebody   basis highest AM E, G, H:  -, -, -
    Solid Harmonics ordering:            Gaussian
   => Loading Basis Set <=

    Name: CC-PVTZ
    Role: ORBITAL
    Keyword: BASIS
    atoms 1 entry N          line   224 file /Users/joseantoniorodriguesromero/anaconda3/share/psi4/basis/cc-pvtz.gbs 
    atoms 2 entry C          line   186 file /Users/joseantoniorodriguesromero/anaconda3/share/psi4/basis/cc-pvtz.gbs 


         ---------------------------------------------------------
                                   SCF
               by Justin Turney, Rob Parrish, Andy Simmonett
                          and Daniel G. A. Smith
                              UKS Reference
                        1 Threads,    500 MiB Core
         ---------------------------------------------------------

  ==> Geometry <==

    Molecular point group: c2v
    Full point group: C_inf_v

    Geometry (in Angstrom), charge = 0, multiplicity = 2:

       Center              X                  Y                   Z               Mass       
    ------------   -----------------  -----------------  -----------------  -----------------
         N            0.000000000000     0.000000000000    -0.536605539466    14.003074004430
         C            0.000000000000     0.000000000000     0.626177256694    12.000000000000

  Running in c2v symmetry.

  Rotational constants: A = ************  B =      1.92939  C =      1.92939 [cm^-1]
  Rotational constants: A = ************  B =  57841.56914  C =  57841.56914 [MHz]
  Nuclear repulsion =   19.114010734876061

  Charge       = 0
  Multiplicity = 2
  Electrons    = 13
  Nalpha       = 7
  Nbeta        = 6

  ==> Algorithm <==

  SCF Algorithm Type is DF.
  DIIS enabled.
  MOM disabled.
  Fractional occupation disabled.
  Guess Type is SAP.
  Energy threshold   = 1.00e-08
  Density threshold  = 1.00e-08
  Integral threshold = 1.00e-12

  ==> Primary Basis <==

  Basis Set: CC-PVTZ
    Blend: CC-PVTZ
    Number of shells: 20
    Number of basis functions: 60
    Number of Cartesian functions: 70
    Spherical Harmonics?: true
    Max angular momentum: 3

  ==> DFT Potential <==

   => LibXC <=

    Version 6.2.2
    S. Lehtola, C. Steigemann, M. J.T. Oliveira, and M. A.L. Marques.,  SoftwareX 7, 1–5 (2018) (10.1016/j.softx.2017.11.002)

   => Composite Functional: B3LYP <= 

    B3LYP Hyb-GGA Exchange-Correlation Functional

    P. J. Stephens, F. J. Devlin, C. F. Chabalowski, and M. J. Frisch.,  J. Phys. Chem. 98, 11623 (1994) (10.1021/j100096a001)

    Deriv               =              1
    GGA                 =           TRUE
    Meta                =          FALSE

    Exchange Hybrid     =           TRUE
    MP2 Hybrid          =          FALSE

   => Exchange Functionals <=

    0.0800   Slater exchange
    0.7200         Becke 88

   => Exact (HF) Exchange <=

    0.2000               HF 

   => Correlation Functionals <=

    0.1900   Vosko, Wilk & Nusair (VWN5_RPA)
    0.8100   Lee, Yang & Parr

   => LibXC Density Thresholds  <==

    XC_HYB_GGA_XC_B3LYP:  1.00E-15 

   => Molecular Quadrature <=

    Radial Scheme          =       TREUTLER
    Pruning Scheme         =           NONE
    Nuclear Scheme         =       TREUTLER

    Blocking Scheme        =         OCTREE
    BS radius alpha        =              1
    Pruning alpha          =              1
    Radial Points          =             75
    Spherical Points       =            302
    Total Points           =          43234
    Total Blocks           =            390
    Max Points             =            256
    Max Functions          =             60
    Weights Tolerance      =       1.00E-15

   => Loading Basis Set <=

    Name: (CC-PVTZ AUX)
    Role: JKFIT
    Keyword: DF_BASIS_SCF
    atoms 1 entry N          line   177 file /Users/joseantoniorodriguesromero/anaconda3/share/psi4/basis/cc-pvtz-jkfit.gbs 
    atoms 2 entry C          line   125 file /Users/joseantoniorodriguesromero/anaconda3/share/psi4/basis/cc-pvtz-jkfit.gbs 

  ==> Integral Setup <==

  DFHelper Memory: AOs need 0.005 GiB; user supplied 0.294 GiB. 
  Using in-core AOs.

  ==> MemDFJK: Density-Fitted J/K Matrices <==

    J tasked:                   Yes
    K tasked:                   Yes
    wK tasked:                   No
    OpenMP threads:               1
    Memory [MiB]:               300
    Algorithm:                 Core
    Schwarz Cutoff:           1E-12
    Mask sparsity (%):       0.0000
    Fitting Condition:        1E-10

   => Auxiliary Basis Set <=

  Basis Set: (CC-PVTZ AUX)
    Blend: CC-PVTZ-JKFIT
    Number of shells: 50
    Number of basis functions: 158
    Number of Cartesian functions: 192
    Spherical Harmonics?: true
    Max angular momentum: 4

  Cached 100.0% of DFT collocation blocks in 0.072 [GiB].

  Minimum eigenvalue in the overlap matrix is 1.8661274006E-03.
  Reciprocal condition number of the overlap matrix is 4.5431713119E-04.
    Using symmetric orthogonalization.

  ==> Pre-Iterations <==

  SCF Guess: Superposition of Atomic Potentials (doi:10.1021/acs.jctc.8b01089).

  ==> SAP guess <==

   => Molecular Quadrature <=

    Radial Scheme          =       TREUTLER
    Pruning Scheme         =           NONE
    Nuclear Scheme         =       TREUTLER

    Blocking Scheme        =         OCTREE
    BS radius alpha        =              1
    Pruning alpha          =              1
    Radial Points          =             75
    Spherical Points       =            302
    Total Points           =          43234
    Total Blocks           =            390
    Max Points             =            256
    Max Functions          =             60
    Weights Tolerance      =       1.00E-15

   -------------------------------------------------------
    Irrep   Nso     Nmo     Nalpha   Nbeta   Ndocc  Nsocc
   -------------------------------------------------------
     A1        26      26       5       4       4       1
     A2         6       6       0       0       0       0
     B1        14      14       1       1       1       0
     B2        14      14       1       1       1       0
   -------------------------------------------------------
    Total      60      60       7       6       6       1
   -------------------------------------------------------

  ==> Iterations <==

                           Total Energy        Delta E     RMS |[F,P]|

   @DF-UKS iter   1:   -92.44438278639279   -9.24444e+01   2.56701e-02 DIIS/ADIIS
   @DF-UKS iter   2:   -91.20273133429183    1.24165e+00   4.95690e-02 DIIS/ADIIS/DAMP=1%
   @DF-UKS iter   3:   -92.68230330554539   -1.47957e+00   8.47514e-03 DIIS/ADIIS/DAMP=1%
   @DF-UKS iter   4:   -92.73571317230481   -5.34099e-02   3.14604e-03 DIIS/ADIIS/DAMP=1%
   @DF-UKS iter   5:   -92.74642713720320   -1.07140e-02   6.46742e-04 DIIS/ADIIS/DAMP=1%
   @DF-UKS iter   6:   -92.74557093910070    8.56198e-04   2.44043e-04 DIIS/ADIIS/DAMP=1%
   @DF-UKS iter   7:   -92.74571499043024   -1.44051e-04   3.13845e-05 DIIS/DAMP=1%
   @DF-UKS iter   8:   -92.74577320800272   -5.82176e-05   1.47712e-05 DIIS/DAMP=1%
   @DF-UKS iter   9:   -92.74577265598441    5.52018e-07   1.90889e-06 DIIS/DAMP=1%
   @DF-UKS iter  10:   -92.74577623871615   -3.58273e-06   1.48601e-06 DIIS/DAMP=1%
   @DF-UKS iter  11:   -92.74577550755600    7.31160e-07   1.81564e-07 DIIS/DAMP=1%
   @DF-UKS iter  12:   -92.74577602100382   -5.13448e-07   1.62412e-08 DIIS/DAMP=1%
   @DF-UKS iter  13:   -92.74577593989152    8.11123e-08   2.40509e-09 DIIS/DAMP=1%
   @DF-UKS iter  14:   -92.74577593828242    1.60910e-09   3.66675e-10 DIIS/DAMP=1%
  Energy and wave function converged.


  ==> Post-Iterations <==

   Electrons on quadrature grid:
      Nalpha   =    7.0000000313 ; deviation = 3.126e-08
      Nbeta    =    6.0000000356 ; deviation = 3.561e-08
      Ntotal   =   13.0000000669 ; deviation = 6.687e-08 

   @Spin Contamination Metric:   7.969228466E-03
   @S^2 Expected:                7.500000000E-01
   @S^2 Observed:                7.579692285E-01
   @S   Expected:                5.000000000E-01
   @S   Observed:                5.000000000E-01

    Orbital Energies [Eh]
    ---------------------

    Alpha Occupied:                                                       

       1A1   -14.388269     2A1   -10.295684     3A1    -0.966632  
       4A1    -0.504338     5A1    -0.412459     1B1    -0.395585  
       1B2    -0.395585  

    Alpha Virtual:                                                        

       2B1    -0.017077     2B2    -0.017077     6A1     0.165949  
       7A1     0.267027     3B1     0.281138     3B2     0.281138  
       8A1     0.437481     4B1     0.514485     4B2     0.514485  
       9A1     0.599468    10A1     0.618939     1A2     0.618939  
       5B1     0.821538     5B2     0.821538    11A1     0.881685  
       2A2     1.158954    12A1     1.158954    13A1     1.273935  
       6B2     1.506971     6B1     1.506971    14A1     1.746497  
       7B1     1.958865     7B2     1.958865    15A1     2.189631  
       8B2     2.615718     8B1     2.615718    16A1     2.705913  
       3A2     2.705913    17A1     2.734387     9B2     2.784078  
       9B1     2.784078    10B2     2.908964    10B1     2.908964  
      18A1     2.909931     4A2     2.909932    19A1     3.097106  
      11B2     3.399173    11B1     3.399173    20A1     3.886531  
      12B2     3.924408    12B1     3.924408     5A2     4.392893  
      21A1     4.392895     6A2     4.539983    22A1     4.539987  
      13B2     4.793510    13B1     4.793510    23A1     4.956774  
      24A1     5.321809    14B2     5.530032    14B1     5.530032  
      25A1     5.945910    26A1    12.539804  

    Beta Occupied:                                                        

       1A1   -14.383652     2A1   -10.279838     3A1    -0.943923  
       4A1    -0.437944     1B1    -0.386986     1B2    -0.386986  

    Beta Virtual:                                                         

       5A1    -0.253389     2B1     0.004779     2B2     0.004779  
       6A1     0.173104     3B1     0.290732     3B2     0.290732  
       7A1     0.306877     8A1     0.448653     4B1     0.516169  
       4B2     0.516169     9A1     0.629299     1A2     0.629299  
      10A1     0.645710     5B1     0.851594     5B2     0.851594  
      11A1     0.893286     2A2     1.161133    12A1     1.161133  
      13A1     1.311385     6B2     1.523645     6B1     1.523645  
      14A1     1.773171     7B1     1.973733     7B2     1.973733  
      15A1     2.240013     8B2     2.632303     8B1     2.632303  
       3A2     2.721880    16A1     2.721880    17A1     2.775627  
       9B2     2.820136     9B1     2.820136    10B2     2.945954  
      10B1     2.945954    18A1     2.951434     4A2     2.951434  
      19A1     3.176225    11B2     3.435352    11B1     3.435352  
      12B2     3.919609    12B1     3.919609    20A1     3.921037  
       5A2     4.392645    21A1     4.392647     6A2     4.546830  
      22A1     4.546834    13B2     4.816653    13B1     4.816653  
      23A1     4.994291    24A1     5.350980    14B2     5.555851  
      14B1     5.555851    25A1     5.960456    26A1    12.560190  

    Final Occupation by Irrep:
             A1    A2    B1    B2 
    DOCC [     4,    0,    1,    1 ]
    SOCC [     1,    0,    0,    0 ]
    NA   [     5,    0,    1,    1 ]
    NB   [     4,    0,    1,    1 ]

  @DF-UKS Final Energy:   -92.74577593828242

   => Energetics <=

    Nuclear Repulsion Energy =             19.1140107348760608
    One-Electron Energy =                -162.4584925079034292
    Two-Electron Energy =                  60.4349545186060055
    DFT Exchange-Correlation Energy =      -9.8362486838610472
    Empirical Dispersion Energy =           0.0000000000000000
    VV10 Nonlocal Energy =                  0.0000000000000000
    Total Energy =                        -92.7457759382824207

  UHF NO Occupations:
  HONO-2 :    1 B2 1.9986174
  HONO-1 :    1 B1 1.9986174
  HONO-0 :    5 A1 1.0000000
  LUNO+0 :    2 B2 0.0013826
  LUNO+1 :    2 B1 0.0013826
  LUNO+2 :    6 A1 0.0011251
  LUNO+3 :    7 A1 0.0000964


Computation Completed


Properties will be evaluated at   0.000000,   0.000000,   0.000000 [a0]

Properties computed using the B3LYP density matrix


 Multipole Moments:

 ------------------------------------------------------------------------------------
     Multipole            Electronic (a.u.)      Nuclear  (a.u.)        Total (a.u.)
 ------------------------------------------------------------------------------------

 L = 1.  Multiply by 2.5417464519 to convert [e a0] to [Debye]
 Dipole X            :          0.0000000            0.0000000            0.0000000
 Dipole Y            :          0.0000000            0.0000000            0.0000000
 Dipole Z            :          0.5186509            0.0015586            0.5202094
 Magnitude           :                                                    0.5202094

 L = 2.  Multiply by 1.3450342976 to convert [e a0^2] to [Debye ang]
 Quadrupole XX       :         -8.1343456            0.0000000           -8.1343456
 Quadrupole XY       :          0.0000000            0.0000000            0.0000000
 Quadrupole XZ       :          0.0000000            0.0000000            0.0000000
 Quadrupole YY       :         -8.1343456            0.0000000           -8.1343456
 Quadrupole YZ       :          0.0000000            0.0000000            0.0000000
 Quadrupole ZZ       :        -23.3530614           15.5991478           -7.7539136
 Traceless XX        :          5.0729053           -5.1997159           -0.1268107
 Traceless YY        :          5.0729053           -5.1997159           -0.1268107
 Traceless ZZ        :        -10.1458106           10.3994319            0.2536213

 ------------------------------------------------------------------------------------
  Mulliken Charges: (a.u.)
   Center  Symbol    Alpha    Beta     Spin     Total
       1     N     3.57270  3.43840  0.13430 -0.01110
       2     C     3.42730  2.56160  0.86570  0.01110

   Total alpha =  7.00000, Total beta =  6.00000, Total charge =  0.00000


*** tstop() called on Mac.lan at Sun Aug 10 17:12:28 2025
Module time:
	user time   =      17.44 seconds =       0.29 minutes
	system time =       1.30 seconds =       0.02 minutes
	total time  =          1 seconds =       0.02 minutes
Total time:
	user time   =     191.69 seconds =       3.19 minutes
	system time =      16.29 seconds =       0.27 minutes
	total time  =         19 seconds =       0.32 minutes

    Psi4 stopped on: Sunday, 10 August 2025 05:12PM
    Psi4 wall time for execution: 0:00:20.59

*** Psi4 exiting successfully. Buy a developer a beer!
