
    -----------------------------------------------------------------------
          Psi4: An Open-Source Ab Initio Electronic Structure Package
                               Psi4 1.9.1 release

                         Git: Rev {} zzzzzzz 


    D. G. A. Smith, L. A. Burns, A. C. Simmonett, R. M. Parrish,
    M. C. Schieber, R. Galvelis, P. Kraus, H. Kruse, R. Di Remigio,
    A. Alenaizan, A. M. James, S. Lehtola, J. P. Misiewicz, M. Scheurer,
    R. A. Shaw, J. B. Schriber, Y. Xie, Z. L. Glick, D. A. Sirianni,
    J. S. O'Brien, J. M. Waldrop, A. Kumar, E. G. Hohenstein,
    B. P. Pritchard, B. R. Brooks, H. F. Schaefer III, A. Yu. Sokolov,
    K. Patkowski, A. E. DePrince III, U. Bozkaya, R. A. King,
    F. A. Evangelista, J. M. Turney, T. D. Crawford, C. D. Sherrill,
    J. Chem. Phys. 152(18) 184108 (2020). https://doi.org/10.1063/5.0006002

                            Additional Code Authors
    E. T. Seidl, C. L. Janssen, E. F. Valeev, M. L. Leininger,
    J. F. Gonthier, R. M. Richard, H. R. McAlexander, M. Saitow, X. Wang,
    P. Verma, M. H. Lechner, A. Jiang, S. Behnle, A. G. Heide,
    M. F. Herbst, and D. L. Poole

             Previous Authors, Complete List of Code Contributors,
                       and Citations for Specific Modules
    https://github.com/psi4/psi4/blob/master/codemeta.json
    https://github.com/psi4/psi4/graphs/contributors
    http://psicode.org/psi4manual/master/introduction.html#citing-psifour

    -----------------------------------------------------------------------


    Psi4 started on: Sunday, 10 August 2025 05:05PM

    Process ID: 48206
    Host:       Mac.lan
    PSIDATADIR: /Users/joseantoniorodriguesromero/anaconda3/share/psi4
    Memory:     500.0 MiB
    Threads:    1
    
  ==> Input File <==

--------------------------------------------------------------------------
molecule { 
0 1
N           0.000000           0.000000           0.000000
N           0.000000           0.000000           1.104434
}

set { 
basis              cc-pvtz
reference          uks
maxiter            500
DAMPING_PERCENTAGE 1
E_CONVERGENCE      1.0E-8
D_CONVERGENCE      1.0E-8
DIIS_MAX_VECS      400
MBIS_MAXITER       8000
guess              SAP
}

E, wfn = optimize('b3lyp', return_wfn=True)
frequencies('b3lyp', wfn=wfn, return_wfn=True)
properties('b3lyp','MULLIKEN_CHARGES', wfn=wfn)
--------------------------------------------------------------------------

Scratch directory: /tmp/
gradient() will perform analytic gradient computation.
   => Libint2 <=

    Primary   basis highest AM E, G, H:  6, 6, 3
    Auxiliary basis highest AM E, G, H:  7, 7, 4
    Onebody   basis highest AM E, G, H:  -, -, -
    Solid Harmonics ordering:            Gaussian

*** tstart() called on Mac.lan
*** at Sun Aug 10 17:05:09 2025

   => Loading Basis Set <=

    Name: CC-PVTZ
    Role: ORBITAL
    Keyword: BASIS
    atoms 1-2 entry N          line   224 file /Users/joseantoniorodriguesromero/anaconda3/share/psi4/basis/cc-pvtz.gbs 


         ---------------------------------------------------------
                                   SCF
               by Justin Turney, Rob Parrish, Andy Simmonett
                          and Daniel G. A. Smith
                              UKS Reference
                        1 Threads,    500 MiB Core
         ---------------------------------------------------------

  ==> Geometry <==

    Molecular point group: d2h
    Full point group: D_inf_h

    Geometry (in Angstrom), charge = 0, multiplicity = 1:

       Center              X                  Y                   Z               Mass       
    ------------   -----------------  -----------------  -----------------  -----------------
         N            0.000000000000     0.000000000000    -0.552217000000    14.003074004430
         N            0.000000000000     0.000000000000     0.552217000000    14.003074004430

  Running in d2h symmetry.

  Rotational constants: A = ************  B =      1.97389  C =      1.97389 [cm^-1]
  Rotational constants: A = ************  B =  59175.81870  C =  59175.81870 [MHz]
  Nuclear repulsion =   23.477802496871696

  Charge       = 0
  Multiplicity = 1
  Electrons    = 14
  Nalpha       = 7
  Nbeta        = 7

  ==> Algorithm <==

  SCF Algorithm Type is DF.
  DIIS enabled.
  MOM disabled.
  Fractional occupation disabled.
  Guess Type is SAP.
  Energy threshold   = 1.00e-08
  Density threshold  = 1.00e-08
  Integral threshold = 1.00e-12

  ==> Primary Basis <==

  Basis Set: CC-PVTZ
    Blend: CC-PVTZ
    Number of shells: 20
    Number of basis functions: 60
    Number of Cartesian functions: 70
    Spherical Harmonics?: true
    Max angular momentum: 3

  ==> DFT Potential <==

   => LibXC <=

    Version 6.2.2
    S. Lehtola, C. Steigemann, M. J.T. Oliveira, and M. A.L. Marques.,  SoftwareX 7, 1–5 (2018) (10.1016/j.softx.2017.11.002)

   => Composite Functional: B3LYP <= 

    B3LYP Hyb-GGA Exchange-Correlation Functional

    P. J. Stephens, F. J. Devlin, C. F. Chabalowski, and M. J. Frisch.,  J. Phys. Chem. 98, 11623 (1994) (10.1021/j100096a001)

    Deriv               =              1
    GGA                 =           TRUE
    Meta                =          FALSE

    Exchange Hybrid     =           TRUE
    MP2 Hybrid          =          FALSE

   => Exchange Functionals <=

    0.0800   Slater exchange
    0.7200         Becke 88

   => Exact (HF) Exchange <=

    0.2000               HF 

   => Correlation Functionals <=

    0.1900   Vosko, Wilk & Nusair (VWN5_RPA)
    0.8100   Lee, Yang & Parr

   => LibXC Density Thresholds  <==

    XC_HYB_GGA_XC_B3LYP:  1.00E-15 

   => Molecular Quadrature <=

    Radial Scheme          =       TREUTLER
    Pruning Scheme         =           NONE
    Nuclear Scheme         =       TREUTLER

    Blocking Scheme        =         OCTREE
    BS radius alpha        =              1
    Pruning alpha          =              1
    Radial Points          =             75
    Spherical Points       =            302
    Total Points           =          42426
    Total Blocks           =            374
    Max Points             =            256
    Max Functions          =             60
    Weights Tolerance      =       1.00E-15

   => Loading Basis Set <=

    Name: (CC-PVTZ AUX)
    Role: JKFIT
    Keyword: DF_BASIS_SCF
    atoms 1-2 entry N          line   177 file /Users/joseantoniorodriguesromero/anaconda3/share/psi4/basis/cc-pvtz-jkfit.gbs 

  ==> Integral Setup <==

  DFHelper Memory: AOs need 0.005 GiB; user supplied 0.295 GiB. 
  Using in-core AOs.

  ==> MemDFJK: Density-Fitted J/K Matrices <==

    J tasked:                   Yes
    K tasked:                   Yes
    wK tasked:                   No
    OpenMP threads:               1
    Memory [MiB]:               302
    Algorithm:                 Core
    Schwarz Cutoff:           1E-12
    Mask sparsity (%):       0.0000
    Fitting Condition:        1E-10

   => Auxiliary Basis Set <=

  Basis Set: (CC-PVTZ AUX)
    Blend: CC-PVTZ-JKFIT
    Number of shells: 50
    Number of basis functions: 158
    Number of Cartesian functions: 192
    Spherical Harmonics?: true
    Max angular momentum: 4

  Cached 100.0% of DFT collocation blocks in 0.071 [GiB].

  Minimum eigenvalue in the overlap matrix is 2.3396638428E-03.
  Reciprocal condition number of the overlap matrix is 6.2519392843E-04.
    Using symmetric orthogonalization.

  ==> Pre-Iterations <==

  SCF Guess: Superposition of Atomic Potentials (doi:10.1021/acs.jctc.8b01089).

  ==> SAP guess <==

   => Molecular Quadrature <=

    Radial Scheme          =       TREUTLER
    Pruning Scheme         =           NONE
    Nuclear Scheme         =       TREUTLER

    Blocking Scheme        =         OCTREE
    BS radius alpha        =              1
    Pruning alpha          =              1
    Radial Points          =             75
    Spherical Points       =            302
    Total Points           =          42426
    Total Blocks           =            374
    Max Points             =            256
    Max Functions          =             60
    Weights Tolerance      =       1.00E-15

   -------------------------------------------------------
    Irrep   Nso     Nmo     Nalpha   Nbeta   Ndocc  Nsocc
   -------------------------------------------------------
     Ag        13      13       3       3       3       0
     B1g        3       3       0       0       0       0
     B2g        7       7       0       0       0       0
     B3g        7       7       0       0       0       0
     Au         3       3       0       0       0       0
     B1u       13      13       2       2       2       0
     B2u        7       7       1       1       1       0
     B3u        7       7       1       1       1       0
   -------------------------------------------------------
    Total      60      60       7       7       7       0
   -------------------------------------------------------

  ==> Iterations <==

                           Total Energy        Delta E     RMS |[F,P]|

   @DF-UKS iter   1:  -109.43097503788827   -1.09431e+02   2.67313e-02 ADIIS/DIIS
   @DF-UKS iter   2:  -109.49739864552579   -6.64236e-02   1.78182e-02 ADIIS/DIIS/DAMP=1%
   @DF-UKS iter   3:  -109.55361014571592   -5.62115e-02   1.91763e-03 ADIIS/DIIS/DAMP=1%
   @DF-UKS iter   4:  -109.56921456693286   -1.56044e-02   2.00317e-04 ADIIS/DIIS/DAMP=1%
   @DF-UKS iter   5:  -109.56785669220051    1.35787e-03   9.51669e-06 DIIS/DAMP=1%
   @DF-UKS iter   6:  -109.56794050335645   -8.38112e-05   1.03111e-06 DIIS/DAMP=1%
   @DF-UKS iter   7:  -109.56794272805665   -2.22470e-06   2.85250e-08 DIIS/DAMP=1%
   @DF-UKS iter   8:  -109.56794327564660   -5.47590e-07   5.06820e-09 DIIS/DAMP=1%
   @DF-UKS iter   9:  -109.56794328849448   -1.28479e-08   7.34091e-11 DIIS/DAMP=1%
   @DF-UKS iter  10:  -109.56794329191445   -3.41997e-09   1.88852e-11 DIIS/DAMP=1%
  Energy and wave function converged.


  ==> Post-Iterations <==

   Electrons on quadrature grid:
      Nalpha   =    7.0000000049 ; deviation = 4.866e-09
      Nbeta    =    7.0000000049 ; deviation = 4.866e-09
      Ntotal   =   14.0000000097 ; deviation = 9.732e-09 

   @Spin Contamination Metric:   8.881784197E-16
   @S^2 Expected:                0.000000000E+00
   @S^2 Observed:                8.881784197E-16
   @S   Expected:                0.000000000E+00
   @S   Observed:                0.000000000E+00

    Orbital Energies [Eh]
    ---------------------

    Alpha Occupied:                                                       

       1Ag   -14.423700     1B1u  -14.422021     2Ag    -1.124773  
       2B1u   -0.557768     1B3u   -0.467337     1B2u   -0.467337  
       3Ag    -0.433954  

    Alpha Virtual:                                                        

       1B2g   -0.031353     1B3g   -0.031353     3B1u    0.292338  
       2B2u    0.390177     2B3u    0.390177     4Ag     0.410982  
       5Ag     0.485846     2B2g    0.530930     2B3g    0.530930  
       4B1u    0.679609     1B1g    0.834206     6Ag     0.834206  
       5B1u    0.864000     3B3u    1.090162     3B2u    1.090162  
       1Au     1.262777     6B1u    1.262778     3B2g    1.680750  
       3B3g    1.680750     7Ag     1.681409     7B1u    1.900060  
       4B2u    2.738613     4B3u    2.738613     8Ag     2.908041  
       4B3g    3.073458     4B2g    3.073458     8B1u    3.364295  
       2B1g    3.459260     9Ag     3.459260     5B3u    3.585821  
       5B2u    3.585821     6B2u    3.602714     6B3u    3.602714  
      10Ag     3.950391     5B2g    4.071568     5B3g    4.071568  
       3B1g    4.347851    11Ag     4.347854     2Au     4.480704  
       9B1u    4.480707     6B2g    4.482465     6B3g    4.482465  
      10B1u    4.604682    11B1u    4.897699     3Au     4.897699  
       7B3u    4.985136     7B2u    4.985136    12Ag     5.119952  
      12B1u    5.666459     7B2g    6.377893     7B3g    6.377893  
      13Ag     6.419995    13B1u   15.688556  

    Beta Occupied:                                                        

       1Ag   -14.423700     1B1u  -14.422021     2Ag    -1.124773  
       2B1u   -0.557768     1B3u   -0.467337     1B2u   -0.467337  
       3Ag    -0.433954  

    Beta Virtual:                                                         

       1B2g   -0.031353     1B3g   -0.031353     3B1u    0.292338  
       2B2u    0.390177     2B3u    0.390177     4Ag     0.410982  
       5Ag     0.485846     2B2g    0.530930     2B3g    0.530930  
       4B1u    0.679609     1B1g    0.834206     6Ag     0.834206  
       5B1u    0.864000     3B3u    1.090162     3B2u    1.090162  
       1Au     1.262777     6B1u    1.262778     3B2g    1.680750  
       3B3g    1.680750     7Ag     1.681409     7B1u    1.900060  
       4B2u    2.738613     4B3u    2.738613     8Ag     2.908041  
       4B3g    3.073458     4B2g    3.073458     8B1u    3.364295  
       2B1g    3.459260     9Ag     3.459260     5B3u    3.585821  
       5B2u    3.585821     6B2u    3.602714     6B3u    3.602714  
      10Ag     3.950391     5B2g    4.071568     5B3g    4.071568  
       3B1g    4.347851    11Ag     4.347854     2Au     4.480704  
       9B1u    4.480707     6B2g    4.482465     6B3g    4.482465  
      10B1u    4.604682    11B1u    4.897699     3Au     4.897699  
       7B3u    4.985136     7B2u    4.985136    12Ag     5.119952  
      12B1u    5.666459     7B2g    6.377893     7B3g    6.377893  
      13Ag     6.419995    13B1u   15.688556  

    Final Occupation by Irrep:
             Ag   B1g   B2g   B3g    Au   B1u   B2u   B3u 
    DOCC [     3,    0,    0,    0,    0,    2,    1,    1 ]
    SOCC [     0,    0,    0,    0,    0,    0,    0,    0 ]
    NA   [     3,    0,    0,    0,    0,    2,    1,    1 ]
    NB   [     3,    0,    0,    0,    0,    2,    1,    1 ]

  @DF-UKS Final Energy:  -109.56794329191445

   => Energetics <=

    Nuclear Repulsion Energy =             23.4778024968716963
    One-Electron Energy =                -194.3302938709264254
    Two-Electron Energy =                  72.3588246119370524
    DFT Exchange-Correlation Energy =     -11.0742765297967818
    Empirical Dispersion Energy =           0.0000000000000000
    VV10 Nonlocal Energy =                  0.0000000000000000
    Total Energy =                       -109.5679432919144460

  UHF NO Occupations:
  HONO-2 :    1B1u 2.0000000
  HONO-1 :    1B2u 2.0000000
  HONO-0 :    2B1u 2.0000000
  LUNO+0 :    4 Ag 0.0000000
  LUNO+1 :    3B1u 0.0000000
  LUNO+2 :    4B1u 0.0000000
  LUNO+3 :    5 Ag 0.0000000


Computation Completed


Properties will be evaluated at   0.000000,   0.000000,   0.000000 [a0]

Properties computed using the SCF density matrix


 Multipole Moments:

 ------------------------------------------------------------------------------------
     Multipole            Electronic (a.u.)      Nuclear  (a.u.)        Total (a.u.)
 ------------------------------------------------------------------------------------

 L = 1.  Multiply by 2.5417464519 to convert [e a0] to [Debye]
 Dipole X            :          0.0000000            0.0000000            0.0000000
 Dipole Y            :          0.0000000            0.0000000            0.0000000
 Dipole Z            :          0.0000000            0.0000000            0.0000000
 Magnitude           :                                                    0.0000000

 ------------------------------------------------------------------------------------

*** tstop() called on Mac.lan at Sun Aug 10 17:05:11 2025
Module time:
	user time   =      13.15 seconds =       0.22 minutes
	system time =       1.26 seconds =       0.02 minutes
	total time  =          2 seconds =       0.03 minutes
Total time:
	user time   =      13.15 seconds =       0.22 minutes
	system time =       1.26 seconds =       0.02 minutes
	total time  =          2 seconds =       0.03 minutes

*** tstart() called on Mac.lan
*** at Sun Aug 10 17:05:11 2025


         ------------------------------------------------------------
                                   SCF GRAD                          
                          Rob Parrish, Justin Turney,                
                       Andy Simmonett, and Alex Sokolov              
         ------------------------------------------------------------

  ==> Geometry <==

    Molecular point group: d2h
    Full point group: D_inf_h

    Geometry (in Angstrom), charge = 0, multiplicity = 1:

       Center              X                  Y                   Z               Mass       
    ------------   -----------------  -----------------  -----------------  -----------------
         N            0.000000000000     0.000000000000    -0.552217000000    14.003074004430
         N            0.000000000000     0.000000000000     0.552217000000    14.003074004430

  Nuclear repulsion =   23.477802496871696

  ==> Basis Set <==

  Basis Set: CC-PVTZ
    Blend: CC-PVTZ
    Number of shells: 20
    Number of basis functions: 60
    Number of Cartesian functions: 70
    Spherical Harmonics?: true
    Max angular momentum: 3

  ==> DFJKGrad: Density-Fitted SCF Gradients <==

    Gradient:                    1
    J tasked:                  Yes
    K tasked:                  Yes
    wK tasked:                  No
    OpenMP threads:              1
    Integrals threads:           1
    Memory [MiB]:              375
    Schwarz Cutoff:          1E-12
    Fitting Condition:       1E-10

   => Auxiliary Basis Set <=

  Basis Set: (CC-PVTZ AUX)
    Blend: CC-PVTZ-JKFIT
    Number of shells: 50
    Number of basis functions: 158
    Number of Cartesian functions: 192
    Spherical Harmonics?: true
    Max angular momentum: 4

  ==> DFT Potential <==

   => LibXC <=

    Version 6.2.2
    S. Lehtola, C. Steigemann, M. J.T. Oliveira, and M. A.L. Marques.,  SoftwareX 7, 1–5 (2018) (10.1016/j.softx.2017.11.002)

   => Composite Functional: B3LYP <= 

    B3LYP Hyb-GGA Exchange-Correlation Functional

    P. J. Stephens, F. J. Devlin, C. F. Chabalowski, and M. J. Frisch.,  J. Phys. Chem. 98, 11623 (1994) (10.1021/j100096a001)

    Deriv               =              1
    GGA                 =           TRUE
    Meta                =          FALSE

    Exchange Hybrid     =           TRUE
    MP2 Hybrid          =          FALSE

   => Exchange Functionals <=

    0.0800   Slater exchange
    0.7200         Becke 88

   => Exact (HF) Exchange <=

    0.2000               HF 

   => Correlation Functionals <=

    0.1900   Vosko, Wilk & Nusair (VWN5_RPA)
    0.8100   Lee, Yang & Parr

   => LibXC Density Thresholds  <==

    XC_HYB_GGA_XC_B3LYP:  1.00E-15 

   => Molecular Quadrature <=

    Radial Scheme          =       TREUTLER
    Pruning Scheme         =           NONE
    Nuclear Scheme         =       TREUTLER

    Blocking Scheme        =         OCTREE
    BS radius alpha        =              1
    Pruning alpha          =              1
    Radial Points          =             75
    Spherical Points       =            302
    Total Points           =          42426
    Total Blocks           =            374
    Max Points             =            256
    Max Functions          =             60
    Weights Tolerance      =       1.00E-15


  -Total Gradient:
     Atom            X                  Y                   Z
    ------   -----------------  -----------------  -----------------
       1        0.000000000000     0.000000000000    -0.037404828753
       2        0.000000000000    -0.000000000000     0.037404828753


*** tstop() called on Mac.lan at Sun Aug 10 17:05:11 2025
Module time:
	user time   =       3.46 seconds =       0.06 minutes
	system time =       0.26 seconds =       0.00 minutes
	total time  =          0 seconds =       0.00 minutes
Total time:
	user time   =      16.62 seconds =       0.28 minutes
	system time =       1.52 seconds =       0.03 minutes
	total time  =          2 seconds =       0.03 minutes

    			-----------------------------------------

    			 OPTKING 3.0: for geometry optimizations 

    			     By R.A. King, Bethel University     

    			        with contributions from          

    			    A.V. Copan, J. Cayton, A. Heide      

    			-----------------------------------------

    
	                            ===> Fragment 1 <== 

	 Z (Atomic Numbers)          Masses                          Geom                  
	       7.000000            14.003074          0.00000000  0.00000000 -1.04353889   
	       7.000000            14.003074          0.00000000  0.00000000  1.04353889   

	 - Coordinate -           - BOHR/RAD -       - ANG/DEG -
	 R(1,2)           =         2.087078           1.104434


	        --- Internal Coordinate Step in ANG or DEG, aJ/ANG or AJ/DEG ---
	-------------------------------------------------------------------------------
	           Coordinate      Previous         Force          Change          New 
	           ----------      --------        ------          ------        ------
	               R(1,2)       1.10443       -0.30817       -0.01148       1.09295
	-------------------------------------------------------------------------------

	                                 ==> Convergence Check <==                                  
    
	Measures of convergence in internal coordinates in au.
    
	Criteria marked as inactive (o), active & met (*), and active & unmet ( ).

	----------------------------------------------------------------------------------------------
	   Step    Total Energy     Delta E     Max Force     RMS Force      Max Disp      RMS Disp   
	----------------------------------------------------------------------------------------------
	  Convergence Criteria     1.00e-06 *    3.00e-04 *             o    1.20e-03 *             o
	----------------------------------------------------------------------------------------------
	     1    -109.56794329   -1.10e+02      3.74e-02      3.74e-02 o    2.17e-02      2.17e-02 o  ~
	----------------------------------------------------------------------------------------------

Next Geometry in Ang 
	Fragment 1 (Ang)

	    N   0.0000000000   0.0000000000  -0.5464765024
	    N   0.0000000000   0.0000000000   0.5464765024


    Structure for next step:
    Molecular point group: d2h
    Full point group: D_inf_h

    Geometry (in Angstrom), charge = 0, multiplicity = 1:

    N            0.000000000000     0.000000000000    -0.546476502400
    N            0.000000000000     0.000000000000     0.546476502400


Scratch directory: /tmp/
gradient() will perform analytic gradient computation.
   => Libint2 <=

    Primary   basis highest AM E, G, H:  6, 6, 3
    Auxiliary basis highest AM E, G, H:  7, 7, 4
    Onebody   basis highest AM E, G, H:  -, -, -
    Solid Harmonics ordering:            Gaussian

*** tstart() called on Mac.lan
*** at Sun Aug 10 17:05:11 2025

   => Loading Basis Set <=

    Name: CC-PVTZ
    Role: ORBITAL
    Keyword: BASIS
    atoms 1-2 entry N          line   224 file /Users/joseantoniorodriguesromero/anaconda3/share/psi4/basis/cc-pvtz.gbs 


         ---------------------------------------------------------
                                   SCF
               by Justin Turney, Rob Parrish, Andy Simmonett
                          and Daniel G. A. Smith
                              UKS Reference
                        1 Threads,    500 MiB Core
         ---------------------------------------------------------

  ==> Geometry <==

    Molecular point group: d2h
    Full point group: D_inf_h

    Geometry (in Angstrom), charge = 0, multiplicity = 1:

       Center              X                  Y                   Z               Mass       
    ------------   -----------------  -----------------  -----------------  -----------------
         N            0.000000000000     0.000000000000    -0.546476502400    14.003074004430
         N            0.000000000000     0.000000000000     0.546476502400    14.003074004430

  Running in d2h symmetry.

  Rotational constants: A = ************  B =      2.01558  C =      2.01558 [cm^-1]
  Rotational constants: A = ************  B =  60425.58090  C =  60425.58090 [MHz]
  Nuclear repulsion =   23.724426584621430

  Charge       = 0
  Multiplicity = 1
  Electrons    = 14
  Nalpha       = 7
  Nbeta        = 7

  ==> Algorithm <==

  SCF Algorithm Type is DF.
  DIIS enabled.
  MOM disabled.
  Fractional occupation disabled.
  Guess Type is READ.
  Energy threshold   = 1.00e-08
  Density threshold  = 1.00e-08
  Integral threshold = 1.00e-12

  ==> Primary Basis <==

  Basis Set: CC-PVTZ
    Blend: CC-PVTZ
    Number of shells: 20
    Number of basis functions: 60
    Number of Cartesian functions: 70
    Spherical Harmonics?: true
    Max angular momentum: 3

  ==> DFT Potential <==

   => LibXC <=

    Version 6.2.2
    S. Lehtola, C. Steigemann, M. J.T. Oliveira, and M. A.L. Marques.,  SoftwareX 7, 1–5 (2018) (10.1016/j.softx.2017.11.002)

   => Composite Functional: B3LYP <= 

    B3LYP Hyb-GGA Exchange-Correlation Functional

    P. J. Stephens, F. J. Devlin, C. F. Chabalowski, and M. J. Frisch.,  J. Phys. Chem. 98, 11623 (1994) (10.1021/j100096a001)

    Deriv               =              1
    GGA                 =           TRUE
    Meta                =          FALSE

    Exchange Hybrid     =           TRUE
    MP2 Hybrid          =          FALSE

   => Exchange Functionals <=

    0.0800   Slater exchange
    0.7200         Becke 88

   => Exact (HF) Exchange <=

    0.2000               HF 

   => Correlation Functionals <=

    0.1900   Vosko, Wilk & Nusair (VWN5_RPA)
    0.8100   Lee, Yang & Parr

   => LibXC Density Thresholds  <==

    XC_HYB_GGA_XC_B3LYP:  1.00E-15 

   => Molecular Quadrature <=

    Radial Scheme          =       TREUTLER
    Pruning Scheme         =           NONE
    Nuclear Scheme         =       TREUTLER

    Blocking Scheme        =         OCTREE
    BS radius alpha        =              1
    Pruning alpha          =              1
    Radial Points          =             75
    Spherical Points       =            302
    Total Points           =          42426
    Total Blocks           =            376
    Max Points             =            256
    Max Functions          =             60
    Weights Tolerance      =       1.00E-15

   => Loading Basis Set <=

    Name: (CC-PVTZ AUX)
    Role: JKFIT
    Keyword: DF_BASIS_SCF
    atoms 1-2 entry N          line   177 file /Users/joseantoniorodriguesromero/anaconda3/share/psi4/basis/cc-pvtz-jkfit.gbs 

   => Loading Basis Set <=

    Name: CC-PVTZ
    Role: ORBITAL
    Keyword: BASIS
    atoms 1-2 entry N          line   224 file /Users/joseantoniorodriguesromero/anaconda3/share/psi4/basis/cc-pvtz.gbs 

  Reading orbitals from file /tmp/scan_NN.default.48206.180.npy, no projection.

  ==> Integral Setup <==

  DFHelper Memory: AOs need 0.005 GiB; user supplied 0.295 GiB. 
  Using in-core AOs.

  ==> MemDFJK: Density-Fitted J/K Matrices <==

    J tasked:                   Yes
    K tasked:                   Yes
    wK tasked:                   No
    OpenMP threads:               1
    Memory [MiB]:               302
    Algorithm:                 Core
    Schwarz Cutoff:           1E-12
    Mask sparsity (%):       0.0000
    Fitting Condition:        1E-10

   => Auxiliary Basis Set <=

  Basis Set: (CC-PVTZ AUX)
    Blend: CC-PVTZ-JKFIT
    Number of shells: 50
    Number of basis functions: 158
    Number of Cartesian functions: 192
    Spherical Harmonics?: true
    Max angular momentum: 4

  Cached 100.0% of DFT collocation blocks in 0.071 [GiB].

  Minimum eigenvalue in the overlap matrix is 2.2501661929E-03.
  Reciprocal condition number of the overlap matrix is 5.9910640775E-04.
    Using symmetric orthogonalization.

  ==> Pre-Iterations <==

  SCF Guess: Orbitals guess was supplied from a previous computation.

   -------------------------------------------------------
    Irrep   Nso     Nmo     Nalpha   Nbeta   Ndocc  Nsocc
   -------------------------------------------------------
     Ag        13      13       3       3       3       0
     B1g        3       3       0       0       0       0
     B2g        7       7       0       0       0       0
     B3g        7       7       0       0       0       0
     Au         3       3       0       0       0       0
     B1u       13      13       2       2       2       0
     B2u        7       7       1       1       1       0
     B3u        7       7       1       1       1       0
   -------------------------------------------------------
    Total      60      60       7       7       7       0
   -------------------------------------------------------

  ==> Iterations <==

                           Total Energy        Delta E     RMS |[F,P]|

   @DF-UKS iter   0:  -109.57582469176714   -1.09576e+02   2.34435e-03 
   @DF-UKS iter   1:  -109.56837793539654    7.44676e-03   3.16694e-04 ADIIS/DIIS
   @DF-UKS iter   2:  -109.56839366896961   -1.57336e-05   2.23753e-04 ADIIS/DIIS/DAMP=1%
   @DF-UKS iter   3:  -109.56854613175506   -1.52463e-04   1.33045e-05 DIIS/DAMP=1%
   @DF-UKS iter   4:  -109.56840005775766    1.46074e-04   3.76517e-06 DIIS/DAMP=1%
   @DF-UKS iter   5:  -109.56840677805883   -6.72030e-06   1.89267e-07 DIIS/DAMP=1%
   @DF-UKS iter   6:  -109.56840443239230    2.34567e-06   1.05578e-08 DIIS/DAMP=1%
   @DF-UKS iter   7:  -109.56840434301755    8.93748e-08   6.21706e-10 DIIS/DAMP=1%
   @DF-UKS iter   8:  -109.56840433630897    6.70858e-09   4.31836e-11 DIIS/DAMP=1%
  Energy and wave function converged.


  ==> Post-Iterations <==

   Electrons on quadrature grid:
      Nalpha   =    6.9999999642 ; deviation = -3.580e-08
      Nbeta    =    6.9999999642 ; deviation = -3.580e-08
      Ntotal   =   13.9999999284 ; deviation = -7.161e-08 

   @Spin Contamination Metric:   4.440892099E-15
   @S^2 Expected:                0.000000000E+00
   @S^2 Observed:                4.440892099E-15
   @S   Expected:                0.000000000E+00
   @S   Observed:                0.000000000E+00

    Orbital Energies [Eh]
    ---------------------

    Alpha Occupied:                                                       

       1Ag   -14.420445     1B1u  -14.418593     2Ag    -1.131436  
       2B1u   -0.554656     1B2u   -0.470991     1B3u   -0.470991  
       3Ag    -0.434492  

    Alpha Virtual:                                                        

       1B2g   -0.025994     1B3g   -0.025994     3B1u    0.293997  
       2B2u    0.388776     2B3u    0.388776     4Ag     0.409707  
       5Ag     0.486528     2B2g    0.532421     2B3g    0.532421  
       4B1u    0.692584     1B1g    0.833368     6Ag     0.833368  
       5B1u    0.871838     3B2u    1.097418     3B3u    1.097418  
       1Au     1.267004     6B1u    1.267004     7Ag     1.680422  
       3B2g    1.682615     3B3g    1.682615     7B1u    1.922063  
       4B2u    2.738364     4B3u    2.738364     8Ag     2.914526  
       4B3g    3.083995     4B2g    3.083995     8B1u    3.356561  
       2B1g    3.462473     9Ag     3.462473     5B3u    3.594486  
       5B2u    3.594486     6B3u    3.596604     6B2u    3.596604  
      10Ag     3.963748     5B2g    4.080370     5B3g    4.080370  
       3B1g    4.349808    11Ag     4.349811     6B2g    4.471468  
       6B3g    4.471468     2Au     4.483669     9B1u    4.483672  
      10B1u    4.634008    11B1u    4.921838     3Au     4.921838  
       7B3u    5.001634     7B2u    5.001634    12Ag     5.101082  
      12B1u    5.702842     7B3g    6.427348     7B2g    6.427348  
      13Ag     6.496716    13B1u   16.092196  

    Beta Occupied:                                                        

       1Ag   -14.420445     1B1u  -14.418593     2Ag    -1.131436  
       2B1u   -0.554656     1B2u   -0.470991     1B3u   -0.470991  
       3Ag    -0.434492  

    Beta Virtual:                                                         

       1B2g   -0.025994     1B3g   -0.025994     3B1u    0.293997  
       2B2u    0.388776     2B3u    0.388776     4Ag     0.409707  
       5Ag     0.486528     2B2g    0.532421     2B3g    0.532421  
       4B1u    0.692584     1B1g    0.833368     6Ag     0.833368  
       5B1u    0.871838     3B2u    1.097418     3B3u    1.097418  
       1Au     1.267004     6B1u    1.267004     7Ag     1.680422  
       3B2g    1.682615     3B3g    1.682615     7B1u    1.922063  
       4B2u    2.738364     4B3u    2.738364     8Ag     2.914526  
       4B3g    3.083995     4B2g    3.083995     8B1u    3.356561  
       2B1g    3.462473     9Ag     3.462473     5B3u    3.594486  
       5B2u    3.594486     6B3u    3.596604     6B2u    3.596604  
      10Ag     3.963748     5B2g    4.080370     5B3g    4.080370  
       3B1g    4.349808    11Ag     4.349811     6B2g    4.471468  
       6B3g    4.471468     2Au     4.483669     9B1u    4.483672  
      10B1u    4.634008    11B1u    4.921838     3Au     4.921838  
       7B3u    5.001634     7B2u    5.001634    12Ag     5.101082  
      12B1u    5.702842     7B3g    6.427348     7B2g    6.427348  
      13Ag     6.496716    13B1u   16.092196  

    Final Occupation by Irrep:
             Ag   B1g   B2g   B3g    Au   B1u   B2u   B3u 
    DOCC [     3,    0,    0,    0,    0,    2,    1,    1 ]
    SOCC [     0,    0,    0,    0,    0,    0,    0,    0 ]
    NA   [     3,    0,    0,    0,    0,    2,    1,    1 ]
    NB   [     3,    0,    0,    0,    0,    2,    1,    1 ]

  @DF-UKS Final Energy:  -109.56840433630897

   => Energetics <=

    Nuclear Repulsion Energy =             23.7244265846214297
    One-Electron Energy =                -194.8069669212551105
    Two-Electron Energy =                  72.6001707407777275
    DFT Exchange-Correlation Energy =     -11.0860347404530160
    Empirical Dispersion Energy =           0.0000000000000000
    VV10 Nonlocal Energy =                  0.0000000000000000
    Total Energy =                       -109.5684043363089728

  UHF NO Occupations:
  HONO-2 :    1B1u 2.0000000
  HONO-1 :    2B1u 2.0000000
  HONO-0 :    3 Ag 2.0000000
  LUNO+0 :    3B1u 0.0000000
  LUNO+1 :    4 Ag 0.0000000
  LUNO+2 :    2B3u 0.0000000
  LUNO+3 :    4B1u 0.0000000


Computation Completed


Properties will be evaluated at   0.000000,   0.000000,   0.000000 [a0]

Properties computed using the SCF density matrix


 Multipole Moments:

 ------------------------------------------------------------------------------------
     Multipole            Electronic (a.u.)      Nuclear  (a.u.)        Total (a.u.)
 ------------------------------------------------------------------------------------

 L = 1.  Multiply by 2.5417464519 to convert [e a0] to [Debye]
 Dipole X            :          0.0000000            0.0000000            0.0000000
 Dipole Y            :          0.0000000            0.0000000            0.0000000
 Dipole Z            :          0.0000000           -0.0000000           -0.0000000
 Magnitude           :                                                    0.0000000

 ------------------------------------------------------------------------------------

*** tstop() called on Mac.lan at Sun Aug 10 17:05:12 2025
Module time:
	user time   =      10.92 seconds =       0.18 minutes
	system time =       1.30 seconds =       0.02 minutes
	total time  =          1 seconds =       0.02 minutes
Total time:
	user time   =      27.63 seconds =       0.46 minutes
	system time =       2.99 seconds =       0.05 minutes
	total time  =          3 seconds =       0.05 minutes

*** tstart() called on Mac.lan
*** at Sun Aug 10 17:05:12 2025


         ------------------------------------------------------------
                                   SCF GRAD                          
                          Rob Parrish, Justin Turney,                
                       Andy Simmonett, and Alex Sokolov              
         ------------------------------------------------------------

  ==> Geometry <==

    Molecular point group: d2h
    Full point group: D_inf_h

    Geometry (in Angstrom), charge = 0, multiplicity = 1:

       Center              X                  Y                   Z               Mass       
    ------------   -----------------  -----------------  -----------------  -----------------
         N            0.000000000000     0.000000000000    -0.546476502400    14.003074004430
         N            0.000000000000     0.000000000000     0.546476502400    14.003074004430

  Nuclear repulsion =   23.724426584621430

  ==> Basis Set <==

  Basis Set: CC-PVTZ
    Blend: CC-PVTZ
    Number of shells: 20
    Number of basis functions: 60
    Number of Cartesian functions: 70
    Spherical Harmonics?: true
    Max angular momentum: 3

  ==> DFJKGrad: Density-Fitted SCF Gradients <==

    Gradient:                    1
    J tasked:                  Yes
    K tasked:                  Yes
    wK tasked:                  No
    OpenMP threads:              1
    Integrals threads:           1
    Memory [MiB]:              375
    Schwarz Cutoff:          1E-12
    Fitting Condition:       1E-10

   => Auxiliary Basis Set <=

  Basis Set: (CC-PVTZ AUX)
    Blend: CC-PVTZ-JKFIT
    Number of shells: 50
    Number of basis functions: 158
    Number of Cartesian functions: 192
    Spherical Harmonics?: true
    Max angular momentum: 4

  ==> DFT Potential <==

   => LibXC <=

    Version 6.2.2
    S. Lehtola, C. Steigemann, M. J.T. Oliveira, and M. A.L. Marques.,  SoftwareX 7, 1–5 (2018) (10.1016/j.softx.2017.11.002)

   => Composite Functional: B3LYP <= 

    B3LYP Hyb-GGA Exchange-Correlation Functional

    P. J. Stephens, F. J. Devlin, C. F. Chabalowski, and M. J. Frisch.,  J. Phys. Chem. 98, 11623 (1994) (10.1021/j100096a001)

    Deriv               =              1
    GGA                 =           TRUE
    Meta                =          FALSE

    Exchange Hybrid     =           TRUE
    MP2 Hybrid          =          FALSE

   => Exchange Functionals <=

    0.0800   Slater exchange
    0.7200         Becke 88

   => Exact (HF) Exchange <=

    0.2000               HF 

   => Correlation Functionals <=

    0.1900   Vosko, Wilk & Nusair (VWN5_RPA)
    0.8100   Lee, Yang & Parr

   => LibXC Density Thresholds  <==

    XC_HYB_GGA_XC_B3LYP:  1.00E-15 

   => Molecular Quadrature <=

    Radial Scheme          =       TREUTLER
    Pruning Scheme         =           NONE
    Nuclear Scheme         =       TREUTLER

    Blocking Scheme        =         OCTREE
    BS radius alpha        =              1
    Pruning alpha          =              1
    Radial Points          =             75
    Spherical Points       =            302
    Total Points           =          42426
    Total Blocks           =            376
    Max Points             =            256
    Max Functions          =             60
    Weights Tolerance      =       1.00E-15


  -Total Gradient:
     Atom            X                  Y                   Z
    ------   -----------------  -----------------  -----------------
       1        0.000000000000     0.000000000000    -0.004641234660
       2        0.000000000000    -0.000000000000     0.004641234660


*** tstop() called on Mac.lan at Sun Aug 10 17:05:13 2025
Module time:
	user time   =       3.48 seconds =       0.06 minutes
	system time =       0.25 seconds =       0.00 minutes
	total time  =          1 seconds =       0.02 minutes
Total time:
	user time   =      31.12 seconds =       0.52 minutes
	system time =       3.24 seconds =       0.05 minutes
	total time  =          4 seconds =       0.07 minutes

    			-----------------------------------------

    			 OPTKING 3.0: for geometry optimizations 

    			     By R.A. King, Bethel University     

    			        with contributions from          

    			    A.V. Copan, J. Cayton, A. Heide      

    			-----------------------------------------

    
	                            ===> Fragment 1 <== 

	 Z (Atomic Numbers)          Masses                          Geom                  
	       7.000000            14.003074          0.00000000  0.00000000 -1.03269092   
	       7.000000            14.003074          0.00000000  0.00000000  1.03269092   

	 - Coordinate -           - BOHR/RAD -       - ANG/DEG -
	 R(1,2)           =         2.065382           1.092953


	        --- Internal Coordinate Step in ANG or DEG, aJ/ANG or AJ/DEG ---
	-------------------------------------------------------------------------------
	           Coordinate      Previous         Force          Change          New 
	           ----------      --------        ------          ------        ------
	               R(1,2)       1.09295       -0.03824       -0.00163       1.09133
	-------------------------------------------------------------------------------

	                                 ==> Convergence Check <==                                  
    
	Measures of convergence in internal coordinates in au.
    
	Criteria marked as inactive (o), active & met (*), and active & unmet ( ).

	----------------------------------------------------------------------------------------------
	   Step    Total Energy     Delta E     Max Force     RMS Force      Max Disp      RMS Disp   
	----------------------------------------------------------------------------------------------
	  Convergence Criteria     1.00e-06 *    3.00e-04 *             o    1.20e-03 *             o
	----------------------------------------------------------------------------------------------
	     2    -109.56840434   -4.61e-04      4.64e-03      4.64e-03 o    3.07e-03      3.07e-03 o  ~
	----------------------------------------------------------------------------------------------

Next Geometry in Ang 
	Fragment 1 (Ang)

	    N   0.0000000000   0.0000000000  -0.5456633210
	    N   0.0000000000   0.0000000000   0.5456633210


    Structure for next step:
    Molecular point group: d2h
    Full point group: D_inf_h

    Geometry (in Angstrom), charge = 0, multiplicity = 1:

    N            0.000000000000     0.000000000000    -0.545663321017
    N            0.000000000000     0.000000000000     0.545663321017


Scratch directory: /tmp/
gradient() will perform analytic gradient computation.
   => Libint2 <=

    Primary   basis highest AM E, G, H:  6, 6, 3
    Auxiliary basis highest AM E, G, H:  7, 7, 4
    Onebody   basis highest AM E, G, H:  -, -, -
    Solid Harmonics ordering:            Gaussian

*** tstart() called on Mac.lan
*** at Sun Aug 10 17:05:13 2025

   => Loading Basis Set <=

    Name: CC-PVTZ
    Role: ORBITAL
    Keyword: BASIS
    atoms 1-2 entry N          line   224 file /Users/joseantoniorodriguesromero/anaconda3/share/psi4/basis/cc-pvtz.gbs 


         ---------------------------------------------------------
                                   SCF
               by Justin Turney, Rob Parrish, Andy Simmonett
                          and Daniel G. A. Smith
                              UKS Reference
                        1 Threads,    500 MiB Core
         ---------------------------------------------------------

  ==> Geometry <==

    Molecular point group: d2h
    Full point group: D_inf_h

    Geometry (in Angstrom), charge = 0, multiplicity = 1:

       Center              X                  Y                   Z               Mass       
    ------------   -----------------  -----------------  -----------------  -----------------
         N            0.000000000000     0.000000000000    -0.545663321017    14.003074004430
         N            0.000000000000     0.000000000000     0.545663321017    14.003074004430

  Running in d2h symmetry.

  Rotational constants: A = ************  B =      2.02159  C =      2.02159 [cm^-1]
  Rotational constants: A = ************  B =  60605.81501  C =  60605.81501 [MHz]
  Nuclear repulsion =   23.759782199126629

  Charge       = 0
  Multiplicity = 1
  Electrons    = 14
  Nalpha       = 7
  Nbeta        = 7

  ==> Algorithm <==

  SCF Algorithm Type is DF.
  DIIS enabled.
  MOM disabled.
  Fractional occupation disabled.
  Guess Type is READ.
  Energy threshold   = 1.00e-08
  Density threshold  = 1.00e-08
  Integral threshold = 1.00e-12

  ==> Primary Basis <==

  Basis Set: CC-PVTZ
    Blend: CC-PVTZ
    Number of shells: 20
    Number of basis functions: 60
    Number of Cartesian functions: 70
    Spherical Harmonics?: true
    Max angular momentum: 3

  ==> DFT Potential <==

   => LibXC <=

    Version 6.2.2
    S. Lehtola, C. Steigemann, M. J.T. Oliveira, and M. A.L. Marques.,  SoftwareX 7, 1–5 (2018) (10.1016/j.softx.2017.11.002)

   => Composite Functional: B3LYP <= 

    B3LYP Hyb-GGA Exchange-Correlation Functional

    P. J. Stephens, F. J. Devlin, C. F. Chabalowski, and M. J. Frisch.,  J. Phys. Chem. 98, 11623 (1994) (10.1021/j100096a001)

    Deriv               =              1
    GGA                 =           TRUE
    Meta                =          FALSE

    Exchange Hybrid     =           TRUE
    MP2 Hybrid          =          FALSE

   => Exchange Functionals <=

    0.0800   Slater exchange
    0.7200         Becke 88

   => Exact (HF) Exchange <=

    0.2000               HF 

   => Correlation Functionals <=

    0.1900   Vosko, Wilk & Nusair (VWN5_RPA)
    0.8100   Lee, Yang & Parr

   => LibXC Density Thresholds  <==

    XC_HYB_GGA_XC_B3LYP:  1.00E-15 

   => Molecular Quadrature <=

    Radial Scheme          =       TREUTLER
    Pruning Scheme         =           NONE
    Nuclear Scheme         =       TREUTLER

    Blocking Scheme        =         OCTREE
    BS radius alpha        =              1
    Pruning alpha          =              1
    Radial Points          =             75
    Spherical Points       =            302
    Total Points           =          42426
    Total Blocks           =            376
    Max Points             =            256
    Max Functions          =             60
    Weights Tolerance      =       1.00E-15

   => Loading Basis Set <=

    Name: (CC-PVTZ AUX)
    Role: JKFIT
    Keyword: DF_BASIS_SCF
    atoms 1-2 entry N          line   177 file /Users/joseantoniorodriguesromero/anaconda3/share/psi4/basis/cc-pvtz-jkfit.gbs 

   => Loading Basis Set <=

    Name: CC-PVTZ
    Role: ORBITAL
    Keyword: BASIS
    atoms 1-2 entry N          line   224 file /Users/joseantoniorodriguesromero/anaconda3/share/psi4/basis/cc-pvtz.gbs 

  Reading orbitals from file /tmp/scan_NN.default.48206.180.npy, no projection.

  ==> Integral Setup <==

  DFHelper Memory: AOs need 0.005 GiB; user supplied 0.295 GiB. 
  Using in-core AOs.

  ==> MemDFJK: Density-Fitted J/K Matrices <==

    J tasked:                   Yes
    K tasked:                   Yes
    wK tasked:                   No
    OpenMP threads:               1
    Memory [MiB]:               302
    Algorithm:                 Core
    Schwarz Cutoff:           1E-12
    Mask sparsity (%):       0.0000
    Fitting Condition:        1E-10

   => Auxiliary Basis Set <=

  Basis Set: (CC-PVTZ AUX)
    Blend: CC-PVTZ-JKFIT
    Number of shells: 50
    Number of basis functions: 158
    Number of Cartesian functions: 192
    Spherical Harmonics?: true
    Max angular momentum: 4

  Cached 100.0% of DFT collocation blocks in 0.071 [GiB].

  Minimum eigenvalue in the overlap matrix is 2.2378947503E-03.
  Reciprocal condition number of the overlap matrix is 5.9553792944E-04.
    Using symmetric orthogonalization.

  ==> Pre-Iterations <==

  SCF Guess: Orbitals guess was supplied from a previous computation.

   -------------------------------------------------------
    Irrep   Nso     Nmo     Nalpha   Nbeta   Ndocc  Nsocc
   -------------------------------------------------------
     Ag        13      13       3       3       3       0
     B1g        3       3       0       0       0       0
     B2g        7       7       0       0       0       0
     B3g        7       7       0       0       0       0
     Au         3       3       0       0       0       0
     B1u       13      13       2       2       2       0
     B2u        7       7       1       1       1       0
     B3u        7       7       1       1       1       0
   -------------------------------------------------------
    Total      60      60       7       7       7       0
   -------------------------------------------------------

  ==> Iterations <==

                           Total Energy        Delta E     RMS |[F,P]|

   @DF-UKS iter   0:  -109.56939522639892   -1.09569e+02   3.36569e-04 
   @DF-UKS iter   1:  -109.56841061837950    9.84608e-04   4.47799e-05 DIIS
   @DF-UKS iter   2:  -109.56841093352480   -3.15145e-07   3.16386e-05 DIIS/DAMP=1%
   @DF-UKS iter   3:  -109.56843124036176   -2.03068e-05   1.88848e-06 DIIS/DAMP=1%
   @DF-UKS iter   4:  -109.56841052312492    2.07172e-05   5.34729e-07 DIIS/DAMP=1%
   @DF-UKS iter   5:  -109.56841149307742   -9.69952e-07   2.72034e-08 DIIS/DAMP=1%
   @DF-UKS iter   6:  -109.56841116075223    3.32325e-07   1.49560e-09 DIIS/DAMP=1%
   @DF-UKS iter   7:  -109.56841114778189    1.29703e-08   9.09394e-11 DIIS/DAMP=1%
   @DF-UKS iter   8:  -109.56841114683503    9.46855e-10   6.17379e-12 DIIS/DAMP=1%
  Energy and wave function converged.


  ==> Post-Iterations <==

   Electrons on quadrature grid:
      Nalpha   =    6.9999999580 ; deviation = -4.198e-08
      Nbeta    =    6.9999999580 ; deviation = -4.198e-08
      Ntotal   =   13.9999999160 ; deviation = -8.397e-08 

   @Spin Contamination Metric:  -1.776356839E-15
   @S^2 Expected:                0.000000000E+00
   @S^2 Observed:               -1.776356839E-15
   @S   Expected:                0.000000000E+00
   @S   Observed:                0.000000000E+00

    Orbital Energies [Eh]
    ---------------------

    Alpha Occupied:                                                       

       1Ag   -14.419979     1B1u  -14.418101     2Ag    -1.132380  
       2B1u   -0.554214     1B2u   -0.471514     1B3u   -0.471514  
       3Ag    -0.434569  

    Alpha Virtual:                                                        

       1B3g   -0.025226     1B2g   -0.025226     3B1u    0.294221  
       2B3u    0.388576     2B2u    0.388576     4Ag     0.409526  
       5Ag     0.486630     2B2g    0.532638     2B3g    0.532638  
       4B1u    0.694346     1B1g    0.833254     6Ag     0.833254  
       5B1u    0.873080     3B2u    1.098452     3B3u    1.098452  
       1Au     1.267605     6B1u    1.267605     7Ag     1.680248  
       3B2g    1.682867     3B3g    1.682867     7B1u    1.925255  
       4B3u    2.738302     4B2u    2.738302     8Ag     2.915479  
       4B3g    3.085511     4B2g    3.085511     8B1u    3.355540  
       2B1g    3.462950     9Ag     3.462950     5B2u    3.595739  
       5B3u    3.595739     6B3u    3.595760     6B2u    3.595760  
      10Ag     3.965621     5B3g    4.081633     5B2g    4.081633  
       3B1g    4.350097    11Ag     4.350100     6B2g    4.469883  
       6B3g    4.469883     2Au     4.484058     9B1u    4.484061  
      10B1u    4.638190    11B1u    4.925312     3Au     4.925312  
       7B2u    5.003979     7B3u    5.003979    12Ag     5.098420  
      12B1u    5.708040     7B3g    6.434401     7B2g    6.434401  
      13Ag     6.507786    13B1u   16.150085  

    Beta Occupied:                                                        

       1Ag   -14.419979     1B1u  -14.418101     2Ag    -1.132380  
       2B1u   -0.554214     1B2u   -0.471514     1B3u   -0.471514  
       3Ag    -0.434569  

    Beta Virtual:                                                         

       1B3g   -0.025226     1B2g   -0.025226     3B1u    0.294221  
       2B3u    0.388576     2B2u    0.388576     4Ag     0.409526  
       5Ag     0.486630     2B2g    0.532638     2B3g    0.532638  
       4B1u    0.694346     1B1g    0.833254     6Ag     0.833254  
       5B1u    0.873080     3B2u    1.098452     3B3u    1.098452  
       1Au     1.267605     6B1u    1.267605     7Ag     1.680248  
       3B2g    1.682867     3B3g    1.682867     7B1u    1.925255  
       4B3u    2.738302     4B2u    2.738302     8Ag     2.915479  
       4B3g    3.085511     4B2g    3.085511     8B1u    3.355540  
       2B1g    3.462950     9Ag     3.462950     5B2u    3.595739  
       5B3u    3.595739     6B3u    3.595760     6B2u    3.595760  
      10Ag     3.965621     5B3g    4.081633     5B2g    4.081633  
       3B1g    4.350097    11Ag     4.350100     6B2g    4.469883  
       6B3g    4.469883     2Au     4.484058     9B1u    4.484061  
      10B1u    4.638190    11B1u    4.925312     3Au     4.925312  
       7B2u    5.003979     7B3u    5.003979    12Ag     5.098420  
      12B1u    5.708040     7B3g    6.434401     7B2g    6.434401  
      13Ag     6.507786    13B1u   16.150085  

    Final Occupation by Irrep:
             Ag   B1g   B2g   B3g    Au   B1u   B2u   B3u 
    DOCC [     3,    0,    0,    0,    0,    2,    1,    1 ]
    SOCC [     0,    0,    0,    0,    0,    0,    0,    0 ]
    NA   [     3,    0,    0,    0,    0,    2,    1,    1 ]
    NB   [     3,    0,    0,    0,    0,    2,    1,    1 ]

  @DF-UKS Final Energy:  -109.56841114683503

   => Energetics <=

    Nuclear Repulsion Energy =             23.7597821991266294
    One-Electron Energy =                -194.8751959344090778
    Two-Electron Energy =                  72.6347291732896849
    DFT Exchange-Correlation Energy =     -11.0877265848422617
    Empirical Dispersion Energy =           0.0000000000000000
    VV10 Nonlocal Energy =                  0.0000000000000000
    Total Energy =                       -109.5684111468350324

  UHF NO Occupations:
  HONO-2 :    1B3u 2.0000000
  HONO-1 :    2 Ag 2.0000000
  HONO-0 :    3 Ag 2.0000000
  LUNO+0 :    4 Ag 0.0000000
  LUNO+1 :    3B1u 0.0000000
  LUNO+2 :    4B1u 0.0000000
  LUNO+3 :    5 Ag 0.0000000


Computation Completed


Properties will be evaluated at   0.000000,   0.000000,   0.000000 [a0]

Properties computed using the SCF density matrix


 Multipole Moments:

 ------------------------------------------------------------------------------------
     Multipole            Electronic (a.u.)      Nuclear  (a.u.)        Total (a.u.)
 ------------------------------------------------------------------------------------

 L = 1.  Multiply by 2.5417464519 to convert [e a0] to [Debye]
 Dipole X            :          0.0000000            0.0000000            0.0000000
 Dipole Y            :          0.0000000            0.0000000            0.0000000
 Dipole Z            :          0.0000000           -0.0000000           -0.0000000
 Magnitude           :                                                    0.0000000

 ------------------------------------------------------------------------------------

*** tstop() called on Mac.lan at Sun Aug 10 17:05:14 2025
Module time:
	user time   =      11.42 seconds =       0.19 minutes
	system time =       0.85 seconds =       0.01 minutes
	total time  =          1 seconds =       0.02 minutes
Total time:
	user time   =      42.77 seconds =       0.71 minutes
	system time =       4.09 seconds =       0.07 minutes
	total time  =          5 seconds =       0.08 minutes

*** tstart() called on Mac.lan
*** at Sun Aug 10 17:05:14 2025


         ------------------------------------------------------------
                                   SCF GRAD                          
                          Rob Parrish, Justin Turney,                
                       Andy Simmonett, and Alex Sokolov              
         ------------------------------------------------------------

  ==> Geometry <==

    Molecular point group: d2h
    Full point group: D_inf_h

    Geometry (in Angstrom), charge = 0, multiplicity = 1:

       Center              X                  Y                   Z               Mass       
    ------------   -----------------  -----------------  -----------------  -----------------
         N            0.000000000000     0.000000000000    -0.545663321017    14.003074004430
         N            0.000000000000     0.000000000000     0.545663321017    14.003074004430

  Nuclear repulsion =   23.759782199126629

  ==> Basis Set <==

  Basis Set: CC-PVTZ
    Blend: CC-PVTZ
    Number of shells: 20
    Number of basis functions: 60
    Number of Cartesian functions: 70
    Spherical Harmonics?: true
    Max angular momentum: 3

  ==> DFJKGrad: Density-Fitted SCF Gradients <==

    Gradient:                    1
    J tasked:                  Yes
    K tasked:                  Yes
    wK tasked:                  No
    OpenMP threads:              1
    Integrals threads:           1
    Memory [MiB]:              375
    Schwarz Cutoff:          1E-12
    Fitting Condition:       1E-10

   => Auxiliary Basis Set <=

  Basis Set: (CC-PVTZ AUX)
    Blend: CC-PVTZ-JKFIT
    Number of shells: 50
    Number of basis functions: 158
    Number of Cartesian functions: 192
    Spherical Harmonics?: true
    Max angular momentum: 4

  ==> DFT Potential <==

   => LibXC <=

    Version 6.2.2
    S. Lehtola, C. Steigemann, M. J.T. Oliveira, and M. A.L. Marques.,  SoftwareX 7, 1–5 (2018) (10.1016/j.softx.2017.11.002)

   => Composite Functional: B3LYP <= 

    B3LYP Hyb-GGA Exchange-Correlation Functional

    P. J. Stephens, F. J. Devlin, C. F. Chabalowski, and M. J. Frisch.,  J. Phys. Chem. 98, 11623 (1994) (10.1021/j100096a001)

    Deriv               =              1
    GGA                 =           TRUE
    Meta                =          FALSE

    Exchange Hybrid     =           TRUE
    MP2 Hybrid          =          FALSE

   => Exchange Functionals <=

    0.0800   Slater exchange
    0.7200         Becke 88

   => Exact (HF) Exchange <=

    0.2000               HF 

   => Correlation Functionals <=

    0.1900   Vosko, Wilk & Nusair (VWN5_RPA)
    0.8100   Lee, Yang & Parr

   => LibXC Density Thresholds  <==

    XC_HYB_GGA_XC_B3LYP:  1.00E-15 

   => Molecular Quadrature <=

    Radial Scheme          =       TREUTLER
    Pruning Scheme         =           NONE
    Nuclear Scheme         =       TREUTLER

    Blocking Scheme        =         OCTREE
    BS radius alpha        =              1
    Pruning alpha          =              1
    Radial Points          =             75
    Spherical Points       =            302
    Total Points           =          42426
    Total Blocks           =            376
    Max Points             =            256
    Max Functions          =             60
    Weights Tolerance      =       1.00E-15


  -Total Gradient:
     Atom            X                  Y                   Z
    ------   -----------------  -----------------  -----------------
       1        0.000000000000     0.000000000000     0.000221605683
       2        0.000000000000    -0.000000000000    -0.000221605683


*** tstop() called on Mac.lan at Sun Aug 10 17:05:14 2025
Module time:
	user time   =       3.69 seconds =       0.06 minutes
	system time =       0.28 seconds =       0.00 minutes
	total time  =          0 seconds =       0.00 minutes
Total time:
	user time   =      46.47 seconds =       0.77 minutes
	system time =       4.37 seconds =       0.07 minutes
	total time  =          5 seconds =       0.08 minutes

    			-----------------------------------------

    			 OPTKING 3.0: for geometry optimizations 

    			     By R.A. King, Bethel University     

    			        with contributions from          

    			    A.V. Copan, J. Cayton, A. Heide      

    			-----------------------------------------

    
	                            ===> Fragment 1 <== 

	 Z (Atomic Numbers)          Masses                          Geom                  
	       7.000000            14.003074          0.00000000  0.00000000 -1.03115423   
	       7.000000            14.003074          0.00000000  0.00000000  1.03115423   

	 - Coordinate -           - BOHR/RAD -       - ANG/DEG -
	 R(1,2)           =         2.062308           1.091327


	        --- Internal Coordinate Step in ANG or DEG, aJ/ANG or AJ/DEG ---
	-------------------------------------------------------------------------------
	           Coordinate      Previous         Force          Change          New 
	           ----------      --------        ------          ------        ------
	               R(1,2)       1.09133        0.00183        0.00008       1.09140
	-------------------------------------------------------------------------------

	                                 ==> Convergence Check <==                                  
    
	Measures of convergence in internal coordinates in au.
    
	Criteria marked as inactive (o), active & met (*), and active & unmet ( ).

	----------------------------------------------------------------------------------------------
	   Step    Total Energy     Delta E     Max Force     RMS Force      Max Disp      RMS Disp   
	----------------------------------------------------------------------------------------------
	  Convergence Criteria     1.00e-06 *    3.00e-04 *             o    1.20e-03 *             o
	----------------------------------------------------------------------------------------------
	     3    -109.56841115   -6.81e-06      2.22e-04 *    2.22e-04 o    1.46e-04 *    1.46e-04 o  ~
	----------------------------------------------------------------------------------------------

Next Geometry in Ang 
	Fragment 1 (Ang)

	    N   0.0000000000   0.0000000000  -0.5457019197
	    N   0.0000000000   0.0000000000   0.5457019197


    Final optimized geometry and variables:
    Molecular point group: d2h
    Full point group: D_inf_h

    Geometry (in Angstrom), charge = 0, multiplicity = 1:

    N            0.000000000000     0.000000000000    -0.545663321017
    N            0.000000000000     0.000000000000     0.545663321017


         ----------------------------------------------------------
                                   FINDIF
                     R. A. King and Jonathon Misiewicz
         ----------------------------------------------------------

  Using finite-differences of gradients to determine vibrational frequencies and 
  normal modes. Resulting frequencies are only valid at stationary points.
    Generating geometries for use with 3-point formula.
    Displacement size will be 5.00e-03.
    Number of atoms is 2.
    Number of irreps is 8.
    Number of SALCs is 3.
    Translations projected? 1. Rotations projected? 0.
    Index of SALCs per irrep:
      1 :  0 
      2 : 
      3 :  1 
      4 :  2 
      5 : 
      6 : 
      7 : 
      8 : 
    Number of SALCs per irrep:
      Irrep 1: 1
      Irrep 2: 0
      Irrep 3: 1
      Irrep 4: 1
      Irrep 5: 0
      Irrep 6: 0
      Irrep 7: 0
      Irrep 8: 0
    Number of geometries (including reference) is 5.
    Number of displacements per irrep:
      Irrep 1: 2
      Irrep 2: 0
      Irrep 3: 1
      Irrep 4: 1
      Irrep 5: 0
      Irrep 6: 0
      Irrep 7: 0
      Irrep 8: 0
 5 displacements needed ...

  //>>>>>>>>>>>>>>>>>>>>>>>>>>>>>>>>>>>//
  //    FiniteDifference Computations  //
  //<<<<<<<<<<<<<<<<<<<<<<<<<<<<<<<<<<<//


    -----------------------------------------------------------------------
          Psi4: An Open-Source Ab Initio Electronic Structure Package
                               Psi4 1.9.1 release

                         Git: Rev {} zzzzzzz 


    D. G. A. Smith, L. A. Burns, A. C. Simmonett, R. M. Parrish,
    M. C. Schieber, R. Galvelis, P. Kraus, H. Kruse, R. Di Remigio,
    A. Alenaizan, A. M. James, S. Lehtola, J. P. Misiewicz, M. Scheurer,
    R. A. Shaw, J. B. Schriber, Y. Xie, Z. L. Glick, D. A. Sirianni,
    J. S. O'Brien, J. M. Waldrop, A. Kumar, E. G. Hohenstein,
    B. P. Pritchard, B. R. Brooks, H. F. Schaefer III, A. Yu. Sokolov,
    K. Patkowski, A. E. DePrince III, U. Bozkaya, R. A. King,
    F. A. Evangelista, J. M. Turney, T. D. Crawford, C. D. Sherrill,
    J. Chem. Phys. 152(18) 184108 (2020). https://doi.org/10.1063/5.0006002

                            Additional Code Authors
    E. T. Seidl, C. L. Janssen, E. F. Valeev, M. L. Leininger,
    J. F. Gonthier, R. M. Richard, H. R. McAlexander, M. Saitow, X. Wang,
    P. Verma, M. H. Lechner, A. Jiang, S. Behnle, A. G. Heide,
    M. F. Herbst, and D. L. Poole

             Previous Authors, Complete List of Code Contributors,
                       and Citations for Specific Modules
    https://github.com/psi4/psi4/blob/master/codemeta.json
    https://github.com/psi4/psi4/graphs/contributors
    http://psicode.org/psi4manual/master/introduction.html#citing-psifour

    -----------------------------------------------------------------------


    Psi4 started on: Sunday, 10 August 2025 05:05PM

    Process ID: 48206
    Host:       Mac.lan
    PSIDATADIR: /Users/joseantoniorodriguesromero/anaconda3/share/psi4
    Memory:     500.0 MiB
    Threads:    1
    
  ==> Input QCSchema <==

--------------------------------------------------------------------------
{'driver': 'gradient',
 'extras': {'psiapi': True, 'wfn_qcvars_only': True},
 'id': None,
 'keywords': {'DAMPING_PERCENTAGE': 1.0,
              'DIIS_MAX_VECS': 400,
              'D_CONVERGENCE': 1e-08,
              'E_CONVERGENCE': 1e-08,
              'GUESS': 'SAP',
              'MAXITER': 500,
              'MBIS_MAXITER': 8000,
              'PARENT_SYMMETRY': 'D2h',
              'REFERENCE': 'UKS',
              'function_kwargs': {}},
 'model': {'basis': 'cc-pvtz', 'method': 'b3lyp'},
 'molecule': {'atom_labels': ['', ''],
              'atomic_numbers': [7, 7],
              'extras': {},
              'fix_com': True,
              'fix_orientation': True,
              'fragment_charges': [0.0],
              'fragment_multiplicities': [1],
              'fragments': [[0, 1]],
              'geometry': [0.0, 0.0, -1.031154233429824, 0.0, 0.0, 1.031154233429824],
              'mass_numbers': [14, 14],
              'masses': [14.00307400443, 14.00307400443],
              'molecular_charge': 0.0,
              'molecular_multiplicity': 1,
              'name': 'N2',
              'provenance': {'creator': 'QCElemental',
                             'routine': 'qcelemental.molparse.from_string',
                             'version': '0.28.0'},
              'real': [True, True],
              'schema_name': 'qcschema_molecule',
              'schema_version': 2,
              'symbols': ['N', 'N'],
              'validated': True},
 'protocols': {'stdout': True},
 'provenance': {'creator': 'QCElemental', 'routine': 'qcelemental.models.results', 'version': '0.28.0'},
 'schema_name': 'qcschema_input',
 'schema_version': 1}
--------------------------------------------------------------------------

Scratch directory: /tmp/
gradient() will perform analytic gradient computation.
   => Libint2 <=

    Primary   basis highest AM E, G, H:  6, 6, 3
    Auxiliary basis highest AM E, G, H:  7, 7, 4
    Onebody   basis highest AM E, G, H:  -, -, -
    Solid Harmonics ordering:            Gaussian

*** tstart() called on Mac.lan
*** at Sun Aug 10 17:05:15 2025

   => Loading Basis Set <=

    Name: CC-PVTZ
    Role: ORBITAL
    Keyword: BASIS
    atoms 1-2 entry N          line   224 file /Users/joseantoniorodriguesromero/anaconda3/share/psi4/basis/cc-pvtz.gbs 


         ---------------------------------------------------------
                                   SCF
               by Justin Turney, Rob Parrish, Andy Simmonett
                          and Daniel G. A. Smith
                              UKS Reference
                        1 Threads,    500 MiB Core
         ---------------------------------------------------------

  ==> Geometry <==

    Molecular point group: d2h
    Full point group: D_inf_h

    Geometry (in Bohr), charge = 0, multiplicity = 1:

       Center              X                  Y                   Z               Mass       
    ------------   -----------------  -----------------  -----------------  -----------------
         N            0.000000000000     0.000000000000    -1.031154233430    14.003074004430
         N            0.000000000000     0.000000000000     1.031154233430    14.003074004430

  Running in d2h symmetry.

  Rotational constants: A = ************  B =      2.02159  C =      2.02159 [cm^-1]
  Rotational constants: A = ************  B =  60605.81501  C =  60605.81501 [MHz]
  Nuclear repulsion =   23.759782199126629

  Charge       = 0
  Multiplicity = 1
  Electrons    = 14
  Nalpha       = 7
  Nbeta        = 7

  ==> Algorithm <==

  SCF Algorithm Type is DF.
  DIIS enabled.
  MOM disabled.
  Fractional occupation disabled.
  Guess Type is SAP.
  Energy threshold   = 1.00e-08
  Density threshold  = 1.00e-08
  Integral threshold = 1.00e-12

  ==> Primary Basis <==

  Basis Set: CC-PVTZ
    Blend: CC-PVTZ
    Number of shells: 20
    Number of basis functions: 60
    Number of Cartesian functions: 70
    Spherical Harmonics?: true
    Max angular momentum: 3

  ==> DFT Potential <==

   => LibXC <=

    Version 6.2.2
    S. Lehtola, C. Steigemann, M. J.T. Oliveira, and M. A.L. Marques.,  SoftwareX 7, 1–5 (2018) (10.1016/j.softx.2017.11.002)

   => Composite Functional: B3LYP <= 

    B3LYP Hyb-GGA Exchange-Correlation Functional

    P. J. Stephens, F. J. Devlin, C. F. Chabalowski, and M. J. Frisch.,  J. Phys. Chem. 98, 11623 (1994) (10.1021/j100096a001)

    Deriv               =              1
    GGA                 =           TRUE
    Meta                =          FALSE

    Exchange Hybrid     =           TRUE
    MP2 Hybrid          =          FALSE

   => Exchange Functionals <=

    0.0800   Slater exchange
    0.7200         Becke 88

   => Exact (HF) Exchange <=

    0.2000               HF 

   => Correlation Functionals <=

    0.1900   Vosko, Wilk & Nusair (VWN5_RPA)
    0.8100   Lee, Yang & Parr

   => LibXC Density Thresholds  <==

    XC_HYB_GGA_XC_B3LYP:  1.00E-15 

   => Molecular Quadrature <=

    Radial Scheme          =       TREUTLER
    Pruning Scheme         =           NONE
    Nuclear Scheme         =       TREUTLER

    Blocking Scheme        =         OCTREE
    BS radius alpha        =              1
    Pruning alpha          =              1
    Radial Points          =             75
    Spherical Points       =            302
    Total Points           =          42426
    Total Blocks           =            376
    Max Points             =            256
    Max Functions          =             60
    Weights Tolerance      =       1.00E-15

   => Loading Basis Set <=

    Name: (CC-PVTZ AUX)
    Role: JKFIT
    Keyword: DF_BASIS_SCF
    atoms 1-2 entry N          line   177 file /Users/joseantoniorodriguesromero/anaconda3/share/psi4/basis/cc-pvtz-jkfit.gbs 

  ==> Integral Setup <==

  DFHelper Memory: AOs need 0.005 GiB; user supplied 0.295 GiB. 
  Using in-core AOs.

  ==> MemDFJK: Density-Fitted J/K Matrices <==

    J tasked:                   Yes
    K tasked:                   Yes
    wK tasked:                   No
    OpenMP threads:               1
    Memory [MiB]:               302
    Algorithm:                 Core
    Schwarz Cutoff:           1E-12
    Mask sparsity (%):       0.0000
    Fitting Condition:        1E-10

   => Auxiliary Basis Set <=

  Basis Set: (CC-PVTZ AUX)
    Blend: CC-PVTZ-JKFIT
    Number of shells: 50
    Number of basis functions: 158
    Number of Cartesian functions: 192
    Spherical Harmonics?: true
    Max angular momentum: 4

  Cached 100.0% of DFT collocation blocks in 0.071 [GiB].

  Minimum eigenvalue in the overlap matrix is 2.2378947503E-03.
  Reciprocal condition number of the overlap matrix is 5.9553792944E-04.
    Using symmetric orthogonalization.

  ==> Pre-Iterations <==

  SCF Guess: Superposition of Atomic Potentials (doi:10.1021/acs.jctc.8b01089).

  ==> SAP guess <==

   => Molecular Quadrature <=

    Radial Scheme          =       TREUTLER
    Pruning Scheme         =           NONE
    Nuclear Scheme         =       TREUTLER

    Blocking Scheme        =         OCTREE
    BS radius alpha        =              1
    Pruning alpha          =              1
    Radial Points          =             75
    Spherical Points       =            302
    Total Points           =          42426
    Total Blocks           =            376
    Max Points             =            256
    Max Functions          =             60
    Weights Tolerance      =       1.00E-15

   -------------------------------------------------------
    Irrep   Nso     Nmo     Nalpha   Nbeta   Ndocc  Nsocc
   -------------------------------------------------------
     Ag        13      13       3       3       3       0
     B1g        3       3       0       0       0       0
     B2g        7       7       0       0       0       0
     B3g        7       7       0       0       0       0
     Au         3       3       0       0       0       0
     B1u       13      13       2       2       2       0
     B2u        7       7       1       1       1       0
     B3u        7       7       1       1       1       0
   -------------------------------------------------------
    Total      60      60       7       7       7       0
   -------------------------------------------------------

  ==> Iterations <==

                           Total Energy        Delta E     RMS |[F,P]|

   @DF-UKS iter   1:  -109.42426262171858   -1.09424e+02   2.74483e-02 ADIIS/DIIS
   @DF-UKS iter   2:  -109.49326352153538   -6.90009e-02   1.84360e-02 ADIIS/DIIS/DAMP=1%
   @DF-UKS iter   3:  -109.55355314045447   -6.02896e-02   1.95283e-03 ADIIS/DIIS/DAMP=1%
   @DF-UKS iter   4:  -109.56970809415034   -1.61550e-02   2.02232e-04 ADIIS/DIIS/DAMP=1%
   @DF-UKS iter   5:  -109.56832357285197    1.38452e-03   9.69115e-06 DIIS/DAMP=1%
   @DF-UKS iter   6:  -109.56840813842197   -8.45656e-05   1.06269e-06 DIIS/DAMP=1%
   @DF-UKS iter   7:  -109.56841056657730   -2.42816e-06   3.04155e-08 DIIS/DAMP=1%
   @DF-UKS iter   8:  -109.56841112960089   -5.63024e-07   5.41997e-09 DIIS/DAMP=1%
   @DF-UKS iter   9:  -109.56841114309614   -1.34953e-08   8.44891e-11 DIIS/DAMP=1%
   @DF-UKS iter  10:  -109.56841114674195   -3.64581e-09   2.03034e-11 DIIS/DAMP=1%
  Energy and wave function converged.


  ==> Post-Iterations <==

   Electrons on quadrature grid:
      Nalpha   =    6.9999999580 ; deviation = -4.198e-08
      Nbeta    =    6.9999999580 ; deviation = -4.198e-08
      Ntotal   =   13.9999999160 ; deviation = -8.397e-08 

   @Spin Contamination Metric:  -4.440892099E-15
   @S^2 Expected:                0.000000000E+00
   @S^2 Observed:               -4.440892099E-15
   @S   Expected:                0.000000000E+00
   @S   Observed:                0.000000000E+00

    Orbital Energies [Eh]
    ---------------------

    Alpha Occupied:                                                       

       1Ag   -14.419979     1B1u  -14.418101     2Ag    -1.132380  
       2B1u   -0.554214     1B2u   -0.471514     1B3u   -0.471514  
       3Ag    -0.434569  

    Alpha Virtual:                                                        

       1B3g   -0.025226     1B2g   -0.025226     3B1u    0.294221  
       2B3u    0.388576     2B2u    0.388576     4Ag     0.409526  
       5Ag     0.486630     2B2g    0.532638     2B3g    0.532638  
       4B1u    0.694346     1B1g    0.833254     6Ag     0.833254  
       5B1u    0.873080     3B2u    1.098452     3B3u    1.098452  
       1Au     1.267605     6B1u    1.267605     7Ag     1.680248  
       3B2g    1.682867     3B3g    1.682867     7B1u    1.925255  
       4B3u    2.738302     4B2u    2.738302     8Ag     2.915479  
       4B3g    3.085511     4B2g    3.085511     8B1u    3.355540  
       2B1g    3.462950     9Ag     3.462950     5B2u    3.595739  
       5B3u    3.595739     6B3u    3.595760     6B2u    3.595760  
      10Ag     3.965621     5B3g    4.081633     5B2g    4.081633  
       3B1g    4.350097    11Ag     4.350100     6B2g    4.469883  
       6B3g    4.469883     2Au     4.484058     9B1u    4.484061  
      10B1u    4.638190    11B1u    4.925312     3Au     4.925312  
       7B2u    5.003979     7B3u    5.003979    12Ag     5.098420  
      12B1u    5.708040     7B3g    6.434401     7B2g    6.434401  
      13Ag     6.507786    13B1u   16.150085  

    Beta Occupied:                                                        

       1Ag   -14.419979     1B1u  -14.418101     2Ag    -1.132380  
       2B1u   -0.554214     1B2u   -0.471514     1B3u   -0.471514  
       3Ag    -0.434569  

    Beta Virtual:                                                         

       1B3g   -0.025226     1B2g   -0.025226     3B1u    0.294221  
       2B3u    0.388576     2B2u    0.388576     4Ag     0.409526  
       5Ag     0.486630     2B2g    0.532638     2B3g    0.532638  
       4B1u    0.694346     1B1g    0.833254     6Ag     0.833254  
       5B1u    0.873080     3B2u    1.098452     3B3u    1.098452  
       1Au     1.267605     6B1u    1.267605     7Ag     1.680248  
       3B2g    1.682867     3B3g    1.682867     7B1u    1.925255  
       4B3u    2.738302     4B2u    2.738302     8Ag     2.915479  
       4B3g    3.085511     4B2g    3.085511     8B1u    3.355540  
       2B1g    3.462950     9Ag     3.462950     5B2u    3.595739  
       5B3u    3.595739     6B3u    3.595760     6B2u    3.595760  
      10Ag     3.965621     5B3g    4.081633     5B2g    4.081633  
       3B1g    4.350097    11Ag     4.350100     6B2g    4.469883  
       6B3g    4.469883     2Au     4.484058     9B1u    4.484061  
      10B1u    4.638190    11B1u    4.925312     3Au     4.925312  
       7B2u    5.003979     7B3u    5.003979    12Ag     5.098420  
      12B1u    5.708040     7B3g    6.434401     7B2g    6.434401  
      13Ag     6.507786    13B1u   16.150085  

    Final Occupation by Irrep:
             Ag   B1g   B2g   B3g    Au   B1u   B2u   B3u 
    DOCC [     3,    0,    0,    0,    0,    2,    1,    1 ]
    SOCC [     0,    0,    0,    0,    0,    0,    0,    0 ]
    NA   [     3,    0,    0,    0,    0,    2,    1,    1 ]
    NB   [     3,    0,    0,    0,    0,    2,    1,    1 ]

  @DF-UKS Final Energy:  -109.56841114674195

   => Energetics <=

    Nuclear Repulsion Energy =             23.7597821991266294
    One-Electron Energy =                -194.8751959311724988
    Two-Electron Energy =                  72.6347291697945110
    DFT Exchange-Correlation Energy =     -11.0877265844905786
    Empirical Dispersion Energy =           0.0000000000000000
    VV10 Nonlocal Energy =                  0.0000000000000000
    Total Energy =                       -109.5684111467419513

  UHF NO Occupations:
  HONO-2 :    2 Ag 2.0000000
  HONO-1 :    1B2u 2.0000000
  HONO-0 :    3 Ag 2.0000000
  LUNO+0 :    4 Ag 0.0000000
  LUNO+1 :    3B1u 0.0000000
  LUNO+2 :    5 Ag 0.0000000
  LUNO+3 :    2B2u 0.0000000


Computation Completed


Properties will be evaluated at   0.000000,   0.000000,   0.000000 [a0]

Properties computed using the SCF density matrix


 Multipole Moments:

 ------------------------------------------------------------------------------------
     Multipole            Electronic (a.u.)      Nuclear  (a.u.)        Total (a.u.)
 ------------------------------------------------------------------------------------

 L = 1.  Multiply by 2.5417464519 to convert [e a0] to [Debye]
 Dipole X            :          0.0000000            0.0000000            0.0000000
 Dipole Y            :          0.0000000            0.0000000            0.0000000
 Dipole Z            :          0.0000000           -0.0000000           -0.0000000
 Magnitude           :                                                    0.0000000

 ------------------------------------------------------------------------------------

*** tstop() called on Mac.lan at Sun Aug 10 17:05:16 2025
Module time:
	user time   =      12.31 seconds =       0.21 minutes
[...]
      1   N                0.00  0.00  0.71   
      2   N                0.00  0.00 -0.71   

  ==> Thermochemistry Components <==

  Entropy, S
    Electronic S                             0.000 [cal/(mol K)]        0.000 [J/(mol K)]       0.00000000 [mEh/K] (multiplicity = 1)
    Translational S                         35.924 [cal/(mol K)]      150.307 [J/(mol K)]       0.05724883 [mEh/K] (mol. weight = 28.0061 [u], P = 101325.00 [Pa])
    Rotational S                             9.810 [cal/(mol K)]       41.047 [J/(mol K)]       0.01563382 [mEh/K] (symmetry no. = 2)
    Vibrational S                            0.000 [cal/(mol K)]        0.001 [J/(mol K)]       0.00000030 [mEh/K]
  Total S                                   45.735 [cal/(mol K)]      191.354 [J/(mol K)]       0.07288294 [mEh/K]
  Correction S                               0.000 [cal/(mol K)]        0.000 [J/(mol K)]       0.00000000 [mEh/K]

  Constant volume heat capacity, Cv
    Electronic Cv                            0.000 [cal/(mol K)]        0.000 [J/(mol K)]       0.00000000 [mEh/K]
    Translational Cv                         2.981 [cal/(mol K)]       12.472 [J/(mol K)]       0.00475022 [mEh/K]
    Rotational Cv                            1.987 [cal/(mol K)]        8.314 [J/(mol K)]       0.00316681 [mEh/K]
    Vibrational Cv                           0.002 [cal/(mol K)]        0.008 [J/(mol K)]       0.00000324 [mEh/K]
  Total Cv                                   4.970 [cal/(mol K)]       20.795 [J/(mol K)]       0.00792026 [mEh/K]
  Correction Cv                              0.000 [cal/(mol K)]        0.000 [J/(mol K)]       0.00000000 [mEh/K]

  Constant pressure heat capacity, Cp
    Electronic Cp                            0.000 [cal/(mol K)]        0.000 [J/(mol K)]       0.00000000 [mEh/K]
    Translational Cp                         4.968 [cal/(mol K)]       20.786 [J/(mol K)]       0.00791703 [mEh/K]
    Rotational Cp                            1.987 [cal/(mol K)]        8.314 [J/(mol K)]       0.00316681 [mEh/K]
    Vibrational Cp                           0.002 [cal/(mol K)]        0.008 [J/(mol K)]       0.00000324 [mEh/K]
  Total Cp                                   6.957 [cal/(mol K)]       29.109 [J/(mol K)]       0.01108707 [mEh/K]
  Correction Cp                              0.000 [cal/(mol K)]        0.000 [J/(mol K)]       0.00000000 [mEh/K]

  ==> Thermochemistry Energy Analysis <==

  Raw electronic energy, E_e
  Total E_e, Electronic energy at well bottom                                          -109.56841115 [Eh]

  Zero-point vibrational energy, ZPVE = Sum_i omega_i / 2,  E_0 = E_e + ZPVE
    Vibrational ZPVE                         3.504 [kcal/mol]       14.659 [kJ/mol]       0.00558326 [Eh]        1225.384 [cm^-1]
  Correction ZPVE to E_e                     3.504 [kcal/mol]       14.659 [kJ/mol]       0.00558326 [Eh]        1225.384 [cm^-1]
  Total E_0, Enthalpy at 0 [K]                                                         -109.56282788 [Eh]
  *** Absolute enthalpy, not an enthalpy of formation ***

  Thermal (internal) energy, E (includes ZPVE and finite-temperature corrections)
    Electronic contrib to E beyond E_e       0.000 [kcal/mol]        0.000 [kJ/mol]       0.00000000 [Eh]
    Translational contrib to E               0.889 [kcal/mol]        3.718 [kJ/mol]       0.00141628 [Eh]
    Rotational contrib to E                  0.592 [kcal/mol]        2.479 [kJ/mol]       0.00094418 [Eh]
    Vibrational contrib to E                 3.504 [kcal/mol]       14.659 [kJ/mol]       0.00558334 [Eh]
  Correction E                               4.985 [kcal/mol]       20.856 [kJ/mol]       0.00794380 [Eh]
  Total E, Thermal (internal) energy at  298.15 [K]                                    -109.56046734 [Eh]

  Enthalpy, H_trans = E_trans + k_B * T = E_trans + P * V
    Electronic contrib to H beyond E_e       0.000 [kcal/mol]        0.000 [kJ/mol]       0.00000000 [Eh]
    Translational contrib to H               1.481 [kcal/mol]        6.197 [kJ/mol]       0.00236046 [Eh]
    Rotational contrib to H                  0.592 [kcal/mol]        2.479 [kJ/mol]       0.00094418 [Eh]
    Vibrational contrib to H                 3.504 [kcal/mol]       14.659 [kJ/mol]       0.00558334 [Eh]
  Correction H                               5.577 [kcal/mol]       23.335 [kJ/mol]       0.00888799 [Eh]
  Total H, Enthalpy at  298.15 [K]                                                     -109.55952316 [Eh]
  *** Absolute enthalpy, not an enthalpy of formation ***

  Gibbs free energy, G = H - T * S
    Electronic contrib to G beyond E_e       0.000 [kcal/mol]        0.000 [kJ/mol]       0.00000000 [Eh]
    Translational contrib to G              -9.230 [kcal/mol]      -38.617 [kJ/mol]      -0.01470828 [Eh]
    Rotational contrib to G                 -2.332 [kcal/mol]       -9.759 [kJ/mol]      -0.00371704 [Eh]
    Vibrational contrib to G                 3.504 [kcal/mol]       14.659 [kJ/mol]       0.00558326 [Eh]
  Correction G                              -8.059 [kcal/mol]      -33.717 [kJ/mol]      -0.01284206 [Eh]
  Total G, Gibbs energy at  298.15 [K]                                                 -109.58125321 [Eh]
  *** Absolute Gibbs energy, not a free energy of formation ***


*** tstart() called on Mac.lan
*** at Sun Aug 10 17:05:23 2025

   => Libint2 <=

    Primary   basis highest AM E, G, H:  6, 6, 3
    Auxiliary basis highest AM E, G, H:  7, 7, 4
    Onebody   basis highest AM E, G, H:  -, -, -
    Solid Harmonics ordering:            Gaussian
   => Loading Basis Set <=

    Name: CC-PVTZ
    Role: ORBITAL
    Keyword: BASIS
    atoms 1-2 entry N          line   224 file /Users/joseantoniorodriguesromero/anaconda3/share/psi4/basis/cc-pvtz.gbs 


         ---------------------------------------------------------
                                   SCF
               by Justin Turney, Rob Parrish, Andy Simmonett
                          and Daniel G. A. Smith
                              UKS Reference
                        1 Threads,    500 MiB Core
         ---------------------------------------------------------

  ==> Geometry <==

    Molecular point group: d2h
    Full point group: D_inf_h

    Geometry (in Angstrom), charge = 0, multiplicity = 1:

       Center              X                  Y                   Z               Mass       
    ------------   -----------------  -----------------  -----------------  -----------------
         N            0.000000000000     0.000000000000    -0.545663321017    14.003074004430
         N            0.000000000000     0.000000000000     0.545663321017    14.003074004430

  Running in d2h symmetry.

  Rotational constants: A = ************  B =      2.02159  C =      2.02159 [cm^-1]
  Rotational constants: A = ************  B =  60605.81501  C =  60605.81501 [MHz]
  Nuclear repulsion =   23.759782199126629

  Charge       = 0
  Multiplicity = 1
  Electrons    = 14
  Nalpha       = 7
  Nbeta        = 7

  ==> Algorithm <==

  SCF Algorithm Type is DF.
  DIIS enabled.
  MOM disabled.
  Fractional occupation disabled.
  Guess Type is SAP.
  Energy threshold   = 1.00e-08
  Density threshold  = 1.00e-08
  Integral threshold = 1.00e-12

  ==> Primary Basis <==

  Basis Set: CC-PVTZ
    Blend: CC-PVTZ
    Number of shells: 20
    Number of basis functions: 60
    Number of Cartesian functions: 70
    Spherical Harmonics?: true
    Max angular momentum: 3

  ==> DFT Potential <==

   => LibXC <=

    Version 6.2.2
    S. Lehtola, C. Steigemann, M. J.T. Oliveira, and M. A.L. Marques.,  SoftwareX 7, 1–5 (2018) (10.1016/j.softx.2017.11.002)

   => Composite Functional: B3LYP <= 

    B3LYP Hyb-GGA Exchange-Correlation Functional

    P. J. Stephens, F. J. Devlin, C. F. Chabalowski, and M. J. Frisch.,  J. Phys. Chem. 98, 11623 (1994) (10.1021/j100096a001)

    Deriv               =              1
    GGA                 =           TRUE
    Meta                =          FALSE

    Exchange Hybrid     =           TRUE
    MP2 Hybrid          =          FALSE

   => Exchange Functionals <=

    0.0800   Slater exchange
    0.7200         Becke 88

   => Exact (HF) Exchange <=

    0.2000               HF 

   => Correlation Functionals <=

    0.1900   Vosko, Wilk & Nusair (VWN5_RPA)
    0.8100   Lee, Yang & Parr

   => LibXC Density Thresholds  <==

    XC_HYB_GGA_XC_B3LYP:  1.00E-15 

   => Molecular Quadrature <=

    Radial Scheme          =       TREUTLER
    Pruning Scheme         =           NONE
    Nuclear Scheme         =       TREUTLER

    Blocking Scheme        =         OCTREE
    BS radius alpha        =              1
    Pruning alpha          =              1
    Radial Points          =             75
    Spherical Points       =            302
    Total Points           =          42426
    Total Blocks           =            376
    Max Points             =            256
    Max Functions          =             60
    Weights Tolerance      =       1.00E-15

   => Loading Basis Set <=

    Name: (CC-PVTZ AUX)
    Role: JKFIT
    Keyword: DF_BASIS_SCF
    atoms 1-2 entry N          line   177 file /Users/joseantoniorodriguesromero/anaconda3/share/psi4/basis/cc-pvtz-jkfit.gbs 

  ==> Integral Setup <==

  DFHelper Memory: AOs need 0.005 GiB; user supplied 0.295 GiB. 
  Using in-core AOs.

  ==> MemDFJK: Density-Fitted J/K Matrices <==

    J tasked:                   Yes
    K tasked:                   Yes
    wK tasked:                   No
    OpenMP threads:               1
    Memory [MiB]:               302
    Algorithm:                 Core
    Schwarz Cutoff:           1E-12
    Mask sparsity (%):       0.0000
    Fitting Condition:        1E-10

   => Auxiliary Basis Set <=

  Basis Set: (CC-PVTZ AUX)
    Blend: CC-PVTZ-JKFIT
    Number of shells: 50
    Number of basis functions: 158
    Number of Cartesian functions: 192
    Spherical Harmonics?: true
    Max angular momentum: 4

  Cached 100.0% of DFT collocation blocks in 0.071 [GiB].

  Minimum eigenvalue in the overlap matrix is 2.2378947503E-03.
  Reciprocal condition number of the overlap matrix is 5.9553792944E-04.
    Using symmetric orthogonalization.

  ==> Pre-Iterations <==

  SCF Guess: Superposition of Atomic Potentials (doi:10.1021/acs.jctc.8b01089).

  ==> SAP guess <==

   => Molecular Quadrature <=

    Radial Scheme          =       TREUTLER
    Pruning Scheme         =           NONE
    Nuclear Scheme         =       TREUTLER

    Blocking Scheme        =         OCTREE
    BS radius alpha        =              1
    Pruning alpha          =              1
    Radial Points          =             75
    Spherical Points       =            302
    Total Points           =          42426
    Total Blocks           =            376
    Max Points             =            256
    Max Functions          =             60
    Weights Tolerance      =       1.00E-15

   -------------------------------------------------------
    Irrep   Nso     Nmo     Nalpha   Nbeta   Ndocc  Nsocc
   -------------------------------------------------------
     Ag        13      13       3       3       3       0
     B1g        3       3       0       0       0       0
     B2g        7       7       0       0       0       0
     B3g        7       7       0       0       0       0
     Au         3       3       0       0       0       0
     B1u       13      13       2       2       2       0
     B2u        7       7       1       1       1       0
     B3u        7       7       1       1       1       0
   -------------------------------------------------------
    Total      60      60       7       7       7       0
   -------------------------------------------------------

  ==> Iterations <==

                           Total Energy        Delta E     RMS |[F,P]|

   @DF-UKS iter   1:  -109.42426262171858   -1.09424e+02   2.74483e-02 ADIIS/DIIS
   @DF-UKS iter   2:  -109.49326352153538   -6.90009e-02   1.84360e-02 ADIIS/DIIS/DAMP=1%
   @DF-UKS iter   3:  -109.55355314045447   -6.02896e-02   1.95283e-03 ADIIS/DIIS/DAMP=1%
   @DF-UKS iter   4:  -109.56970809415034   -1.61550e-02   2.02232e-04 ADIIS/DIIS/DAMP=1%
   @DF-UKS iter   5:  -109.56832357285197    1.38452e-03   9.69115e-06 DIIS/DAMP=1%
   @DF-UKS iter   6:  -109.56840813842197   -8.45656e-05   1.06269e-06 DIIS/DAMP=1%
   @DF-UKS iter   7:  -109.56841056657730   -2.42816e-06   3.04155e-08 DIIS/DAMP=1%
   @DF-UKS iter   8:  -109.56841112960089   -5.63024e-07   5.41997e-09 DIIS/DAMP=1%
   @DF-UKS iter   9:  -109.56841114309614   -1.34953e-08   8.44891e-11 DIIS/DAMP=1%
   @DF-UKS iter  10:  -109.56841114674195   -3.64581e-09   2.03034e-11 DIIS/DAMP=1%
  Energy and wave function converged.


  ==> Post-Iterations <==

   Electrons on quadrature grid:
      Nalpha   =    6.9999999580 ; deviation = -4.198e-08
      Nbeta    =    6.9999999580 ; deviation = -4.198e-08
      Ntotal   =   13.9999999160 ; deviation = -8.397e-08 

   @Spin Contamination Metric:  -4.440892099E-15
   @S^2 Expected:                0.000000000E+00
   @S^2 Observed:               -4.440892099E-15
   @S   Expected:                0.000000000E+00
   @S   Observed:                0.000000000E+00

    Orbital Energies [Eh]
    ---------------------

    Alpha Occupied:                                                       

       1Ag   -14.419979     1B1u  -14.418101     2Ag    -1.132380  
       2B1u   -0.554214     1B2u   -0.471514     1B3u   -0.471514  
       3Ag    -0.434569  

    Alpha Virtual:                                                        

       1B3g   -0.025226     1B2g   -0.025226     3B1u    0.294221  
       2B3u    0.388576     2B2u    0.388576     4Ag     0.409526  
       5Ag     0.486630     2B2g    0.532638     2B3g    0.532638  
       4B1u    0.694346     1B1g    0.833254     6Ag     0.833254  
       5B1u    0.873080     3B2u    1.098452     3B3u    1.098452  
       1Au     1.267605     6B1u    1.267605     7Ag     1.680248  
       3B2g    1.682867     3B3g    1.682867     7B1u    1.925255  
       4B3u    2.738302     4B2u    2.738302     8Ag     2.915479  
       4B3g    3.085511     4B2g    3.085511     8B1u    3.355540  
       2B1g    3.462950     9Ag     3.462950     5B2u    3.595739  
       5B3u    3.595739     6B3u    3.595760     6B2u    3.595760  
      10Ag     3.965621     5B3g    4.081633     5B2g    4.081633  
       3B1g    4.350097    11Ag     4.350100     6B2g    4.469883  
       6B3g    4.469883     2Au     4.484058     9B1u    4.484061  
      10B1u    4.638190    11B1u    4.925312     3Au     4.925312  
       7B2u    5.003979     7B3u    5.003979    12Ag     5.098420  
      12B1u    5.708040     7B3g    6.434401     7B2g    6.434401  
      13Ag     6.507786    13B1u   16.150085  

    Beta Occupied:                                                        

       1Ag   -14.419979     1B1u  -14.418101     2Ag    -1.132380  
       2B1u   -0.554214     1B2u   -0.471514     1B3u   -0.471514  
       3Ag    -0.434569  

    Beta Virtual:                                                         

       1B3g   -0.025226     1B2g   -0.025226     3B1u    0.294221  
       2B3u    0.388576     2B2u    0.388576     4Ag     0.409526  
       5Ag     0.486630     2B2g    0.532638     2B3g    0.532638  
       4B1u    0.694346     1B1g    0.833254     6Ag     0.833254  
       5B1u    0.873080     3B2u    1.098452     3B3u    1.098452  
       1Au     1.267605     6B1u    1.267605     7Ag     1.680248  
       3B2g    1.682867     3B3g    1.682867     7B1u    1.925255  
       4B3u    2.738302     4B2u    2.738302     8Ag     2.915479  
       4B3g    3.085511     4B2g    3.085511     8B1u    3.355540  
       2B1g    3.462950     9Ag     3.462950     5B2u    3.595739  
       5B3u    3.595739     6B3u    3.595760     6B2u    3.595760  
      10Ag     3.965621     5B3g    4.081633     5B2g    4.081633  
       3B1g    4.350097    11Ag     4.350100     6B2g    4.469883  
       6B3g    4.469883     2Au     4.484058     9B1u    4.484061  
      10B1u    4.638190    11B1u    4.925312     3Au     4.925312  
       7B2u    5.003979     7B3u    5.003979    12Ag     5.098420  
      12B1u    5.708040     7B3g    6.434401     7B2g    6.434401  
      13Ag     6.507786    13B1u   16.150085  

    Final Occupation by Irrep:
             Ag   B1g   B2g   B3g    Au   B1u   B2u   B3u 
    DOCC [     3,    0,    0,    0,    0,    2,    1,    1 ]
    SOCC [     0,    0,    0,    0,    0,    0,    0,    0 ]
    NA   [     3,    0,    0,    0,    0,    2,    1,    1 ]
    NB   [     3,    0,    0,    0,    0,    2,    1,    1 ]

  @DF-UKS Final Energy:  -109.56841114674195

   => Energetics <=

    Nuclear Repulsion Energy =             23.7597821991266294
    One-Electron Energy =                -194.8751959311724988
    Two-Electron Energy =                  72.6347291697945110
    DFT Exchange-Correlation Energy =     -11.0877265844905786
    Empirical Dispersion Energy =           0.0000000000000000
    VV10 Nonlocal Energy =                  0.0000000000000000
    Total Energy =                       -109.5684111467419513

  UHF NO Occupations:
  HONO-2 :    2 Ag 2.0000000
  HONO-1 :    1B2u 2.0000000
  HONO-0 :    3 Ag 2.0000000
  LUNO+0 :    4 Ag 0.0000000
  LUNO+1 :    3B1u 0.0000000
  LUNO+2 :    5 Ag 0.0000000
  LUNO+3 :    2B2u 0.0000000


Computation Completed


Properties will be evaluated at   0.000000,   0.000000,   0.000000 [a0]

Properties computed using the B3LYP density matrix


 Multipole Moments:

 ------------------------------------------------------------------------------------
     Multipole            Electronic (a.u.)      Nuclear  (a.u.)        Total (a.u.)
 ------------------------------------------------------------------------------------

 L = 1.  Multiply by 2.5417464519 to convert [e a0] to [Debye]
 Dipole X            :          0.0000000            0.0000000            0.0000000
 Dipole Y            :          0.0000000            0.0000000            0.0000000
 Dipole Z            :          0.0000000           -0.0000000           -0.0000000
 Magnitude           :                                                    0.0000000

 L = 2.  Multiply by 1.3450342976 to convert [e a0^2] to [Debye ang]
 Quadrupole XX       :         -7.5267707            0.0000000           -7.5267707
 Quadrupole XY       :          0.0000000            0.0000000            0.0000000
 Quadrupole XZ       :          0.0000000            0.0000000            0.0000000
 Quadrupole YY       :         -7.5267707            0.0000000           -7.5267707
 Quadrupole YZ       :          0.0000000            0.0000000            0.0000000
 Quadrupole ZZ       :        -23.6163371           14.8859067           -8.7304303
 Traceless XX        :          5.3631888           -4.9619689            0.4012199
 Traceless YY        :          5.3631888           -4.9619689            0.4012199
 Traceless ZZ        :        -10.7263776            9.9239378           -0.8024398

 ------------------------------------------------------------------------------------
  Mulliken Charges: (a.u.)
   Center  Symbol    Alpha    Beta     Spin     Total
       1     N     3.50000  3.50000  0.00000 -0.00000
       2     N     3.50000  3.50000  0.00000 -0.00000

   Total alpha =  7.00000, Total beta =  7.00000, Total charge = -0.00000


*** tstop() called on Mac.lan at Sun Aug 10 17:05:24 2025
Module time:
	user time   =      12.40 seconds =       0.21 minutes
	system time =       1.14 seconds =       0.02 minutes
	total time  =          1 seconds =       0.02 minutes
Total time:
	user time   =     141.38 seconds =       2.36 minutes
	system time =      13.66 seconds =       0.23 minutes
	total time  =         15 seconds =       0.25 minutes

    Psi4 stopped on: Sunday, 10 August 2025 05:05PM
    Psi4 wall time for execution: 0:00:15.51

*** Psi4 exiting successfully. Buy a developer a beer!
