
    -----------------------------------------------------------------------
          Psi4: An Open-Source Ab Initio Electronic Structure Package
                               Psi4 1.9.1 release

                         Git: Rev {} zzzzzzz 


    D. G. A. Smith, L. A. Burns, A. C. Simmonett, R. M. Parrish,
    M. C. Schieber, R. Galvelis, P. Kraus, H. Kruse, R. Di Remigio,
    A. Alenaizan, A. M. James, S. Lehtola, J. P. Misiewicz, M. Scheurer,
    R. A. Shaw, J. B. Schriber, Y. Xie, Z. L. Glick, D. A. Sirianni,
    J. S. O'Brien, J. M. Waldrop, A. Kumar, E. G. Hohenstein,
    B. P. Pritchard, B. R. Brooks, H. F. Schaefer III, A. Yu. Sokolov,
    K. Patkowski, A. E. DePrince III, U. Bozkaya, R. A. King,
    F. A. Evangelista, J. M. Turney, T. D. Crawford, C. D. Sherrill,
    J. Chem. Phys. 152(18) 184108 (2020). https://doi.org/10.1063/5.0006002

                            Additional Code Authors
    E. T. Seidl, C. L. Janssen, E. F. Valeev, M. L. Leininger,
    J. F. Gonthier, R. M. Richard, H. R. McAlexander, M. Saitow, X. Wang,
    P. Verma, M. H. Lechner, A. Jiang, S. Behnle, A. G. Heide,
    M. F. Herbst, and D. L. Poole

             Previous Authors, Complete List of Code Contributors,
                       and Citations for Specific Modules
    https://github.com/psi4/psi4/blob/master/codemeta.json
    https://github.com/psi4/psi4/graphs/contributors
    http://psicode.org/psi4manual/master/introduction.html#citing-psifour

    -----------------------------------------------------------------------


    Psi4 started on: Thursday, 17 July 2025 10:18AM

    Process ID: 72467
    Host:       Joses-MacBook-Pro-2.local
    PSIDATADIR: /Users/joseantoniorodriguesromero/anaconda3/share/psi4
    Memory:     500.0 MiB
    Threads:    1
    
  ==> Input File <==

--------------------------------------------------------------------------
molecule { 
-1 2
C   0.00000        0.60000        0.00000
Mg   0.00000       -0.60000        0.00000
}

set { 
basis              cc-pvdz
reference          uks
maxiter            500
geom_maxiter       500
DAMPING_PERCENTAGE 1
guess              SAP
}

optimize('b3lyp')
--------------------------------------------------------------------------

Scratch directory: /tmp/
gradient() will perform analytic gradient computation.
   => Libint2 <=

    Primary   basis highest AM E, G, H:  6, 6, 3
    Auxiliary basis highest AM E, G, H:  7, 7, 4
    Onebody   basis highest AM E, G, H:  -, -, -
    Solid Harmonics ordering:            Gaussian

*** tstart() called on Joses-MacBook-Pro-2.local
*** at Thu Jul 17 10:18:09 2025

   => Loading Basis Set <=

    Name: CC-PVDZ
    Role: ORBITAL
    Keyword: BASIS
    atoms 1 entry C          line   138 file /Users/joseantoniorodriguesromero/anaconda3/share/psi4/basis/cc-pvdz.gbs 
    atoms 2 entry MG         line   353 file /Users/joseantoniorodriguesromero/anaconda3/share/psi4/basis/cc-pvdz.gbs 


         ---------------------------------------------------------
                                   SCF
               by Justin Turney, Rob Parrish, Andy Simmonett
                          and Daniel G. A. Smith
                              UKS Reference
                        1 Threads,    500 MiB Core
         ---------------------------------------------------------

  ==> Geometry <==

    Molecular point group: c2v
    Full point group: C_inf_v

    Geometry (in Angstrom), charge = -1, multiplicity = 2:

       Center              X                  Y                   Z               Mass       
    ------------   -----------------  -----------------  -----------------  -----------------
         C            0.000000000000     0.000000000000     0.799833727546    12.000000000000
         MG           0.000000000000     0.000000000000    -0.400166272454    23.985041697000

  Running in c2v symmetry.

  Rotational constants: A = ************  B =      1.46364  C =      1.46364 [cm^-1]
  Rotational constants: A = ************  B =  43878.82543  C =  43878.82543 [MHz]
  Nuclear repulsion =   31.750632640200006

  Charge       = -1
  Multiplicity = 2
  Electrons    = 19
  Nalpha       = 10
  Nbeta        = 9

  ==> Algorithm <==

  SCF Algorithm Type is DF.
  DIIS enabled.
  MOM disabled.
  Fractional occupation disabled.
  Guess Type is SAP.
  Energy threshold   = 1.00e-08
  Density threshold  = 1.00e-08
  Integral threshold = 1.00e-12

  ==> Primary Basis <==

  Basis Set: CC-PVDZ
    Blend: CC-PVDZ
    Number of shells: 14
    Number of basis functions: 32
    Number of Cartesian functions: 34
    Spherical Harmonics?: true
    Max angular momentum: 2

  ==> DFT Potential <==

   => LibXC <=

    Version 6.2.2
    S. Lehtola, C. Steigemann, M. J.T. Oliveira, and M. A.L. Marques.,  SoftwareX 7, 1–5 (2018) (10.1016/j.softx.2017.11.002)

   => Composite Functional: B3LYP <= 

    B3LYP Hyb-GGA Exchange-Correlation Functional

    P. J. Stephens, F. J. Devlin, C. F. Chabalowski, and M. J. Frisch.,  J. Phys. Chem. 98, 11623 (1994) (10.1021/j100096a001)

    Deriv               =              1
    GGA                 =           TRUE
    Meta                =          FALSE

    Exchange Hybrid     =           TRUE
    MP2 Hybrid          =          FALSE

   => Exchange Functionals <=

    0.0800   Slater exchange
    0.7200         Becke 88

   => Exact (HF) Exchange <=

    0.2000               HF 

   => Correlation Functionals <=

    0.1900   Vosko, Wilk & Nusair (VWN5_RPA)
    0.8100   Lee, Yang & Parr

   => LibXC Density Thresholds  <==

    XC_HYB_GGA_XC_B3LYP:  1.00E-15 

   => Molecular Quadrature <=

    Radial Scheme          =       TREUTLER
    Pruning Scheme         =           NONE
    Nuclear Scheme         =       TREUTLER

    Blocking Scheme        =         OCTREE
    BS radius alpha        =              1
    Pruning alpha          =              1
    Radial Points          =             75
    Spherical Points       =            302
    Total Points           =          43336
    Total Blocks           =            411
    Max Points             =            250
    Max Functions          =             32
    Weights Tolerance      =       1.00E-15

   => Loading Basis Set <=

    Name: (CC-PVDZ AUX)
    Role: JKFIT
    Keyword: DF_BASIS_SCF
    atoms 1 entry C          line   121 file /Users/joseantoniorodriguesromero/anaconda3/share/psi4/basis/cc-pvdz-jkfit.gbs 
    atoms 2 entry MG         line   576 file /Users/joseantoniorodriguesromero/anaconda3/share/psi4/basis/def2-universal-jkfit.gbs 

  ==> Integral Setup <==

  DFHelper Memory: AOs need 0.002 GiB; user supplied 0.327 GiB. 
  Using in-core AOs.

  ==> MemDFJK: Density-Fitted J/K Matrices <==

    J tasked:                   Yes
    K tasked:                   Yes
    wK tasked:                   No
    OpenMP threads:               1
    Memory [MiB]:               334
    Algorithm:                 Core
    Schwarz Cutoff:           1E-12
    Mask sparsity (%):       0.0000
    Fitting Condition:        1E-10

   => Auxiliary Basis Set <=

  Basis Set: (CC-PVDZ AUX)
    Blend: CC-PVDZ-JKFIT + DEF2-UNIVERSAL-JKFIT
    Number of shells: 58
    Number of basis functions: 182
    Number of Cartesian functions: 218
    Spherical Harmonics?: true
    Max angular momentum: 4

  Cached 100.0% of DFT collocation blocks in 0.039 [GiB].

  Minimum eigenvalue in the overlap matrix is 9.1245356656E-04.
  Reciprocal condition number of the overlap matrix is 2.8425902318E-04.
    Using symmetric orthogonalization.

  ==> Pre-Iterations <==

  SCF Guess: Superposition of Atomic Potentials (doi:10.1021/acs.jctc.8b01089).

  ==> SAP guess <==

   => Molecular Quadrature <=

    Radial Scheme          =       TREUTLER
    Pruning Scheme         =           NONE
    Nuclear Scheme         =       TREUTLER

    Blocking Scheme        =         OCTREE
    BS radius alpha        =              1
    Pruning alpha          =              1
    Radial Points          =             75
    Spherical Points       =            302
    Total Points           =          43336
    Total Blocks           =            411
    Max Points             =            250
    Max Functions          =             32
    Weights Tolerance      =       1.00E-15

   -------------------------------------------------------
    Irrep   Nso     Nmo     Nalpha   Nbeta   Ndocc  Nsocc
   -------------------------------------------------------
     A1        16      16       6       5       5       1
     A2         2       2       0       0       0       0
     B1         7       7       2       2       2       0
     B2         7       7       2       2       2       0
   -------------------------------------------------------
    Total      32      32      10       9       9       1
   -------------------------------------------------------

  ==> Iterations <==

                           Total Energy        Delta E     RMS |[F,P]|

   @DF-UKS iter   1:  -236.34864127939835   -2.36349e+02   6.23515e-02 ADIIS/DIIS
   @DF-UKS iter   2:  -232.61939147673615    3.72925e+00   6.14031e-02 ADIIS/DIIS/DAMP=1%
   @DF-UKS iter   3:  -237.21104988940337   -4.59166e+00   1.94345e-02 ADIIS/DIIS/DAMP=1%
   @DF-UKS iter   4:  -237.55061056502237   -3.39561e-01   5.69805e-03 ADIIS/DIIS/DAMP=1%
   @DF-UKS iter   5:  -237.54943983053747    1.17073e-03   3.80197e-03 ADIIS/DIIS/DAMP=1%
   @DF-UKS iter   6:  -237.55007656921839   -6.36739e-04   1.00625e-03 ADIIS/DIIS/DAMP=1%
   @DF-UKS iter   7:  -237.55105790292248   -9.81334e-04   6.28657e-04 ADIIS/DIIS/DAMP=1%
   @DF-UKS iter   8:  -237.55092909710982    1.28806e-04   4.15454e-04 ADIIS/DIIS/DAMP=1%
   @DF-UKS iter   9:  -237.55109315715674   -1.64060e-04   7.85251e-05 DIIS/DAMP=1%
   @DF-UKS iter  10:  -237.55080072262876    2.92435e-04   4.90396e-05 DIIS/DAMP=1%
   @DF-UKS iter  11:  -237.55084558360139   -4.48610e-05   3.75781e-06 DIIS/DAMP=1%
   @DF-UKS iter  12:  -237.55080641344614    3.91702e-05   2.33661e-06 DIIS/DAMP=1%
   @DF-UKS iter  13:  -237.55080850000107   -2.08655e-06   4.63542e-07 DIIS/DAMP=1%
   @DF-UKS iter  14:  -237.55080613982665    2.36017e-06   5.21305e-08 DIIS/DAMP=1%
   @DF-UKS iter  15:  -237.55080648844998   -3.48623e-07   6.70037e-09 DIIS/DAMP=1%
   @DF-UKS iter  16:  -237.55080645911391    2.93361e-08   5.56935e-10 DIIS/DAMP=1%
   @DF-UKS iter  17:  -237.55080645420580    4.90812e-09   4.56589e-11 DIIS/DAMP=1%
  Energy and wave function converged.


  ==> Post-Iterations <==

   Electrons on quadrature grid:
      Nalpha   =    9.9999997683 ; deviation = -2.317e-07
      Nbeta    =    8.9999997790 ; deviation = -2.210e-07
      Ntotal   =   18.9999995473 ; deviation = -4.527e-07 

   @Spin Contamination Metric:   6.281827022E-03
   @S^2 Expected:                7.500000000E-01
   @S^2 Observed:                7.562818270E-01
   @S   Expected:                5.000000000E-01
   @S   Observed:                5.000000000E-01

    Orbital Energies [Eh]
    ---------------------

    Alpha Occupied:                                                       

       1A1   -46.660998     2A1    -9.976497     3A1    -2.974861  
       4A1    -1.757981     1B2    -1.695044     1B1    -1.695044  
       5A1    -0.254972     6A1     0.009116     2B1     0.012151  
       2B2     0.012151  

    Alpha Virtual:                                                        

       7A1     0.181145     3B1     0.181376     3B2     0.181376  
       8A1     0.214997     9A1     0.286054     4B1     0.359270  
       4B2     0.359270    10A1     0.499836    11A1     0.519162  
       1A2     0.519162     5B1     0.660664     5B2     0.660664  
       6B1     0.807355     6B2     0.807355    12A1     0.820520  
      13A1     1.096217     2A2     1.501967    14A1     1.501967  
       7B1     1.623037     7B2     1.623037    15A1     1.803533  
      16A1     2.049766  

    Beta Occupied:                                                        

       1A1   -46.659367     2A1    -9.975793     3A1    -2.972340  
       4A1    -1.755874     1B2    -1.693075     1B1    -1.693075  
       5A1    -0.249645     2B1     0.011570     2B2     0.011570  

    Beta Virtual:                                                         

       6A1     0.090451     7A1     0.189574     3B1     0.190200  
       3B2     0.190200     8A1     0.229069     9A1     0.317269  
       4B1     0.382360     4B2     0.382360    10A1     0.523951  
      11A1     0.533441     1A2     0.533441     5B1     0.674430  
       5B2     0.674430     6B1     0.816796     6B2     0.816796  
      12A1     0.833675    13A1     1.108187     2A2     1.501713  
      14A1     1.501714     7B1     1.631956     7B2     1.631956  
      15A1     1.817126    16A1     2.056810  

    Final Occupation by Irrep:
             A1    A2    B1    B2 
    DOCC [     5,    0,    2,    2 ]
    SOCC [     1,    0,    0,    0 ]
    NA   [     6,    0,    2,    2 ]
    NB   [     5,    0,    2,    2 ]

  @DF-UKS Final Energy:  -237.55080645420580

   => Energetics <=

    Nuclear Repulsion Energy =             31.7506326402000063
    One-Electron Energy =                -395.8266355013361135
    Two-Electron Energy =                 144.4373189845528600
    DFT Exchange-Correlation Energy =     -17.9121225776225650
    Empirical Dispersion Energy =           0.0000000000000000
    VV10 Nonlocal Energy =                  0.0000000000000000
    Total Energy =                       -237.5508064542057980

  UHF NO Occupations:
  HONO-2 :    2 B1 1.9988980
  HONO-1 :    2 B2 1.9988980
  HONO-0 :    6 A1 1.0000000
  LUNO+0 :    3 B1 0.0011020
  LUNO+1 :    3 B2 0.0011020
  LUNO+2 :    7 A1 0.0009375
  LUNO+3 :    8 A1 0.0000008


Computation Completed


Properties will be evaluated at   0.000000,   0.000000,   0.000000 [a0]

Properties computed using the SCF density matrix


 Multipole Moments:

 ------------------------------------------------------------------------------------
     Multipole            Electronic (a.u.)      Nuclear  (a.u.)        Total (a.u.)
 ------------------------------------------------------------------------------------

 L = 1.  Multiply by 2.5417464519 to convert [e a0] to [Debye]
 Dipole X            :          0.0000000            0.0000000            0.0000000
 Dipole Y            :          0.0000000            0.0000000            0.0000000
 Dipole Z            :         -0.2974741           -0.0056558           -0.3031299
 Magnitude           :                                                    0.3031299

 ------------------------------------------------------------------------------------

*** tstop() called on Joses-MacBook-Pro-2.local at Thu Jul 17 10:18:10 2025
Module time:
	user time   =       7.35 seconds =       0.12 minutes
	system time =       4.19 seconds =       0.07 minutes
	total time  =          1 seconds =       0.02 minutes
Total time:
	user time   =       7.35 seconds =       0.12 minutes
	system time =       4.19 seconds =       0.07 minutes
	total time  =          1 seconds =       0.02 minutes

*** tstart() called on Joses-MacBook-Pro-2.local
*** at Thu Jul 17 10:18:10 2025


         ------------------------------------------------------------
                                   SCF GRAD                          
                          Rob Parrish, Justin Turney,                
                       Andy Simmonett, and Alex Sokolov              
         ------------------------------------------------------------

  ==> Geometry <==

    Molecular point group: c2v
    Full point group: C_inf_v

    Geometry (in Angstrom), charge = -1, multiplicity = 2:

       Center              X                  Y                   Z               Mass       
    ------------   -----------------  -----------------  -----------------  -----------------
         C            0.000000000000     0.000000000000     0.799833727546    12.000000000000
         MG           0.000000000000     0.000000000000    -0.400166272454    23.985041697000

  Nuclear repulsion =   31.750632640200006

  ==> Basis Set <==

  Basis Set: CC-PVDZ
    Blend: CC-PVDZ
    Number of shells: 14
    Number of basis functions: 32
    Number of Cartesian functions: 34
    Spherical Harmonics?: true
    Max angular momentum: 2

  ==> DFJKGrad: Density-Fitted SCF Gradients <==

    Gradient:                    1
    J tasked:                  Yes
    K tasked:                  Yes
    wK tasked:                  No
    OpenMP threads:              1
    Integrals threads:           1
    Memory [MiB]:              375
    Schwarz Cutoff:          1E-12
    Fitting Condition:       1E-10

   => Auxiliary Basis Set <=

  Basis Set: (CC-PVDZ AUX)
    Blend: CC-PVDZ-JKFIT + DEF2-UNIVERSAL-JKFIT
    Number of shells: 58
    Number of basis functions: 182
    Number of Cartesian functions: 218
    Spherical Harmonics?: true
    Max angular momentum: 4

  ==> DFT Potential <==

   => LibXC <=

    Version 6.2.2
    S. Lehtola, C. Steigemann, M. J.T. Oliveira, and M. A.L. Marques.,  SoftwareX 7, 1–5 (2018) (10.1016/j.softx.2017.11.002)

   => Composite Functional: B3LYP <= 

    B3LYP Hyb-GGA Exchange-Correlation Functional

    P. J. Stephens, F. J. Devlin, C. F. Chabalowski, and M. J. Frisch.,  J. Phys. Chem. 98, 11623 (1994) (10.1021/j100096a001)

    Deriv               =              1
    GGA                 =           TRUE
    Meta                =          FALSE

    Exchange Hybrid     =           TRUE
    MP2 Hybrid          =          FALSE

   => Exchange Functionals <=

    0.0800   Slater exchange
    0.7200         Becke 88

   => Exact (HF) Exchange <=

    0.2000               HF 

   => Correlation Functionals <=

    0.1900   Vosko, Wilk & Nusair (VWN5_RPA)
    0.8100   Lee, Yang & Parr

   => LibXC Density Thresholds  <==

    XC_HYB_GGA_XC_B3LYP:  1.00E-15 

   => Molecular Quadrature <=

    Radial Scheme          =       TREUTLER
    Pruning Scheme         =           NONE
    Nuclear Scheme         =       TREUTLER

    Blocking Scheme        =         OCTREE
    BS radius alpha        =              1
    Pruning alpha          =              1
    Radial Points          =             75
    Spherical Points       =            302
    Total Points           =          43336
    Total Blocks           =            411
    Max Points             =            250
    Max Functions          =             32
    Weights Tolerance      =       1.00E-15


  -Total Gradient:
     Atom            X                  Y                   Z
    ------   -----------------  -----------------  -----------------
       1        0.000000000000     0.000000000000    -0.868476308879
       2       -0.000000000000     0.000000000000     0.868436203895


*** tstop() called on Joses-MacBook-Pro-2.local at Thu Jul 17 10:18:10 2025
Module time:
	user time   =       1.12 seconds =       0.02 minutes
	system time =       1.65 seconds =       0.03 minutes
	total time  =          0 seconds =       0.00 minutes
Total time:
	user time   =       8.47 seconds =       0.14 minutes
	system time =       5.84 seconds =       0.10 minutes
	total time  =          1 seconds =       0.02 minutes

    			-----------------------------------------

    			 OPTKING 3.0: for geometry optimizations 

    			     By R.A. King, Bethel University     

    			        with contributions from          

    			    A.V. Copan, J. Cayton, A. Heide      

    			-----------------------------------------

    
	                            ===> Fragment 1 <== 

	 Z (Atomic Numbers)          Masses                          Geom                  
	       6.000000            12.000000          0.00000000  0.00000000  1.51146669   
	      12.000000            23.985042          0.00000000  0.00000000 -0.75620466   

	 - Coordinate -           - BOHR/RAD -       - ANG/DEG -
	 R(1,2)           =         2.267671           1.200000


	        --- Internal Coordinate Step in ANG or DEG, aJ/ANG or AJ/DEG ---
	-------------------------------------------------------------------------------
	           Coordinate      Previous         Force          Change          New 
	           ----------      --------        ------          ------        ------
	               R(1,2)       1.20000        7.15497        0.10552       1.30552
	-------------------------------------------------------------------------------

	                                 ==> Convergence Check <==                                  
    
	Measures of convergence in internal coordinates in au.
    
	Criteria marked as inactive (o), active & met (*), and active & unmet ( ).

	----------------------------------------------------------------------------------------------
	   Step    Total Energy     Delta E     Max Force     RMS Force      Max Disp      RMS Disp   
	----------------------------------------------------------------------------------------------
	  Convergence Criteria     1.00e-06 *    3.00e-04 *             o    1.20e-03 *             o
	----------------------------------------------------------------------------------------------
	     1    -237.55080645   -2.38e+02      8.68e-01      8.68e-01 o    1.99e-01      1.99e-01 o  ~
	----------------------------------------------------------------------------------------------

Next Geometry in Ang 
	Fragment 1 (Ang)

	    C   0.0000000000   0.0000000000   0.8525922134
	   Mg   0.0000000000   0.0000000000  -0.4529247583


    Structure for next step:
    Molecular point group: c2v
    Full point group: C_inf_v

    Geometry (in Angstrom), charge = -1, multiplicity = 2:

    C            0.000000000000     0.000000000000     0.870163754905
    MG           0.000000000000     0.000000000000    -0.435353216841


Scratch directory: /tmp/
gradient() will perform analytic gradient computation.
   => Libint2 <=

    Primary   basis highest AM E, G, H:  6, 6, 3
    Auxiliary basis highest AM E, G, H:  7, 7, 4
    Onebody   basis highest AM E, G, H:  -, -, -
    Solid Harmonics ordering:            Gaussian

*** tstart() called on Joses-MacBook-Pro-2.local
*** at Thu Jul 17 10:18:10 2025

   => Loading Basis Set <=

    Name: CC-PVDZ
    Role: ORBITAL
    Keyword: BASIS
    atoms 1 entry C          line   138 file /Users/joseantoniorodriguesromero/anaconda3/share/psi4/basis/cc-pvdz.gbs 
    atoms 2 entry MG         line   353 file /Users/joseantoniorodriguesromero/anaconda3/share/psi4/basis/cc-pvdz.gbs 


         ---------------------------------------------------------
                                   SCF
               by Justin Turney, Rob Parrish, Andy Simmonett
                          and Daniel G. A. Smith
                              UKS Reference
                        1 Threads,    500 MiB Core
         ---------------------------------------------------------

  ==> Geometry <==

    Molecular point group: c2v
    Full point group: C_inf_v

    Geometry (in Angstrom), charge = -1, multiplicity = 2:

       Center              X                  Y                   Z               Mass       
    ------------   -----------------  -----------------  -----------------  -----------------
         C            0.000000000000     0.000000000000     0.870163754905    12.000000000000
         MG           0.000000000000     0.000000000000    -0.435353216841    23.985041697000

  Running in c2v symmetry.

  Rotational constants: A = ************  B =      1.23661  C =      1.23661 [cm^-1]
  Rotational constants: A = ************  B =  37072.54847  C =  37072.54847 [MHz]
  Nuclear repulsion =   29.184422717443780

  Charge       = -1
  Multiplicity = 2
  Electrons    = 19
  Nalpha       = 10
  Nbeta        = 9

  ==> Algorithm <==

  SCF Algorithm Type is DF.
  DIIS enabled.
  MOM disabled.
  Fractional occupation disabled.
  Guess Type is READ.
  Energy threshold   = 1.00e-08
  Density threshold  = 1.00e-08
  Integral threshold = 1.00e-12

  ==> Primary Basis <==

  Basis Set: CC-PVDZ
    Blend: CC-PVDZ
    Number of shells: 14
    Number of basis functions: 32
    Number of Cartesian functions: 34
    Spherical Harmonics?: true
    Max angular momentum: 2

  ==> DFT Potential <==

   => LibXC <=

    Version 6.2.2
    S. Lehtola, C. Steigemann, M. J.T. Oliveira, and M. A.L. Marques.,  SoftwareX 7, 1–5 (2018) (10.1016/j.softx.2017.11.002)

   => Composite Functional: B3LYP <= 

    B3LYP Hyb-GGA Exchange-Correlation Functional

    P. J. Stephens, F. J. Devlin, C. F. Chabalowski, and M. J. Frisch.,  J. Phys. Chem. 98, 11623 (1994) (10.1021/j100096a001)

    Deriv               =              1
    GGA                 =           TRUE
    Meta                =          FALSE

    Exchange Hybrid     =           TRUE
    MP2 Hybrid          =          FALSE

   => Exchange Functionals <=

    0.0800   Slater exchange
    0.7200         Becke 88

   => Exact (HF) Exchange <=

    0.2000               HF 

   => Correlation Functionals <=

    0.1900   Vosko, Wilk & Nusair (VWN5_RPA)
    0.8100   Lee, Yang & Parr

   => LibXC Density Thresholds  <==

    XC_HYB_GGA_XC_B3LYP:  1.00E-15 

   => Molecular Quadrature <=

    Radial Scheme          =       TREUTLER
    Pruning Scheme         =           NONE
    Nuclear Scheme         =       TREUTLER

    Blocking Scheme        =         OCTREE
    BS radius alpha        =              1
    Pruning alpha          =              1
    Radial Points          =             75
    Spherical Points       =            302
    Total Points           =          43346
    Total Blocks           =            410
    Max Points             =            253
    Max Functions          =             32
    Weights Tolerance      =       1.00E-15

   => Loading Basis Set <=

    Name: (CC-PVDZ AUX)
    Role: JKFIT
    Keyword: DF_BASIS_SCF
    atoms 1 entry C          line   121 file /Users/joseantoniorodriguesromero/anaconda3/share/psi4/basis/cc-pvdz-jkfit.gbs 
    atoms 2 entry MG         line   576 file /Users/joseantoniorodriguesromero/anaconda3/share/psi4/basis/def2-universal-jkfit.gbs 

   => Loading Basis Set <=

    Name: CC-PVDZ
    Role: ORBITAL
    Keyword: BASIS
    atoms 1 entry C          line   138 file /Users/joseantoniorodriguesromero/anaconda3/share/psi4/basis/cc-pvdz.gbs 
    atoms 2 entry MG         line   353 file /Users/joseantoniorodriguesromero/anaconda3/share/psi4/basis/cc-pvdz.gbs 

  Reading orbitals from file /tmp/doublet_CMg.default.72467.180.npy, no projection.

  ==> Integral Setup <==

  DFHelper Memory: AOs need 0.002 GiB; user supplied 0.327 GiB. 
  Using in-core AOs.

  ==> MemDFJK: Density-Fitted J/K Matrices <==

    J tasked:                   Yes
    K tasked:                   Yes
    wK tasked:                   No
    OpenMP threads:               1
    Memory [MiB]:               334
    Algorithm:                 Core
    Schwarz Cutoff:           1E-12
    Mask sparsity (%):       0.0000
    Fitting Condition:        1E-10

   => Auxiliary Basis Set <=

  Basis Set: (CC-PVDZ AUX)
    Blend: CC-PVDZ-JKFIT + DEF2-UNIVERSAL-JKFIT
    Number of shells: 58
    Number of basis functions: 182
    Number of Cartesian functions: 218
    Spherical Harmonics?: true
    Max angular momentum: 4

  Cached 100.0% of DFT collocation blocks in 0.039 [GiB].

  Minimum eigenvalue in the overlap matrix is 8.3789845222E-04.
  Reciprocal condition number of the overlap matrix is 2.6122279118E-04.
    Using symmetric orthogonalization.

  ==> Pre-Iterations <==

  SCF Guess: Orbitals guess was supplied from a previous computation.

   -------------------------------------------------------
    Irrep   Nso     Nmo     Nalpha   Nbeta   Ndocc  Nsocc
   -------------------------------------------------------
     A1        16      16       6       5       5       1
     A2         2       2       0       0       0       0
     B1         7       7       2       2       2       0
     B2         7       7       2       2       2       0
   -------------------------------------------------------
    Total      32      32      10       9       9       1
   -------------------------------------------------------

  ==> Iterations <==

                           Total Energy        Delta E     RMS |[F,P]|

   @DF-UKS iter   0:  -237.62669510539064   -2.37627e+02   1.92948e-02 
   @DF-UKS iter   1:  -237.69091008142212   -6.42150e-02   4.11906e-03 ADIIS/DIIS
   @DF-UKS iter   2:  -237.66149692726682    2.94132e-02   1.10639e-02 ADIIS/DIIS/DAMP=1%
   @DF-UKS iter   3:  -237.70302827798005   -4.15314e-02   2.83413e-04 ADIIS/DIIS/DAMP=1%
   @DF-UKS iter   4:  -237.69520977102792    7.81851e-03   8.82438e-05 DIIS/DAMP=1%
   @DF-UKS iter   5:  -237.69540618692460   -1.96416e-04   3.21352e-05 DIIS/DAMP=1%
   @DF-UKS iter   6:  -237.69540839457699   -2.20765e-06   1.47143e-05 DIIS/DAMP=1%
   @DF-UKS iter   7:  -237.69536911874732    3.92758e-05   1.72422e-06 DIIS/DAMP=1%
   @DF-UKS iter   8:  -237.69537822232493   -9.10358e-06   2.69148e-07 DIIS/DAMP=1%
   @DF-UKS iter   9:  -237.69537896960858   -7.47284e-07   2.01508e-07 DIIS/DAMP=1%
   @DF-UKS iter  10:  -237.69537935628867   -3.86680e-07   1.11876e-07 DIIS/DAMP=1%
   @DF-UKS iter  11:  -237.69537903541084    3.20878e-07   3.96156e-08 DIIS/DAMP=1%
   @DF-UKS iter  12:  -237.69537914335226   -1.07941e-07   5.40218e-09 DIIS/DAMP=1%
   @DF-UKS iter  13:  -237.69537912358169    1.97706e-08   4.21581e-10 DIIS/DAMP=1%
   @DF-UKS iter  14:  -237.69537912220966    1.37203e-09   2.71747e-11 DIIS/DAMP=1%
  Energy and wave function converged.


  ==> Post-Iterations <==

   Electrons on quadrature grid:
      Nalpha   =    9.9999996936 ; deviation = -3.064e-07
      Nbeta    =    8.9999996775 ; deviation = -3.225e-07
      Ntotal   =   18.9999993711 ; deviation = -6.289e-07 

   @Spin Contamination Metric:   7.873605469E-03
   @S^2 Expected:                7.500000000E-01
   @S^2 Observed:                7.578736055E-01
   @S   Expected:                5.000000000E-01
   @S   Observed:                5.000000000E-01

    Orbital Energies [Eh]
    ---------------------

    Alpha Occupied:                                                       

       1A1   -46.625960     2A1    -9.967628     3A1    -2.934848  
       4A1    -1.706808     1B2    -1.664156     1B1    -1.664156  
       5A1    -0.273634     6A1     0.002728     2B1     0.019151  
       2B2     0.019151  

    Alpha Virtual:                                                        

       7A1     0.147600     3B1     0.179941     3B2     0.179941  
       8A1     0.210390     9A1     0.275938     4B1     0.354893  
       4B2     0.354893    10A1     0.483228    11A1     0.518762  
       1A2     0.518763     5B2     0.654969     5B1     0.654969  
       6B1     0.793333     6B2     0.793333    12A1     0.821569  
      13A1     1.085611     2A2     1.492335    14A1     1.492336  
       7B2     1.629642     7B1     1.629642    15A1     1.698624  
      16A1     2.093503  

    Beta Occupied:                                                        

       1A1   -46.624170     2A1    -9.966532     3A1    -2.931842  
       4A1    -1.704928     1B2    -1.661911     1B1    -1.661911  
       5A1    -0.268496     2B1     0.019133     2B2     0.019133  

    Beta Virtual:                                                         

       6A1     0.082917     7A1     0.164826     3B1     0.188510  
       3B2     0.188510     8A1     0.221429     9A1     0.305315  
       4B1     0.377865     4B2     0.377865    10A1     0.509360  
      11A1     0.534117     1A2     0.534118     5B2     0.672332  
       5B1     0.672332     6B1     0.799118     6B2     0.799118  
      12A1     0.836943    13A1     1.097016     2A2     1.491902  
      14A1     1.491902     7B2     1.640546     7B1     1.640546  
      15A1     1.714385    16A1     2.101923  

    Final Occupation by Irrep:
             A1    A2    B1    B2 
    DOCC [     5,    0,    2,    2 ]
    SOCC [     1,    0,    0,    0 ]
    NA   [     6,    0,    2,    2 ]
    NB   [     5,    0,    2,    2 ]

  @DF-UKS Final Energy:  -237.69537912220966

   => Energetics <=

    Nuclear Repulsion Energy =             29.1844227174437805
    One-Electron Energy =                -391.3929419243962684
    Two-Electron Energy =                 142.3826397590806607
    DFT Exchange-Correlation Energy =     -17.8694996743378383
    Empirical Dispersion Energy =           0.0000000000000000
    VV10 Nonlocal Energy =                  0.0000000000000000
    Total Energy =                       -237.6953791222096584

  UHF NO Occupations:
  HONO-2 :    2 B1 1.9987241
  HONO-1 :    5 A1 1.9986136
  HONO-0 :    6 A1 1.0000000
  LUNO+0 :    7 A1 0.0013864
  LUNO+1 :    3 B2 0.0012759
  LUNO+2 :    3 B1 0.0012759
  LUNO+3 :    8 A1 0.0000008


Computation Completed


Properties will be evaluated at   0.000000,   0.000000,   0.000000 [a0]

Properties computed using the SCF density matrix


 Multipole Moments:

 ------------------------------------------------------------------------------------
     Multipole            Electronic (a.u.)      Nuclear  (a.u.)        Total (a.u.)
 ------------------------------------------------------------------------------------

 L = 1.  Multiply by 2.5417464519 to convert [e a0] to [Debye]
 Dipole X            :          0.0000000            0.0000000            0.0000000
 Dipole Y            :          0.0000000            0.0000000            0.0000000
 Dipole Z            :         -0.3923616           -0.0061531           -0.3985147
 Magnitude           :                                                    0.3985147

 ------------------------------------------------------------------------------------

*** tstop() called on Joses-MacBook-Pro-2.local at Thu Jul 17 10:18:11 2025
Module time:
	user time   =       5.36 seconds =       0.09 minutes
	system time =       5.59 seconds =       0.09 minutes
	total time  =          1 seconds =       0.02 minutes
Total time:
	user time   =      13.87 seconds =       0.23 minutes
	system time =      11.65 seconds =       0.19 minutes
	total time  =          2 seconds =       0.03 minutes

*** tstart() called on Joses-MacBook-Pro-2.local
*** at Thu Jul 17 10:18:11 2025


         ------------------------------------------------------------
                                   SCF GRAD                          
                          Rob Parrish, Justin Turney,                
                       Andy Simmonett, and Alex Sokolov              
         ------------------------------------------------------------

  ==> Geometry <==

    Molecular point group: c2v
    Full point group: C_inf_v

    Geometry (in Angstrom), charge = -1, multiplicity = 2:

       Center              X                  Y                   Z               Mass       
    ------------   -----------------  -----------------  -----------------  -----------------
         C            0.000000000000     0.000000000000     0.870163754905    12.000000000000
         MG           0.000000000000     0.000000000000    -0.435353216841    23.985041697000

  Nuclear repulsion =   29.184422717443780

  ==> Basis Set <==

  Basis Set: CC-PVDZ
    Blend: CC-PVDZ
    Number of shells: 14
    Number of basis functions: 32
    Number of Cartesian functions: 34
    Spherical Harmonics?: true
    Max angular momentum: 2

  ==> DFJKGrad: Density-Fitted SCF Gradients <==

    Gradient:                    1
    J tasked:                  Yes
    K tasked:                  Yes
    wK tasked:                  No
    OpenMP threads:              1
    Integrals threads:           1
    Memory [MiB]:              375
    Schwarz Cutoff:          1E-12
    Fitting Condition:       1E-10

   => Auxiliary Basis Set <=

  Basis Set: (CC-PVDZ AUX)
    Blend: CC-PVDZ-JKFIT + DEF2-UNIVERSAL-JKFIT
    Number of shells: 58
    Number of basis functions: 182
    Number of Cartesian functions: 218
    Spherical Harmonics?: true
    Max angular momentum: 4

  ==> DFT Potential <==

   => LibXC <=

    Version 6.2.2
    S. Lehtola, C. Steigemann, M. J.T. Oliveira, and M. A.L. Marques.,  SoftwareX 7, 1–5 (2018) (10.1016/j.softx.2017.11.002)

   => Composite Functional: B3LYP <= 

    B3LYP Hyb-GGA Exchange-Correlation Functional

    P. J. Stephens, F. J. Devlin, C. F. Chabalowski, and M. J. Frisch.,  J. Phys. Chem. 98, 11623 (1994) (10.1021/j100096a001)

    Deriv               =              1
    GGA                 =           TRUE
    Meta                =          FALSE

    Exchange Hybrid     =           TRUE
    MP2 Hybrid          =          FALSE

   => Exchange Functionals <=

    0.0800   Slater exchange
    0.7200         Becke 88

   => Exact (HF) Exchange <=

    0.2000               HF 

   => Correlation Functionals <=

    0.1900   Vosko, Wilk & Nusair (VWN5_RPA)
    0.8100   Lee, Yang & Parr

   => LibXC Density Thresholds  <==

    XC_HYB_GGA_XC_B3LYP:  1.00E-15 

   => Molecular Quadrature <=

    Radial Scheme          =       TREUTLER
    Pruning Scheme         =           NONE
    Nuclear Scheme         =       TREUTLER

    Blocking Scheme        =         OCTREE
    BS radius alpha        =              1
    Pruning alpha          =              1
    Radial Points          =             75
    Spherical Points       =            302
    Total Points           =          43346
    Total Blocks           =            410
    Max Points             =            253
    Max Functions          =             32
    Weights Tolerance      =       1.00E-15


  -Total Gradient:
     Atom            X                  Y                   Z
    ------   -----------------  -----------------  -----------------
       1        0.000000000000     0.000000000000    -0.595341056272
       2        0.000000000000    -0.000000000000     0.595296854558


*** tstop() called on Joses-MacBook-Pro-2.local at Thu Jul 17 10:18:11 2025
Module time:
	user time   =       1.16 seconds =       0.02 minutes
	system time =       1.53 seconds =       0.03 minutes
	total time  =          0 seconds =       0.00 minutes
Total time:
	user time   =      15.04 seconds =       0.25 minutes
	system time =      13.18 seconds =       0.22 minutes
	total time  =          2 seconds =       0.03 minutes

    			-----------------------------------------

    			 OPTKING 3.0: for geometry optimizations 

    			     By R.A. King, Bethel University     

    			        with contributions from          

    			    A.V. Copan, J. Cayton, A. Heide      

    			-----------------------------------------

    
	                            ===> Fragment 1 <== 

	 Z (Atomic Numbers)          Masses                          Geom                  
	       6.000000            12.000000          0.00000000  0.00000000  1.64437118   
	      12.000000            23.985042          0.00000000  0.00000000 -0.82269835   

	 - Coordinate -           - BOHR/RAD -       - ANG/DEG -
	 R(1,2)           =         2.467070           1.305517


	        --- Internal Coordinate Step in ANG or DEG, aJ/ANG or AJ/DEG ---
	-------------------------------------------------------------------------------
	           Coordinate      Previous         Force          Change          New 
	           ----------      --------        ------          ------        ------
	               R(1,2)       1.30552        4.90467        0.14009       1.44561
	-------------------------------------------------------------------------------

	                                 ==> Convergence Check <==                                  
    
	Measures of convergence in internal coordinates in au.
    
	Criteria marked as inactive (o), active & met (*), and active & unmet ( ).

	----------------------------------------------------------------------------------------------
	   Step    Total Energy     Delta E     Max Force     RMS Force      Max Disp      RMS Disp   
	----------------------------------------------------------------------------------------------
	  Convergence Criteria     1.00e-06 *    3.00e-04 *             o    1.20e-03 *             o
	----------------------------------------------------------------------------------------------
	     2    -237.69537912   -1.45e-01      5.95e-01      5.95e-01 o    2.65e-01      2.65e-01 o  ~
	----------------------------------------------------------------------------------------------

Next Geometry in Ang 
	Fragment 1 (Ang)

	    C   0.0000000000   0.0000000000   0.9402103277
	   Mg   0.0000000000   0.0000000000  -0.5053997897


    Structure for next step:
    Molecular point group: c2v
    Full point group: C_inf_v

    Geometry (in Angstrom), charge = -1, multiplicity = 2:

    C            0.000000000000     0.000000000000     0.963539773961
    MG           0.000000000000     0.000000000000    -0.482070343408


Scratch directory: /tmp/
gradient() will perform analytic gradient computation.
   => Libint2 <=

    Primary   basis highest AM E, G, H:  6, 6, 3
    Auxiliary basis highest AM E, G, H:  7, 7, 4
    Onebody   basis highest AM E, G, H:  -, -, -
    Solid Harmonics ordering:            Gaussian

*** tstart() called on Joses-MacBook-Pro-2.local
*** at Thu Jul 17 10:18:11 2025

   => Loading Basis Set <=

    Name: CC-PVDZ
    Role: ORBITAL
    Keyword: BASIS
    atoms 1 entry C          line   138 file /Users/joseantoniorodriguesromero/anaconda3/share/psi4/basis/cc-pvdz.gbs 
    atoms 2 entry MG         line   353 file /Users/joseantoniorodriguesromero/anaconda3/share/psi4/basis/cc-pvdz.gbs 


         ---------------------------------------------------------
                                   SCF
               by Justin Turney, Rob Parrish, Andy Simmonett
                          and Daniel G. A. Smith
                              UKS Reference
                        1 Threads,    500 MiB Core
         ---------------------------------------------------------

  ==> Geometry <==

    Molecular point group: c2v
    Full point group: C_inf_v

    Geometry (in Angstrom), charge = -1, multiplicity = 2:

       Center              X                  Y                   Z               Mass       
    ------------   -----------------  -----------------  -----------------  -----------------
         C            0.000000000000     0.000000000000     0.963539773961    12.000000000000
         MG           0.000000000000     0.000000000000    -0.482070343408    23.985041697000

  Running in c2v symmetry.

  Rotational constants: A = ************  B =      1.00854  C =      1.00854 [cm^-1]
  Rotational constants: A = ************  B =  30235.35886  C =  30235.35886 [MHz]
  Nuclear repulsion =   26.356179104211360

  Charge       = -1
  Multiplicity = 2
  Electrons    = 19
  Nalpha       = 10
  Nbeta        = 9

  ==> Algorithm <==

  SCF Algorithm Type is DF.
  DIIS enabled.
  MOM disabled.
  Fractional occupation disabled.
  Guess Type is READ.
  Energy threshold   = 1.00e-08
  Density threshold  = 1.00e-08
  Integral threshold = 1.00e-12

  ==> Primary Basis <==

  Basis Set: CC-PVDZ
    Blend: CC-PVDZ
    Number of shells: 14
    Number of basis functions: 32
    Number of Cartesian functions: 34
    Spherical Harmonics?: true
    Max angular momentum: 2

  ==> DFT Potential <==

   => LibXC <=

    Version 6.2.2
    S. Lehtola, C. Steigemann, M. J.T. Oliveira, and M. A.L. Marques.,  SoftwareX 7, 1–5 (2018) (10.1016/j.softx.2017.11.002)

   => Composite Functional: B3LYP <= 

    B3LYP Hyb-GGA Exchange-Correlation Functional

    P. J. Stephens, F. J. Devlin, C. F. Chabalowski, and M. J. Frisch.,  J. Phys. Chem. 98, 11623 (1994) (10.1021/j100096a001)

    Deriv               =              1
    GGA                 =           TRUE
    Meta                =          FALSE

    Exchange Hybrid     =           TRUE
    MP2 Hybrid          =          FALSE

   => Exchange Functionals <=

    0.0800   Slater exchange
    0.7200         Becke 88

   => Exact (HF) Exchange <=

    0.2000               HF 

   => Correlation Functionals <=

    0.1900   Vosko, Wilk & Nusair (VWN5_RPA)
    0.8100   Lee, Yang & Parr

   => LibXC Density Thresholds  <==

    XC_HYB_GGA_XC_B3LYP:  1.00E-15 

   => Molecular Quadrature <=

    Radial Scheme          =       TREUTLER
    Pruning Scheme         =           NONE
    Nuclear Scheme         =       TREUTLER

    Blocking Scheme        =         OCTREE
    BS radius alpha        =              1
    Pruning alpha          =              1
    Radial Points          =             75
    Spherical Points       =            302
    Total Points           =          43377
    Total Blocks           =            410
    Max Points             =            256
    Max Functions          =             32
    Weights Tolerance      =       1.00E-15

   => Loading Basis Set <=

    Name: (CC-PVDZ AUX)
    Role: JKFIT
    Keyword: DF_BASIS_SCF
    atoms 1 entry C          line   121 file /Users/joseantoniorodriguesromero/anaconda3/share/psi4/basis/cc-pvdz-jkfit.gbs 
    atoms 2 entry MG         line   576 file /Users/joseantoniorodriguesromero/anaconda3/share/psi4/basis/def2-universal-jkfit.gbs 

   => Loading Basis Set <=

    Name: CC-PVDZ
    Role: ORBITAL
    Keyword: BASIS
    atoms 1 entry C          line   138 file /Users/joseantoniorodriguesromero/anaconda3/share/psi4/basis/cc-pvdz.gbs 
    atoms 2 entry MG         line   353 file /Users/joseantoniorodriguesromero/anaconda3/share/psi4/basis/cc-pvdz.gbs 

  Reading orbitals from file /tmp/doublet_CMg.default.72467.180.npy, no projection.

  ==> Integral Setup <==

  DFHelper Memory: AOs need 0.002 GiB; user supplied 0.327 GiB. 
  Using in-core AOs.

  ==> MemDFJK: Density-Fitted J/K Matrices <==

    J tasked:                   Yes
    K tasked:                   Yes
    wK tasked:                   No
    OpenMP threads:               1
    Memory [MiB]:               334
    Algorithm:                 Core
    Schwarz Cutoff:           1E-12
    Mask sparsity (%):       0.0000
    Fitting Condition:        1E-10

   => Auxiliary Basis Set <=

  Basis Set: (CC-PVDZ AUX)
    Blend: CC-PVDZ-JKFIT + DEF2-UNIVERSAL-JKFIT
    Number of shells: 58
    Number of basis functions: 182
    Number of Cartesian functions: 218
    Spherical Harmonics?: true
    Max angular momentum: 4

  Cached 100.0% of DFT collocation blocks in 0.039 [GiB].

  Minimum eigenvalue in the overlap matrix is 8.6449533534E-04.
  Reciprocal condition number of the overlap matrix is 2.7020662041E-04.
    Using symmetric orthogonalization.

  ==> Pre-Iterations <==

  SCF Guess: Orbitals guess was supplied from a previous computation.

   -------------------------------------------------------
    Irrep   Nso     Nmo     Nalpha   Nbeta   Ndocc  Nsocc
   -------------------------------------------------------
     A1        16      16       6       5       5       1
     A2         2       2       0       0       0       0
     B1         7       7       2       2       2       0
     B2         7       7       2       2       2       0
   -------------------------------------------------------
    Total      32      32      10       9       9       1
   -------------------------------------------------------

  ==> Iterations <==

                           Total Energy        Delta E     RMS |[F,P]|

   @DF-UKS iter   0:  -237.74576021026164   -2.37746e+02   2.13509e-02 
   @DF-UKS iter   1:  -237.81398743991400   -6.82272e-02   3.25406e-03 ADIIS/DIIS
   @DF-UKS iter   2:  -237.78775975843251    2.62277e-02   1.01239e-02 ADIIS/DIIS/DAMP=1%
   @DF-UKS iter   3:  -237.82362090649565   -3.58611e-02   3.51485e-04 ADIIS/DIIS/DAMP=1%
   @DF-UKS iter   4:  -237.81637396518320    7.24694e-03   8.47122e-05 DIIS/DAMP=1%
   @DF-UKS iter   5:  -237.81678866668818   -4.14702e-04   5.50997e-05 DIIS/DAMP=1%
   @DF-UKS iter   6:  -237.81678938312234   -7.16434e-07   1.82593e-05 DIIS/DAMP=1%
   @DF-UKS iter   7:  -237.81674963936041    3.97438e-05   3.84515e-06 DIIS/DAMP=1%
   @DF-UKS iter   8:  -237.81675943597736   -9.79662e-06   1.54005e-06 DIIS/DAMP=1%
   @DF-UKS iter   9:  -237.81675911298447    3.22993e-07   8.88176e-07 DIIS/DAMP=1%
   @DF-UKS iter  10:  -237.81676043576979   -1.32279e-06   3.10723e-07 DIIS/DAMP=1%
   @DF-UKS iter  11:  -237.81675963678688    7.98983e-07   5.02041e-08 DIIS/DAMP=1%
   @DF-UKS iter  12:  -237.81675985910411   -2.22317e-07   1.03239e-08 DIIS/DAMP=1%
   @DF-UKS iter  13:  -237.81675985790952    1.19459e-09   1.38526e-09 DIIS/DAMP=1%
  Energy and wave function converged.


  ==> Post-Iterations <==

   Electrons on quadrature grid:
      Nalpha   =   10.0000004327 ; deviation = 4.327e-07
      Nbeta    =    9.0000003884 ; deviation = 3.884e-07
      Ntotal   =   19.0000008211 ; deviation = 8.211e-07 

   @Spin Contamination Metric:   9.529795524E-03
   @S^2 Expected:                7.500000000E-01
   @S^2 Observed:                7.595297955E-01
   @S   Expected:                5.000000000E-01
   @S   Observed:                5.000000000E-01

    Orbital Energies [Eh]
    ---------------------

    Alpha Occupied:                                                       

       1A1   -46.608710     2A1    -9.968582     3A1    -2.911835  
       4A1    -1.671616     1B2    -1.647694     1B1    -1.647694  
       5A1    -0.289020     6A1    -0.007984     2B1     0.026592  
       2B2     0.026592  

    Alpha Virtual:                                                        

       7A1     0.115187     3B2     0.176618     3B1     0.176618  
       8A1     0.206143     9A1     0.265903     4B2     0.346438  
       4B1     0.346438    10A1     0.468930     1A2     0.515558  
      11A1     0.515558     5B1     0.640448     5B2     0.640448  
       6B1     0.780971     6B2     0.780971    12A1     0.809101  
      13A1     1.085212    14A1     1.480245     2A2     1.480245  
      15A1     1.522826     7B1     1.632077     7B2     1.632077  
      16A1     2.009764  

    Beta Occupied:                                                        

       1A1   -46.606693     2A1    -9.966631     3A1    -2.908282  
       4A1    -1.669613     1B2    -1.645121     1B1    -1.645121  
       5A1    -0.282619     2B1     0.027685     2B2     0.027685  

    Beta Virtual:                                                         

       6A1     0.071498     7A1     0.142340     3B2     0.184989  
       3B1     0.184989     8A1     0.215257     9A1     0.293017  
       4B2     0.368808     4B1     0.368808    10A1     0.497011  
      11A1     0.532083     1A2     0.532083     5B1     0.661677  
       5B2     0.661677     6B1     0.782996     6B2     0.782996  
      12A1     0.828176    13A1     1.095221    14A1     1.479897  
       2A2     1.479898    15A1     1.542345     7B1     1.645921  
       7B2     1.645921    16A1     2.020473  

    Final Occupation by Irrep:
             A1    A2    B1    B2 
    DOCC [     5,    0,    2,    2 ]
    SOCC [     1,    0,    0,    0 ]
    NA   [     6,    0,    2,    2 ]
    NB   [     5,    0,    2,    2 ]

  @DF-UKS Final Energy:  -237.81675985790952

   => Energetics <=

    Nuclear Repulsion Energy =             26.3561791042113605
    One-Electron Energy =                -386.2258303181275210
    Two-Electron Energy =                 139.8678488915876983
    DFT Exchange-Correlation Energy =     -17.8149575355810619
    Empirical Dispersion Energy =           0.0000000000000000
    VV10 Nonlocal Energy =                  0.0000000000000000
    Total Energy =                       -237.8167598579095170

  UHF NO Occupations:
  HONO-2 :    2 B1 1.9985879
  HONO-1 :    5 A1 1.9980565
  HONO-0 :    6 A1 1.0000000
  LUNO+0 :    7 A1 0.0019435
  LUNO+1 :    3 B2 0.0014121
  LUNO+2 :    3 B1 0.0014121
  LUNO+3 :    8 A1 0.0000008


Computation Completed


Properties will be evaluated at   0.000000,   0.000000,   0.000000 [a0]

Properties computed using the SCF density matrix


 Multipole Moments:

 ------------------------------------------------------------------------------------
     Multipole            Electronic (a.u.)      Nuclear  (a.u.)        Total (a.u.)
 ------------------------------------------------------------------------------------

 L = 1.  Multiply by 2.5417464519 to convert [e a0] to [Debye]
 Dipole X            :          0.0000000            0.0000000            0.0000000
 Dipole Y            :          0.0000000            0.0000000            0.0000000
 Dipole Z            :         -0.6023358           -0.0068134           -0.6091492
 Magnitude           :                                                    0.6091492

 ------------------------------------------------------------------------------------

*** tstop() called on Joses-MacBook-Pro-2.local at Thu Jul 17 10:18:12 2025
Module time:
	user time   =       4.64 seconds =       0.08 minutes
	system time =       5.03 seconds =       0.08 minutes
	total time  =          1 seconds =       0.02 minutes
Total time:
	user time   =      19.71 seconds =       0.33 minutes
	system time =      18.39 seconds =       0.31 minutes
	total time  =          3 seconds =       0.05 minutes

*** tstart() called on Joses-MacBook-Pro-2.local
*** at Thu Jul 17 10:18:12 2025


         ------------------------------------------------------------
                                   SCF GRAD                          
                          Rob Parrish, Justin Turney,                
                       Andy Simmonett, and Alex Sokolov              
         ------------------------------------------------------------

  ==> Geometry <==

    Molecular point group: c2v
    Full point group: C_inf_v

    Geometry (in Angstrom), charge = -1, multiplicity = 2:

       Center              X                  Y                   Z               Mass       
    ------------   -----------------  -----------------  -----------------  -----------------
         C            0.000000000000     0.000000000000     0.963539773961    12.000000000000
         MG           0.000000000000     0.000000000000    -0.482070343408    23.985041697000

  Nuclear repulsion =   26.356179104211360

  ==> Basis Set <==

  Basis Set: CC-PVDZ
    Blend: CC-PVDZ
    Number of shells: 14
    Number of basis functions: 32
    Number of Cartesian functions: 34
    Spherical Harmonics?: true
    Max angular momentum: 2

  ==> DFJKGrad: Density-Fitted SCF Gradients <==

    Gradient:                    1
    J tasked:                  Yes
    K tasked:                  Yes
    wK tasked:                  No
    OpenMP threads:              1
    Integrals threads:           1
    Memory [MiB]:              375
    Schwarz Cutoff:          1E-12
    Fitting Condition:       1E-10

   => Auxiliary Basis Set <=

  Basis Set: (CC-PVDZ AUX)
    Blend: CC-PVDZ-JKFIT + DEF2-UNIVERSAL-JKFIT
    Number of shells: 58
    Number of basis functions: 182
    Number of Cartesian functions: 218
    Spherical Harmonics?: true
    Max angular momentum: 4

  ==> DFT Potential <==

   => LibXC <=

    Version 6.2.2
    S. Lehtola, C. Steigemann, M. J.T. Oliveira, and M. A.L. Marques.,  SoftwareX 7, 1–5 (2018) (10.1016/j.softx.2017.11.002)

   => Composite Functional: B3LYP <= 

    B3LYP Hyb-GGA Exchange-Correlation Functional

    P. J. Stephens, F. J. Devlin, C. F. Chabalowski, and M. J. Frisch.,  J. Phys. Chem. 98, 11623 (1994) (10.1021/j100096a001)

    Deriv               =              1
    GGA                 =           TRUE
    Meta                =          FALSE

    Exchange Hybrid     =           TRUE
    MP2 Hybrid          =          FALSE

   => Exchange Functionals <=

    0.0800   Slater exchange
    0.7200         Becke 88

   => Exact (HF) Exchange <=

    0.2000               HF 

   => Correlation Functionals <=

    0.1900   Vosko, Wilk & Nusair (VWN5_RPA)
    0.8100   Lee, Yang & Parr

   => LibXC Density Thresholds  <==

    XC_HYB_GGA_XC_B3LYP:  1.00E-15 

   => Molecular Quadrature <=

    Radial Scheme          =       TREUTLER
    Pruning Scheme         =           NONE
    Nuclear Scheme         =       TREUTLER

    Blocking Scheme        =         OCTREE
    BS radius alpha        =              1
    Pruning alpha          =              1
    Radial Points          =             75
    Spherical Points       =            302
    Total Points           =          43377
    Total Blocks           =            410
    Max Points             =            256
    Max Functions          =             32
    Weights Tolerance      =       1.00E-15


  -Total Gradient:
     Atom            X                  Y                   Z
    ------   -----------------  -----------------  -----------------
       1        0.000000000000     0.000000000000    -0.339092906018
       2        0.000000000000     0.000000000000     0.339081931015


*** tstop() called on Joses-MacBook-Pro-2.local at Thu Jul 17 10:18:19 2025
Module time:
	user time   =       0.50 seconds =       0.01 minutes
	system time =       1.08 seconds =       0.02 minutes
	total time  =          7 seconds =       0.12 minutes
Total time:
	user time   =      20.22 seconds =       0.34 minutes
	system time =      19.47 seconds =       0.32 minutes
	total time  =         10 seconds =       0.17 minutes

    			-----------------------------------------

    			 OPTKING 3.0: for geometry optimizations 

    			     By R.A. King, Bethel University     

    			        with contributions from          

    			    A.V. Copan, J. Cayton, A. Heide      

    			-----------------------------------------

    
	                            ===> Fragment 1 <== 

	 Z (Atomic Numbers)          Masses                          Geom                  
	       6.000000            12.000000          0.00000000  0.00000000  1.82082628   
	      12.000000            23.985042          0.00000000  0.00000000 -0.91098092   

	 - Coordinate -           - BOHR/RAD -       - ANG/DEG -
	 R(1,2)           =         2.731807           1.445610


	        --- Internal Coordinate Step in ANG or DEG, aJ/ANG or AJ/DEG ---
	-------------------------------------------------------------------------------
	           Coordinate      Previous         Force          Change          New 
	           ----------      --------        ------          ------        ------
	               R(1,2)       1.44561        2.79365        0.14544       1.59105
	-------------------------------------------------------------------------------

	                                 ==> Convergence Check <==                                  
    
	Measures of convergence in internal coordinates in au.
    
	Criteria marked as inactive (o), active & met (*), and active & unmet ( ).

	----------------------------------------------------------------------------------------------
	   Step    Total Energy     Delta E     Max Force     RMS Force      Max Disp      RMS Disp   
	----------------------------------------------------------------------------------------------
	  Convergence Criteria     1.00e-06 *    3.00e-04 *             o    1.20e-03 *             o
	----------------------------------------------------------------------------------------------
	     3    -237.81675986   -1.21e-01      3.39e-01      3.39e-01 o    2.75e-01      2.75e-01 o  ~
	----------------------------------------------------------------------------------------------

Next Geometry in Ang 
	Fragment 1 (Ang)

	    C   0.0000000000   0.0000000000   1.0362604585
	   Mg   0.0000000000   0.0000000000  -0.5547910279


    Structure for next step:
    Molecular point group: c2v
    Full point group: C_inf_v

    Geometry (in Angstrom), charge = -1, multiplicity = 2:

    C            0.000000000000     0.000000000000     1.060480534220
    MG           0.000000000000     0.000000000000    -0.530570952154


Scratch directory: /tmp/
gradient() will perform analytic gradient computation.
   => Libint2 <=

    Primary   basis highest AM E, G, H:  6, 6, 3
    Auxiliary basis highest AM E, G, H:  7, 7, 4
    Onebody   basis highest AM E, G, H:  -, -, -
    Solid Harmonics ordering:            Gaussian

*** tstart() called on Joses-MacBook-Pro-2.local
*** at Thu Jul 17 10:18:19 2025

   => Loading Basis Set <=

    Name: CC-PVDZ
    Role: ORBITAL
    Keyword: BASIS
    atoms 1 entry C          line   138 file /Users/joseantoniorodriguesromero/anaconda3/share/psi4/basis/cc-pvdz.gbs 
    atoms 2 entry MG         line   353 file /Users/joseantoniorodriguesromero/anaconda3/share/psi4/basis/cc-pvdz.gbs 


         ---------------------------------------------------------
                                   SCF
               by Justin Turney, Rob Parrish, Andy Simmonett
                          and Daniel G. A. Smith
                              UKS Reference
                        1 Threads,    500 MiB Core
         ---------------------------------------------------------

  ==> Geometry <==

    Molecular point group: c2v
    Full point group: C_inf_v

    Geometry (in Angstrom), charge = -1, multiplicity = 2:

       Center              X                  Y                   Z               Mass       
    ------------   -----------------  -----------------  -----------------  -----------------
         C            0.000000000000     0.000000000000     1.060480534220    12.000000000000
         MG           0.000000000000     0.000000000000    -0.530570952154    23.985041697000

  Running in c2v symmetry.

  Rotational constants: A = ************  B =      0.83258  C =      0.83258 [cm^-1]
  Rotational constants: A = ************  B =  24960.25503  C =  24960.25503 [MHz]
  Nuclear repulsion =   23.946905235015240

  Charge       = -1
  Multiplicity = 2
  Electrons    = 19
  Nalpha       = 10
  Nbeta        = 9

  ==> Algorithm <==

  SCF Algorithm Type is DF.
  DIIS enabled.
  MOM disabled.
  Fractional occupation disabled.
  Guess Type is READ.
  Energy threshold   = 1.00e-08
  Density threshold  = 1.00e-08
  Integral threshold = 1.00e-12

  ==> Primary Basis <==

  Basis Set: CC-PVDZ
    Blend: CC-PVDZ
    Number of shells: 14
    Number of basis functions: 32
    Number of Cartesian functions: 34
    Spherical Harmonics?: true
    Max angular momentum: 2

  ==> DFT Potential <==

   => LibXC <=

    Version 6.2.2
    S. Lehtola, C. Steigemann, M. J.T. Oliveira, and M. A.L. Marques.,  SoftwareX 7, 1–5 (2018) (10.1016/j.softx.2017.11.002)

   => Composite Functional: B3LYP <= 

    B3LYP Hyb-GGA Exchange-Correlation Functional

    P. J. Stephens, F. J. Devlin, C. F. Chabalowski, and M. J. Frisch.,  J. Phys. Chem. 98, 11623 (1994) (10.1021/j100096a001)

    Deriv               =              1
    GGA                 =           TRUE
    Meta                =          FALSE

    Exchange Hybrid     =           TRUE
    MP2 Hybrid          =          FALSE

   => Exchange Functionals <=

    0.0800   Slater exchange
    0.7200         Becke 88

   => Exact (HF) Exchange <=

    0.2000               HF 

   => Correlation Functionals <=

    0.1900   Vosko, Wilk & Nusair (VWN5_RPA)
    0.8100   Lee, Yang & Parr

   => LibXC Density Thresholds  <==

    XC_HYB_GGA_XC_B3LYP:  1.00E-15 

   => Molecular Quadrature <=

    Radial Scheme          =       TREUTLER
    Pruning Scheme         =           NONE
    Nuclear Scheme         =       TREUTLER

    Blocking Scheme        =         OCTREE
    BS radius alpha        =              1
    Pruning alpha          =              1
    Radial Points          =             75
    Spherical Points       =            302
    Total Points           =          43395
    Total Blocks           =            411
    Max Points             =            255
    Max Functions          =             32
    Weights Tolerance      =       1.00E-15

   => Loading Basis Set <=

    Name: (CC-PVDZ AUX)
    Role: JKFIT
    Keyword: DF_BASIS_SCF
    atoms 1 entry C          line   121 file /Users/joseantoniorodriguesromero/anaconda3/share/psi4/basis/cc-pvdz-jkfit.gbs 
    atoms 2 entry MG         line   576 file /Users/joseantoniorodriguesromero/anaconda3/share/psi4/basis/def2-universal-jkfit.gbs 

   => Loading Basis Set <=

    Name: CC-PVDZ
    Role: ORBITAL
    Keyword: BASIS
    atoms 1 entry C          line   138 file /Users/joseantoniorodriguesromero/anaconda3/share/psi4/basis/cc-pvdz.gbs 
    atoms 2 entry MG         line   353 file /Users/joseantoniorodriguesromero/anaconda3/share/psi4/basis/cc-pvdz.gbs 

  Reading orbitals from file /tmp/doublet_CMg.default.72467.180.npy, no projection.

  ==> Integral Setup <==

  DFHelper Memory: AOs need 0.002 GiB; user supplied 0.327 GiB. 
  Using in-core AOs.

  ==> MemDFJK: Density-Fitted J/K Matrices <==

    J tasked:                   Yes
    K tasked:                   Yes
    wK tasked:                   No
    OpenMP threads:               1
    Memory [MiB]:               334
    Algorithm:                 Core
    Schwarz Cutoff:           1E-12
    Mask sparsity (%):       0.0000
    Fitting Condition:        1E-10

   => Auxiliary Basis Set <=

  Basis Set: (CC-PVDZ AUX)
    Blend: CC-PVDZ-JKFIT + DEF2-UNIVERSAL-JKFIT
    Number of shells: 58
    Number of basis functions: 182
    Number of Cartesian functions: 218
    Spherical Harmonics?: true
    Max angular momentum: 4

  Cached 100.0% of DFT collocation blocks in 0.039 [GiB].

  Minimum eigenvalue in the overlap matrix is 1.1860358100E-03.
  Reciprocal condition number of the overlap matrix is 3.7247525866E-04.
    Using symmetric orthogonalization.

  ==> Pre-Iterations <==

  SCF Guess: Orbitals guess was supplied from a previous computation.

   -------------------------------------------------------
    Irrep   Nso     Nmo     Nalpha   Nbeta   Ndocc  Nsocc
   -------------------------------------------------------
     A1        16      16       6       5       5       1
     A2         2       2       0       0       0       0
     B1         7       7       2       2       2       0
     B2         7       7       2       2       2       0
   -------------------------------------------------------
    Total      32      32      10       9       9       1
   -------------------------------------------------------

  ==> Iterations <==

                           Total Energy        Delta E     RMS |[F,P]|

   @DF-UKS iter   0:  -237.83301882410476   -2.37833e+02   1.76975e-02 
   @DF-UKS iter   1:  -237.88412991023642   -5.11111e-02   1.19328e-03 ADIIS/DIIS
   @DF-UKS iter   2:  -237.88198051086368    2.14940e-03   3.00499e-03 ADIIS/DIIS/DAMP=1%
   @DF-UKS iter   3:  -237.88673060833111   -4.75010e-03   1.22642e-03 ADIIS/DIIS/DAMP=1%
   @DF-UKS iter   4:  -237.88368919446140    3.04141e-03   4.99392e-05 DIIS/DAMP=1%
   @DF-UKS iter   5:  -237.88455930800151   -8.70114e-04   2.00276e-05 DIIS/DAMP=1%
   @DF-UKS iter   6:  -237.88452922547515    3.00825e-05   1.95077e-05 DIIS/DAMP=1%
   @DF-UKS iter   7:  -237.88455964320167   -3.04177e-05   5.27037e-06 DIIS/DAMP=1%
   @DF-UKS iter   8:  -237.88454802313106    1.16201e-05   2.12519e-06 DIIS/DAMP=1%
   @DF-UKS iter   9:  -237.88454550615344    2.51698e-06   3.33091e-07 DIIS/DAMP=1%
   @DF-UKS iter  10:  -237.88454590597939   -3.99826e-07   1.89757e-07 DIIS/DAMP=1%
   @DF-UKS iter  11:  -237.88454617772169   -2.71742e-07   8.90606e-08 DIIS/DAMP=1%
   @DF-UKS iter  12:  -237.88454616683174    1.08899e-08   8.54472e-09 DIIS/DAMP=1%
   @DF-UKS iter  13:  -237.88454615117999    1.56518e-08   1.84027e-09 DIIS/DAMP=1%
   @DF-UKS iter  14:  -237.88454615822951   -7.04952e-09   1.80464e-10 DIIS/DAMP=1%
  Energy and wave function converged.


  ==> Post-Iterations <==

   Electrons on quadrature grid:
      Nalpha   =   10.0000001834 ; deviation = 1.834e-07
      Nbeta    =    9.0000001028 ; deviation = 1.028e-07
      Ntotal   =   19.0000002862 ; deviation = 2.862e-07 

   @Spin Contamination Metric:   1.184085705E-02
   @S^2 Expected:                7.500000000E-01
   @S^2 Observed:                7.618408570E-01
   @S   Expected:                5.000000000E-01
   @S   Observed:                5.000000000E-01

    Orbital Energies [Eh]
    ---------------------

    Alpha Occupied:                                                       

       1A1   -46.613332     2A1    -9.978194     3A1    -2.910816  
       4A1    -1.662691     1B1    -1.650046     1B2    -1.650046  
       5A1    -0.296243     6A1    -0.019666     2B1     0.031752  
       2B2     0.031752  

    Alpha Virtual:                                                        

       7A1     0.094305     3B1     0.171502     3B2     0.171502  
       8A1     0.202427     9A1     0.257185     4B2     0.336093  
       4B1     0.336093    10A1     0.455091     1A2     0.509344  
      11A1     0.509344     5B1     0.617539     5B2     0.617539  
      12A1     0.765642     6B2     0.775339     6B1     0.775339  
      13A1     1.081095    14A1     1.305906     2A2     1.468861  
      15A1     1.468862     7B2     1.620090     7B1     1.620090  
      16A1     1.863571  

    Beta Occupied:                                                        

       1A1   -46.611160     2A1    -9.975729     3A1    -2.906932  
       4A1    -1.660416     1B1    -1.647255     1B2    -1.647255  
       5A1    -0.288726     2B1     0.033300     2B2     0.033300  

    Beta Virtual:                                                         

       6A1     0.059683     7A1     0.127844     3B1     0.179889  
       3B2     0.179889     8A1     0.210126     9A1     0.282153  
       4B2     0.357740     4B1     0.357740    10A1     0.484647  
       1A2     0.527357    11A1     0.527358     5B1     0.640599  
       5B2     0.640599     6B2     0.775203     6B1     0.775203  
      12A1     0.786247    13A1     1.088946    14A1     1.327328  
       2A2     1.467889    15A1     1.467889     7B2     1.635453  
       7B1     1.635453    16A1     1.878231  

    Final Occupation by Irrep:
             A1    A2    B1    B2 
    DOCC [     5,    0,    2,    2 ]
    SOCC [     1,    0,    0,    0 ]
    NA   [     6,    0,    2,    2 ]
    NB   [     5,    0,    2,    2 ]

  @DF-UKS Final Energy:  -237.88454615822951

   => Energetics <=

    Nuclear Repulsion Energy =             23.9469052350152403
    One-Electron Energy =                -381.5588137138270213
    Two-Electron Energy =                 137.4906639897949674
    DFT Exchange-Correlation Energy =     -17.7633016692127299
    Empirical Dispersion Energy =           0.0000000000000000
    VV10 Nonlocal Energy =                  0.0000000000000000
    Total Energy =                       -237.8845461582295115

  UHF NO Occupations:
  HONO-2 :    2 B2 1.9981704
  HONO-1 :    5 A1 1.9977340
  HONO-0 :    6 A1 1.0000000
  LUNO+0 :    7 A1 0.0022660
  LUNO+1 :    3 B2 0.0018296
  LUNO+2 :    3 B1 0.0018296
  LUNO+3 :    8 A1 0.0000007


Computation Completed


Properties will be evaluated at   0.000000,   0.000000,   0.000000 [a0]

Properties computed using the SCF density matrix


 Multipole Moments:

 ------------------------------------------------------------------------------------
     Multipole            Electronic (a.u.)      Nuclear  (a.u.)        Total (a.u.)
 ------------------------------------------------------------------------------------

 L = 1.  Multiply by 2.5417464519 to convert [e a0] to [Debye]
 Dipole X            :          0.0000000            0.0000000            0.0000000
 Dipole Y            :          0.0000000            0.0000000            0.0000000
 Dipole Z            :         -0.8141490           -0.0074989           -0.8216479
 Magnitude           :                                                    0.8216479

 ------------------------------------------------------------------------------------

*** tstop() called on Joses-MacBook-Pro-2.local at Thu Jul 17 10:18:23 2025
Module time:
	user time   =       5.86 seconds =       0.10 minutes
	system time =       7.17 seconds =       0.12 minutes
	total time  =          4 seconds =       0.07 minutes
Total time:
	user time   =      26.10 seconds =       0.43 minutes
	system time =      26.64 seconds =       0.44 minutes
	total time  =         14 seconds =       0.23 minutes

*** tstart() called on Joses-MacBook-Pro-2.local
*** at Thu Jul 17 10:18:23 2025


         ------------------------------------------------------------
                                   SCF GRAD                          
                          Rob Parrish, Justin Turney,                
                       Andy Simmonett, and Alex Sokolov              
         ------------------------------------------------------------

  ==> Geometry <==

    Molecular point group: c2v
    Full point group: C_inf_v

    Geometry (in Angstrom), charge = -1, multiplicity = 2:

       Center              X                  Y                   Z               Mass       
    ------------   -----------------  -----------------  -----------------  -----------------
         C            0.000000000000     0.000000000000     1.060480534220    12.000000000000
         MG           0.000000000000     0.000000000000    -0.530570952154    23.985041697000

  Nuclear repulsion =   23.946905235015240

  ==> Basis Set <==

  Basis Set: CC-PVDZ
    Blend: CC-PVDZ
    Number of shells: 14
    Number of basis functions: 32
    Number of Cartesian functions: 34
    Spherical Harmonics?: true
    Max angular momentum: 2

  ==> DFJKGrad: Density-Fitted SCF Gradients <==

    Gradient:                    1
    J tasked:                  Yes
    K tasked:                  Yes
    wK tasked:                  No
    OpenMP threads:              1
    Integrals threads:           1
    Memory [MiB]:              375
    Schwarz Cutoff:          1E-12
    Fitting Condition:       1E-10

   => Auxiliary Basis Set <=

  Basis Set: (CC-PVDZ AUX)
    Blend: CC-PVDZ-JKFIT + DEF2-UNIVERSAL-JKFIT
    Number of shells: 58
    Number of basis functions: 182
    Number of Cartesian functions: 218
    Spherical Harmonics?: true
    Max angular momentum: 4

  ==> DFT Potential <==

   => LibXC <=

    Version 6.2.2
    S. Lehtola, C. Steigemann, M. J.T. Oliveira, and M. A.L. Marques.,  SoftwareX 7, 1–5 (2018) (10.1016/j.softx.2017.11.002)

   => Composite Functional: B3LYP <= 

    B3LYP Hyb-GGA Exchange-Correlation Functional

    P. J. Stephens, F. J. Devlin, C. F. Chabalowski, and M. J. Frisch.,  J. Phys. Chem. 98, 11623 (1994) (10.1021/j100096a001)

    Deriv               =              1
    GGA                 =           TRUE
    Meta                =          FALSE

    Exchange Hybrid     =           TRUE
    MP2 Hybrid          =          FALSE

   => Exchange Functionals <=

    0.0800   Slater exchange
    0.7200         Becke 88

   => Exact (HF) Exchange <=

    0.2000               HF 

   => Correlation Functionals <=

    0.1900   Vosko, Wilk & Nusair (VWN5_RPA)
    0.8100   Lee, Yang & Parr

   => LibXC Density Thresholds  <==

    XC_HYB_GGA_XC_B3LYP:  1.00E-15 

   => Molecular Quadrature <=

    Radial Scheme          =       TREUTLER
    Pruning Scheme         =           NONE
    Nuclear Scheme         =       TREUTLER

    Blocking Scheme        =         OCTREE
    BS radius alpha        =              1
    Pruning alpha          =              1
    Radial Points          =             75
    Spherical Points       =            302
    Total Points           =          43395
    Total Blocks           =            411
    Max Points             =            255
    Max Functions          =             32
    Weights Tolerance      =       1.00E-15


  -Total Gradient:
     Atom            X                  Y                   Z
    ------   -----------------  -----------------  -----------------
       1        0.000000000000     0.000000000000    -0.167908863797
       2        0.000000000000    -0.000000000000     0.167865722263


*** tstop() called on Joses-MacBook-Pro-2.local at Thu Jul 17 10:18:23 2025
Module time:
	user time   =       0.66 seconds =       0.01 minutes
	system time =       2.06 seconds =       0.03 minutes
	total time  =          0 seconds =       0.00 minutes
Total time:
	user time   =      26.77 seconds =       0.45 minutes
	system time =      28.73 seconds =       0.48 minutes
	total time  =         14 seconds =       0.23 minutes

    			-----------------------------------------

    			 OPTKING 3.0: for geometry optimizations 

    			     By R.A. King, Bethel University     

    			        with contributions from          

    			    A.V. Copan, J. Cayton, A. Heide      

    			-----------------------------------------

    
	                            ===> Fragment 1 <== 

	 Z (Atomic Numbers)          Masses                          Geom                  
	       6.000000            12.000000          0.00000000  0.00000000  2.00401777   
	      12.000000            23.985042          0.00000000  0.00000000 -1.00263379   

	 - Coordinate -           - BOHR/RAD -       - ANG/DEG -
	 R(1,2)           =         3.006652           1.591051


	        --- Internal Coordinate Step in ANG or DEG, aJ/ANG or AJ/DEG ---
	-------------------------------------------------------------------------------
	           Coordinate      Previous         Force          Change          New 
	           ----------      --------        ------          ------        ------
	               R(1,2)       1.59105        1.38318        0.13354       1.72460
	-------------------------------------------------------------------------------

	                                 ==> Convergence Check <==                                  
    
	Measures of convergence in internal coordinates in au.
    
	Criteria marked as inactive (o), active & met (*), and active & unmet ( ).

	----------------------------------------------------------------------------------------------
	   Step    Total Energy     Delta E     Max Force     RMS Force      Max Disp      RMS Disp   
	----------------------------------------------------------------------------------------------
	  Convergence Criteria     1.00e-06 *    3.00e-04 *             o    1.20e-03 *             o
	----------------------------------------------------------------------------------------------
	     4    -237.88454616   -6.78e-02      1.68e-01      1.68e-01 o    2.52e-01      2.52e-01 o  ~
	----------------------------------------------------------------------------------------------

Next Geometry in Ang 
	Fragment 1 (Ang)

	    C   0.0000000000   0.0000000000   1.1272523538
	   Mg   0.0000000000   0.0000000000  -0.5973427718


    Structure for next step:
    Molecular point group: c2v
    Full point group: C_inf_v

    Geometry (in Angstrom), charge = -1, multiplicity = 2:

    C            0.000000000000     0.000000000000     1.149491123158
    MG           0.000000000000     0.000000000000    -0.575104002409


Scratch directory: /tmp/
gradient() will perform analytic gradient computation.
   => Libint2 <=

    Primary   basis highest AM E, G, H:  6, 6, 3
    Auxiliary basis highest AM E, G, H:  7, 7, 4
    Onebody   basis highest AM E, G, H:  -, -, -
    Solid Harmonics ordering:            Gaussian

*** tstart() called on Joses-MacBook-Pro-2.local
*** at Thu Jul 17 10:18:23 2025

   => Loading Basis Set <=

    Name: CC-PVDZ
    Role: ORBITAL
    Keyword: BASIS
    atoms 1 entry C          line   138 file /Users/joseantoniorodriguesromero/anaconda3/share/psi4/basis/cc-pvdz.gbs 
    atoms 2 entry MG         line   353 file /Users/joseantoniorodriguesromero/anaconda3/share/psi4/basis/cc-pvdz.gbs 


         ---------------------------------------------------------
                                   SCF
               by Justin Turney, Rob Parrish, Andy Simmonett
                          and Daniel G. A. Smith
                              UKS Reference
                        1 Threads,    500 MiB Core
         ---------------------------------------------------------

  ==> Geometry <==

    Molecular point group: c2v
    Full point group: C_inf_v

    Geometry (in Angstrom), charge = -1, multiplicity = 2:

[...]
   @DF-UKS iter 309:  -237.97974455676271   -2.61632e-05   1.10704e-04 ADIIS/DIIS/DAMP=1%
   @DF-UKS iter 310:  -237.97972585325769    1.87035e-05   1.14765e-04 ADIIS/DIIS/DAMP=1%
   @DF-UKS iter 311:  -237.97977785204182   -5.19988e-05   1.25840e-04 ADIIS/DIIS/DAMP=1%
   @DF-UKS iter 312:  -237.97973241926607    4.54328e-05   1.07565e-04 ADIIS/DIIS/DAMP=1%
   @DF-UKS iter 313:  -237.97965367883154    7.87404e-05   1.28335e-04 ADIIS/DIIS/DAMP=1%
   @DF-UKS iter 314:  -237.97971606045493   -6.23816e-05   1.23644e-04 ADIIS/DIIS/DAMP=1%
   @DF-UKS iter 315:  -237.97960435476611    1.11706e-04   1.23774e-04 ADIIS/DIIS/DAMP=1%
   @DF-UKS iter 316:  -237.97966569133609   -6.13366e-05   1.36464e-04 ADIIS/DIIS/DAMP=1%
   @DF-UKS iter 317:  -237.97973648007132   -7.07887e-05   1.49200e-04 ADIIS/DIIS/DAMP=1%
   @DF-UKS iter 318:  -237.97968978022666    4.66998e-05   1.38473e-04 ADIIS/DIIS/DAMP=1%
   @DF-UKS iter 319:  -237.97967033631787    1.94439e-05   1.33732e-04 ADIIS/DIIS/DAMP=1%
   @DF-UKS iter 320:  -237.97967433276716   -3.99645e-06   1.08160e-04 ADIIS/DIIS/DAMP=1%
   @DF-UKS iter 321:  -237.97970285905740   -2.85263e-05   1.38866e-04 ADIIS/DIIS/DAMP=1%
   @DF-UKS iter 322:  -237.97978521670316   -8.23576e-05   8.91420e-05 DIIS/DAMP=1%
   @DF-UKS iter 323:  -237.97965795073807    1.27266e-04   1.20571e-04 ADIIS/DIIS/DAMP=1%
   @DF-UKS iter 324:  -237.97950524153052    1.52709e-04   1.23248e-04 ADIIS/DIIS/DAMP=1%
   @DF-UKS iter 325:  -237.97965099903496   -1.45758e-04   1.25855e-04 ADIIS/DIIS/DAMP=1%
   @DF-UKS iter 326:  -237.97969717783172   -4.61788e-05   1.26774e-04 ADIIS/DIIS/DAMP=1%
   @DF-UKS iter 327:  -237.97969102582087    6.15201e-06   1.27714e-04 ADIIS/DIIS/DAMP=1%
   @DF-UKS iter 328:  -237.97967372023459    1.73056e-05   7.84648e-05 DIIS/DAMP=1%
   @DF-UKS iter 329:  -237.97960041918898    7.33010e-05   7.94731e-05 DIIS/DAMP=1%
   @DF-UKS iter 330:  -237.97968652921796   -8.61100e-05   9.38502e-05 DIIS/DAMP=1%
   @DF-UKS iter 331:  -237.97941051029537    2.76019e-04   1.33190e-04 ADIIS/DIIS/DAMP=1%
   @DF-UKS iter 332:  -237.97935372799503    5.67823e-05   1.49269e-04 ADIIS/DIIS/DAMP=1%
   @DF-UKS iter 333:  -237.97934714339777    6.58460e-06   1.45974e-04 ADIIS/DIIS/DAMP=1%
   @DF-UKS iter 334:  -237.97926930828820    7.78351e-05   1.68048e-04 ADIIS/DIIS/DAMP=1%
   @DF-UKS iter 335:  -237.97948113996077   -2.11832e-04   1.10305e-04 ADIIS/DIIS/DAMP=1%
   @DF-UKS iter 336:  -237.97932050771487    1.60632e-04   1.52603e-04 ADIIS/DIIS/DAMP=1%
   @DF-UKS iter 337:  -237.97963280445597   -3.12297e-04   9.66029e-05 DIIS/DAMP=1%
   @DF-UKS iter 338:  -237.97959761848247    3.51860e-05   9.10928e-05 DIIS/DAMP=1%
   @DF-UKS iter 339:  -237.97954224534405    5.53731e-05   8.67035e-05 DIIS/DAMP=1%
   @DF-UKS iter 340:  -237.97945357615441    8.86692e-05   9.37937e-05 DIIS/DAMP=1%
   @DF-UKS iter 341:  -237.97940276488575    5.08113e-05   9.84634e-05 DIIS/DAMP=1%
   @DF-UKS iter 342:  -237.97926208905608    1.40676e-04   1.38364e-04 ADIIS/DIIS/DAMP=1%
   @DF-UKS iter 343:  -237.97951907109916   -2.56982e-04   8.42527e-05 DIIS/DAMP=1%
   @DF-UKS iter 344:  -237.97941477952162    1.04292e-04   1.09983e-04 ADIIS/DIIS/DAMP=1%
   @DF-UKS iter 345:  -237.97944601250487   -3.12330e-05   1.00591e-04 ADIIS/DIIS/DAMP=1%
   @DF-UKS iter 346:  -237.97945656312780   -1.05506e-05   9.63334e-05 DIIS/DAMP=1%
   @DF-UKS iter 347:  -237.97944475108679    1.18120e-05   9.92357e-05 DIIS/DAMP=1%
   @DF-UKS iter 348:  -237.97967806787480   -2.33317e-04   7.30768e-05 DIIS/DAMP=1%
   @DF-UKS iter 349:  -237.97946508034755    2.12988e-04   9.62469e-05 DIIS/DAMP=1%
   @DF-UKS iter 350:  -237.97946183498442    3.24536e-06   1.00471e-04 ADIIS/DIIS/DAMP=1%
   @DF-UKS iter 351:  -237.97903051774998    4.31317e-04   2.05363e-04 ADIIS/DIIS/DAMP=1%
   @DF-UKS iter 352:  -237.97891221385743    1.18304e-04   2.25746e-04 ADIIS/DIIS/DAMP=1%
   @DF-UKS iter 353:  -237.97819241429147    7.19800e-04   4.10288e-04 ADIIS/DIIS/DAMP=1%
   @DF-UKS iter 354:  -237.97879546467900   -6.03050e-04   2.22343e-04 ADIIS/DIIS/DAMP=1%
   @DF-UKS iter 355:  -237.97939968957701   -6.04225e-04   1.12033e-04 ADIIS/DIIS/DAMP=1%
   @DF-UKS iter 356:  -237.97934880252413    5.08871e-05   1.51175e-04 ADIIS/DIIS/DAMP=1%
   @DF-UKS iter 357:  -237.97947011420140   -1.21312e-04   9.22742e-05 DIIS/DAMP=1%
   @DF-UKS iter 358:  -237.97949888375527   -2.87696e-05   1.03681e-04 ADIIS/DIIS/DAMP=1%
   @DF-UKS iter 359:  -237.97902619792791    4.72686e-04   1.86203e-04 ADIIS/DIIS/DAMP=1%
   @DF-UKS iter 360:  -237.97956567821865   -5.39480e-04   8.46362e-05 DIIS/DAMP=1%
   @DF-UKS iter 361:  -237.97977688207897   -2.11204e-04   9.38358e-05 DIIS/DAMP=1%
   @DF-UKS iter 362:  -237.97987562230651   -9.87402e-05   1.82386e-04 ADIIS/DIIS/DAMP=1%
   @DF-UKS iter 363:  -237.97990914425446   -3.35219e-05   1.59954e-04 ADIIS/DIIS/DAMP=1%
   @DF-UKS iter 364:  -237.97962313920942    2.86005e-04   1.24519e-04 ADIIS/DIIS/DAMP=1%
   @DF-UKS iter 365:  -237.97968155496537   -5.84158e-05   1.33221e-04 ADIIS/DIIS/DAMP=1%
   @DF-UKS iter 366:  -237.97970216537234   -2.06104e-05   1.24098e-04 ADIIS/DIIS/DAMP=1%
   @DF-UKS iter 367:  -237.97969429253902    7.87283e-06   1.14185e-04 ADIIS/DIIS/DAMP=1%
   @DF-UKS iter 368:  -237.97968281995045    1.14726e-05   1.16333e-04 ADIIS/DIIS/DAMP=1%
   @DF-UKS iter 369:  -237.97984037296953   -1.57553e-04   1.31164e-04 ADIIS/DIIS/DAMP=1%
   @DF-UKS iter 370:  -237.97984772437019   -7.35140e-06   1.36794e-04 ADIIS/DIIS/DAMP=1%
   @DF-UKS iter 371:  -237.97982069406234    2.70303e-05   1.02948e-04 ADIIS/DIIS/DAMP=1%
   @DF-UKS iter 372:  -237.97987760090726   -5.69068e-05   1.51690e-04 ADIIS/DIIS/DAMP=1%
   @DF-UKS iter 373:  -237.97973178195863    1.45819e-04   1.64864e-04 ADIIS/DIIS/DAMP=1%
   @DF-UKS iter 374:  -237.97970030610531    3.14759e-05   1.51242e-04 ADIIS/DIIS/DAMP=1%
   @DF-UKS iter 375:  -237.97969156889909    8.73721e-06   8.79148e-05 DIIS/DAMP=1%
   @DF-UKS iter 376:  -237.97958752774065    1.04041e-04   1.26728e-04 ADIIS/DIIS/DAMP=1%
   @DF-UKS iter 377:  -237.97958478650077    2.74124e-06   1.28727e-04 ADIIS/DIIS/DAMP=1%
   @DF-UKS iter 378:  -237.97969833910034   -1.13553e-04   1.13788e-04 ADIIS/DIIS/DAMP=1%
   @DF-UKS iter 379:  -237.97984923320143   -1.50894e-04   1.87927e-04 ADIIS/DIIS/DAMP=1%
   @DF-UKS iter 380:  -237.97991369763687   -6.44644e-05   1.91793e-04 ADIIS/DIIS/DAMP=1%
   @DF-UKS iter 381:  -237.97974364278548    1.70055e-04   8.78793e-05 DIIS/DAMP=1%
   @DF-UKS iter 382:  -237.97965225103823    9.13917e-05   8.95974e-05 DIIS/DAMP=1%
   @DF-UKS iter 383:  -237.97972507381425   -7.28228e-05   7.74963e-05 DIIS/DAMP=1%
   @DF-UKS iter 384:  -237.97975360543683   -2.85316e-05   9.60265e-05 DIIS/DAMP=1%
   @DF-UKS iter 385:  -237.97969778674567    5.58187e-05   8.01781e-05 DIIS/DAMP=1%
   @DF-UKS iter 386:  -237.97970543349948   -7.64675e-06   7.92688e-05 DIIS/DAMP=1%
   @DF-UKS iter 387:  -237.97971708858009   -1.16551e-05   7.55456e-05 DIIS/DAMP=1%
   @DF-UKS iter 388:  -237.97971850256590   -1.41399e-06   7.25679e-05 DIIS/DAMP=1%
   @DF-UKS iter 389:  -237.97976155485975   -4.30523e-05   7.94565e-05 DIIS/DAMP=1%
   @DF-UKS iter 390:  -237.97959906399578    1.62491e-04   1.00005e-04 ADIIS/DIIS/DAMP=1%
   @DF-UKS iter 391:  -237.97943135881081    1.67705e-04   1.30675e-04 ADIIS/DIIS/DAMP=1%
   @DF-UKS iter 392:  -237.97940395003843    2.74088e-05   1.46825e-04 ADIIS/DIIS/DAMP=1%
   @DF-UKS iter 393:  -237.97952367228163   -1.19722e-04   1.19531e-04 ADIIS/DIIS/DAMP=1%
   @DF-UKS iter 394:  -237.97944998507893    7.36872e-05   1.36461e-04 ADIIS/DIIS/DAMP=1%
   @DF-UKS iter 395:  -237.97942114809146    2.88370e-05   1.41588e-04 ADIIS/DIIS/DAMP=1%
   @DF-UKS iter 396:  -237.97943034908582   -9.20099e-06   1.43919e-04 ADIIS/DIIS/DAMP=1%
   @DF-UKS iter 397:  -237.97948381953273   -5.34704e-05   1.23872e-04 ADIIS/DIIS/DAMP=1%
   @DF-UKS iter 398:  -237.97947064128468    1.31782e-05   1.50241e-04 ADIIS/DIIS/DAMP=1%
   @DF-UKS iter 399:  -237.97945517354927    1.54677e-05   1.26868e-04 ADIIS/DIIS/DAMP=1%
   @DF-UKS iter 400:  -237.97962980752749   -1.74634e-04   7.16208e-05 DIIS/DAMP=1%
   @DF-UKS iter 401:  -237.97949995856146    1.29849e-04   8.16094e-05 DIIS/DAMP=1%
   @DF-UKS iter 402:  -237.97954440742654   -4.44489e-05   7.58048e-05 DIIS/DAMP=1%
   @DF-UKS iter 403:  -237.98002241982857   -4.78012e-04   3.02265e-04 ADIIS/DIIS/DAMP=1%
   @DF-UKS iter 404:  -237.97969113979565    3.31280e-04   1.17434e-04 ADIIS/DIIS/DAMP=1%
   @DF-UKS iter 405:  -237.97968298952088    8.15027e-06   1.09368e-04 ADIIS/DIIS/DAMP=1%
   @DF-UKS iter 406:  -237.97967446544976    8.52407e-06   1.09625e-04 ADIIS/DIIS/DAMP=1%
   @DF-UKS iter 407:  -237.97986156938404   -1.87104e-04   1.99772e-04 ADIIS/DIIS/DAMP=1%
   @DF-UKS iter 408:  -237.97997200573093   -1.10436e-04   2.17818e-04 ADIIS/DIIS/DAMP=1%
   @DF-UKS iter 409:  -237.97991759532187    5.44104e-05   1.58751e-04 ADIIS/DIIS/DAMP=1%
   @DF-UKS iter 410:  -237.97974755016511    1.70045e-04   1.01338e-04 ADIIS/DIIS/DAMP=1%
   @DF-UKS iter 411:  -237.97831738807997    1.43016e-03   3.87432e-04 ADIIS/DIIS/DAMP=1%
   @DF-UKS iter 412:  -237.97920658065189   -8.89193e-04   1.64933e-04 ADIIS/DIIS/DAMP=1%
   @DF-UKS iter 413:  -237.97967364645893   -4.67066e-04   1.35545e-04 ADIIS/DIIS/DAMP=1%
   @DF-UKS iter 414:  -237.97969820594736   -2.45595e-05   1.24105e-04 ADIIS/DIIS/DAMP=1%
   @DF-UKS iter 415:  -237.97965020576041    4.80002e-05   1.31575e-04 ADIIS/DIIS/DAMP=1%
   @DF-UKS iter 416:  -237.97962778475951    2.24210e-05   1.50339e-04 ADIIS/DIIS/DAMP=1%
   @DF-UKS iter 417:  -237.97965170645847   -2.39217e-05   1.49357e-04 ADIIS/DIIS/DAMP=1%
   @DF-UKS iter 418:  -237.97965440692943   -2.70047e-06   1.30304e-04 ADIIS/DIIS/DAMP=1%
   @DF-UKS iter 419:  -237.97967793041286   -2.35235e-05   1.09103e-04 ADIIS/DIIS/DAMP=1%
   @DF-UKS iter 420:  -237.97965412224346    2.38082e-05   9.16479e-05 DIIS/DAMP=1%
   @DF-UKS iter 421:  -237.97964279752333    1.13247e-05   9.15485e-05 DIIS/DAMP=1%
   @DF-UKS iter 422:  -237.97955330827122    8.94893e-05   9.53703e-05 DIIS/DAMP=1%
   @DF-UKS iter 423:  -237.97964738922283   -9.40810e-05   9.09651e-05 DIIS/DAMP=1%
   @DF-UKS iter 424:  -237.97991417782612   -2.66789e-04   2.29125e-04 ADIIS/DIIS/DAMP=1%
   @DF-UKS iter 425:  -237.97998324533873   -6.90675e-05   2.71089e-04 ADIIS/DIIS/DAMP=1%
   @DF-UKS iter 426:  -237.97987275056585    1.10495e-04   1.66300e-04 ADIIS/DIIS/DAMP=1%
   @DF-UKS iter 427:  -237.97981386272380    5.88878e-05   1.61430e-04 ADIIS/DIIS/DAMP=1%
   @DF-UKS iter 428:  -237.97981535052605   -1.48780e-06   1.23785e-04 ADIIS/DIIS/DAMP=1%
   @DF-UKS iter 429:  -237.97982500621407   -9.65569e-06   1.23321e-04 ADIIS/DIIS/DAMP=1%
   @DF-UKS iter 430:  -237.97984246510339   -1.74589e-05   1.42212e-04 ADIIS/DIIS/DAMP=1%
   @DF-UKS iter 431:  -237.97983829439144    4.17071e-06   1.39050e-04 ADIIS/DIIS/DAMP=1%
   @DF-UKS iter 432:  -237.97989222652467   -5.39321e-05   1.65119e-04 ADIIS/DIIS/DAMP=1%
   @DF-UKS iter 433:  -237.97970831679854    1.83910e-04   7.86139e-05 DIIS/DAMP=1%
   @DF-UKS iter 434:  -237.97964444272932    6.38741e-05   8.47703e-05 DIIS/DAMP=1%
   @DF-UKS iter 435:  -237.98008038031404   -4.35938e-04   2.56026e-04 ADIIS/DIIS/DAMP=1%
   @DF-UKS iter 436:  -237.98017447591116   -9.40956e-05   2.58182e-04 ADIIS/DIIS/DAMP=1%
   @DF-UKS iter 437:  -237.98007861671960    9.58592e-05   2.29263e-04 ADIIS/DIIS/DAMP=1%
   @DF-UKS iter 438:  -237.97999849960155    8.01171e-05   1.82514e-04 ADIIS/DIIS/DAMP=1%
   @DF-UKS iter 439:  -237.97985061794586    1.47882e-04   9.76705e-05 DIIS/DAMP=1%
   @DF-UKS iter 440:  -237.97973490073855    1.15717e-04   8.65504e-05 DIIS/DAMP=1%
   @DF-UKS iter 441:  -237.97969797528327    3.69255e-05   1.12443e-04 ADIIS/DIIS/DAMP=1%
   @DF-UKS iter 442:  -237.97972077723097   -2.28019e-05   1.14296e-04 ADIIS/DIIS/DAMP=1%
   @DF-UKS iter 443:  -237.97969420064297    2.65766e-05   8.87776e-05 DIIS/DAMP=1%
   @DF-UKS iter 444:  -237.97965790739434    3.62932e-05   8.31010e-05 DIIS/DAMP=1%
   @DF-UKS iter 445:  -237.97966254839358   -4.64100e-06   8.41304e-05 DIIS/DAMP=1%
   @DF-UKS iter 446:  -237.97968133121734   -1.87828e-05   1.49341e-04 ADIIS/DIIS/DAMP=1%
   @DF-UKS iter 447:  -237.97671482319305    2.96651e-03   7.91559e-04 ADIIS/DIIS/DAMP=1%
   @DF-UKS iter 448:  -237.97716156727475   -4.46744e-04   6.01416e-04 ADIIS/DIIS/DAMP=1%
   @DF-UKS iter 449:  -237.97888114255511   -1.71958e-03   2.18631e-04 ADIIS/DIIS/DAMP=1%
   @DF-UKS iter 450:  -237.97922618363813   -3.45041e-04   1.72894e-04 ADIIS/DIIS/DAMP=1%
   @DF-UKS iter 451:  -237.97953017671014   -3.03993e-04   1.02177e-04 ADIIS/DIIS/DAMP=1%
   @DF-UKS iter 452:  -237.97958471843577   -5.45417e-05   9.79434e-05 DIIS/DAMP=1%
   @DF-UKS iter 453:  -237.97961883557073   -3.41171e-05   1.05312e-04 ADIIS/DIIS/DAMP=1%
   @DF-UKS iter 454:  -237.97976717838574   -1.48343e-04   1.13963e-04 ADIIS/DIIS/DAMP=1%
   @DF-UKS iter 455:  -237.97974994784175    1.72305e-05   1.18948e-04 ADIIS/DIIS/DAMP=1%
   @DF-UKS iter 456:  -237.97969605987757    5.38880e-05   1.14340e-04 ADIIS/DIIS/DAMP=1%
   @DF-UKS iter 457:  -237.97967197080470    2.40891e-05   1.15547e-04 ADIIS/DIIS/DAMP=1%
   @DF-UKS iter 458:  -237.97938985706412    2.82114e-04   1.64055e-04 ADIIS/DIIS/DAMP=1%
   @DF-UKS iter 459:  -237.97951185799900   -1.22001e-04   1.42977e-04 ADIIS/DIIS/DAMP=1%
   @DF-UKS iter 460:  -237.97954974871223   -3.78907e-05   1.23554e-04 ADIIS/DIIS/DAMP=1%
   @DF-UKS iter 461:  -237.97941271932535    1.37029e-04   1.60218e-04 ADIIS/DIIS/DAMP=1%
   @DF-UKS iter 462:  -237.97938397325871    2.87461e-05   1.58729e-04 ADIIS/DIIS/DAMP=1%
   @DF-UKS iter 463:  -237.97926820974871    1.15764e-04   1.98909e-04 ADIIS/DIIS/DAMP=1%
   @DF-UKS iter 464:  -237.97917233428245    9.58755e-05   2.24086e-04 ADIIS/DIIS/DAMP=1%
   @DF-UKS iter 465:  -237.97914911204640    2.32222e-05   2.39305e-04 ADIIS/DIIS/DAMP=1%
   @DF-UKS iter 466:  -237.97831403424453    8.35078e-04   4.81141e-04 ADIIS/DIIS/DAMP=1%
   @DF-UKS iter 467:  -237.97965481494535   -1.34078e-03   8.71965e-05 DIIS/DAMP=1%
   @DF-UKS iter 468:  -237.97975751580003   -1.02701e-04   9.23806e-05 DIIS/DAMP=1%
   @DF-UKS iter 469:  -237.97982603183607   -6.85160e-05   7.83637e-05 DIIS/DAMP=1%
   @DF-UKS iter 470:  -237.98014703803739   -3.21006e-04   3.63873e-04 ADIIS/DIIS/DAMP=1%
   @DF-UKS iter 471:  -237.97987411182649    2.72926e-04   1.33479e-04 ADIIS/DIIS/DAMP=1%
   @DF-UKS iter 472:  -237.98001302249870   -1.38911e-04   2.95399e-04 ADIIS/DIIS/DAMP=1%
   @DF-UKS iter 473:  -237.98006110815984   -4.80857e-05   2.38787e-04 ADIIS/DIIS/DAMP=1%
   @DF-UKS iter 474:  -237.97998352341165    7.75847e-05   2.15967e-04 ADIIS/DIIS/DAMP=1%
   @DF-UKS iter 475:  -237.97997894634369    4.57707e-06   2.35366e-04 ADIIS/DIIS/DAMP=1%
   @DF-UKS iter 476:  -237.97965757929586    3.21367e-04   1.58052e-04 ADIIS/DIIS/DAMP=1%
   @DF-UKS iter 477:  -237.97970728267052   -4.97034e-05   1.42832e-04 ADIIS/DIIS/DAMP=1%
   @DF-UKS iter 478:  -237.98017182810989   -4.64545e-04   6.35980e-04 ADIIS/DIIS/DAMP=1%
   @DF-UKS iter 479:  -237.98020170204734   -2.98739e-05   1.61228e-04 ADIIS/DIIS/DAMP=1%
   @DF-UKS iter 480:  -237.97993167056461    2.70031e-04   1.36596e-04 ADIIS/DIIS/DAMP=1%
   @DF-UKS iter 481:  -237.97990371629567    2.79543e-05   1.69178e-04 ADIIS/DIIS/DAMP=1%
   @DF-UKS iter 482:  -237.97992425863228   -2.05423e-05   1.58308e-04 ADIIS/DIIS/DAMP=1%
   @DF-UKS iter 483:  -237.98028836391222   -3.64105e-04   4.64228e-04 ADIIS/DIIS/DAMP=1%
   @DF-UKS iter 484:  -237.97939694659320    8.91417e-04   3.51104e-04 ADIIS/DIIS/DAMP=1%
   @DF-UKS iter 485:  -237.97956876019504   -1.71814e-04   2.08693e-04 ADIIS/DIIS/DAMP=1%
   @DF-UKS iter 486:  -237.97953561796373    3.31422e-05   2.48708e-04 ADIIS/DIIS/DAMP=1%
   @DF-UKS iter 487:  -237.97928610390588    2.49514e-04   2.87805e-04 ADIIS/DIIS/DAMP=1%
   @DF-UKS iter 488:  -237.97930884340718   -2.27395e-05   2.23940e-04 ADIIS/DIIS/DAMP=1%
   @DF-UKS iter 489:  -237.97936499131166   -5.61479e-05   1.66650e-04 ADIIS/DIIS/DAMP=1%
   @DF-UKS iter 490:  -237.97924926290273    1.15728e-04   2.28419e-04 ADIIS/DIIS/DAMP=1%
   @DF-UKS iter 491:  -237.97926382326708   -1.45604e-05   2.24163e-04 ADIIS/DIIS/DAMP=1%
   @DF-UKS iter 492:  -237.97956820591995   -3.04383e-04   1.19939e-04 ADIIS/DIIS/DAMP=1%
   @DF-UKS iter 493:  -237.97963644122521   -6.82353e-05   1.10495e-04 ADIIS/DIIS/DAMP=1%
   @DF-UKS iter 494:  -237.97973111932544   -9.46781e-05   7.99956e-05 DIIS/DAMP=1%
   @DF-UKS iter 495:  -237.97970918756914    2.19318e-05   9.56053e-05 DIIS/DAMP=1%
   @DF-UKS iter 496:  -237.97985776072170   -1.48573e-04   1.51958e-04 ADIIS/DIIS/DAMP=1%
   @DF-UKS iter 497:  -237.97965909442826    1.98666e-04   1.16827e-04 ADIIS/DIIS/DAMP=1%
   @DF-UKS iter 498:  -237.97963866460444    2.04298e-05   1.08988e-04 ADIIS/DIIS/DAMP=1%
   @DF-UKS iter 499:  -237.97958620291686    5.24617e-05   1.17579e-04 ADIIS/DIIS/DAMP=1%
   @DF-UKS iter 500:  -237.97965587618785   -6.96733e-05   1.03738e-04 ADIIS/DIIS/DAMP=1%

PsiException: Could not converge SCF iterations in 500 iterations.

  Failed to converge.

Traceback (most recent call last):
  File "/Users/joseantoniorodriguesromero/anaconda3/bin/psi4", line 387, in <module>
    exec(content)
  File "<string>", line 30, in <module>
  File "/Users/joseantoniorodriguesromero/anaconda3/lib/python3.10/site-packages/psi4/driver/driver.py", line 1245, in optimize
    G, wfn = gradient(lowername, return_wfn=True, molecule=molecule, **kwargs)
  File "/Users/joseantoniorodriguesromero/anaconda3/lib/python3.10/site-packages/psi4/driver/driver.py", line 638, in gradient
    wfn = procedures['gradient'][lowername](lowername, molecule=molecule, **kwargs)
  File "/Users/joseantoniorodriguesromero/anaconda3/lib/python3.10/site-packages/psi4/driver/procrouting/proc.py", line 96, in select_scf_gradient
    return func(name, **kwargs)
  File "/Users/joseantoniorodriguesromero/anaconda3/lib/python3.10/site-packages/psi4/driver/procrouting/proc.py", line 2688, in run_scf_gradient
    ref_wfn = run_scf(name, **kwargs)
  File "/Users/joseantoniorodriguesromero/anaconda3/lib/python3.10/site-packages/psi4/driver/procrouting/proc.py", line 2588, in run_scf
    scf_wfn = scf_helper(name, post_scf=False, **kwargs)
  File "/Users/joseantoniorodriguesromero/anaconda3/lib/python3.10/site-packages/psi4/driver/procrouting/proc.py", line 1887, in scf_helper
    e_scf = scf_wfn.compute_energy()
  File "/Users/joseantoniorodriguesromero/anaconda3/lib/python3.10/site-packages/psi4/driver/procrouting/scf_proc/scf_iterator.py", line 93, in scf_compute_energy
    raise e
  File "/Users/joseantoniorodriguesromero/anaconda3/lib/python3.10/site-packages/psi4/driver/procrouting/scf_proc/scf_iterator.py", line 86, in scf_compute_energy
    self.iterations()
  File "/Users/joseantoniorodriguesromero/anaconda3/lib/python3.10/site-packages/psi4/driver/procrouting/scf_proc/scf_iterator.py", line 548, in scf_iterate
    raise SCFConvergenceError("""SCF iterations""", self.iteration_, self, Ediff, Dnorm)

psi4.driver.p4util.exceptions.SCFConvergenceError: Could not converge SCF iterations in 500 iterations.


Printing out the relevant lines from the Psithon --> Python processed input file:
    core.set_global_option("REFERENCE", "uks")
    core.set_global_option("MAXITER", 500)
    core.set_global_option("GEOM_MAXITER", 500)
    core.set_global_option("DAMPING_PERCENTAGE", 1)
    core.set_global_option("GUESS", "SAP")
--> optimize('b3lyp')

!-------------------------------------------------------!
!                                                       !
!  Could not converge SCF iterations in 500 iterations. !
!                                                       !
!-------------------------------------------------------!

    Psi4 stopped on: Thursday, 17 July 2025 10:18AM
    Psi4 wall time for execution: 0:00:48.69

*** Psi4 encountered an error. Buy a developer more coffee!
*** Resources and help at github.com/psi4/psi4.
