
    -----------------------------------------------------------------------
          Psi4: An Open-Source Ab Initio Electronic Structure Package
                               Psi4 1.9.1 release

                         Git: Rev {} zzzzzzz 


    D. G. A. Smith, L. A. Burns, A. C. Simmonett, R. M. Parrish,
    M. C. Schieber, R. Galvelis, P. Kraus, H. Kruse, R. Di Remigio,
    A. Alenaizan, A. M. James, S. Lehtola, J. P. Misiewicz, M. Scheurer,
    R. A. Shaw, J. B. Schriber, Y. Xie, Z. L. Glick, D. A. Sirianni,
    J. S. O'Brien, J. M. Waldrop, A. Kumar, E. G. Hohenstein,
    B. P. Pritchard, B. R. Brooks, H. F. Schaefer III, A. Yu. Sokolov,
    K. Patkowski, A. E. DePrince III, U. Bozkaya, R. A. King,
    F. A. Evangelista, J. M. Turney, T. D. Crawford, C. D. Sherrill,
    J. Chem. Phys. 152(18) 184108 (2020). https://doi.org/10.1063/5.0006002

                            Additional Code Authors
    E. T. Seidl, C. L. Janssen, E. F. Valeev, M. L. Leininger,
    J. F. Gonthier, R. M. Richard, H. R. McAlexander, M. Saitow, X. Wang,
    P. Verma, M. H. Lechner, A. Jiang, S. Behnle, A. G. Heide,
    M. F. Herbst, and D. L. Poole

             Previous Authors, Complete List of Code Contributors,
                       and Citations for Specific Modules
    https://github.com/psi4/psi4/blob/master/codemeta.json
    https://github.com/psi4/psi4/graphs/contributors
    http://psicode.org/psi4manual/master/introduction.html#citing-psifour

    -----------------------------------------------------------------------


    Psi4 started on: Thursday, 17 July 2025 11:27AM

    Process ID: 73143
    Host:       Joses-MacBook-Pro-2.local
    PSIDATADIR: /Users/joseantoniorodriguesromero/anaconda3/share/psi4
    Memory:     500.0 MiB
    Threads:    1
    
  ==> Input File <==

--------------------------------------------------------------------------
molecule { 
-1 2
Mg   0.00000        0.60000        0.00000
S   0.00000       -0.60000        0.00000
}

set { 
basis              cc-pvdz
reference          uks
maxiter            500
geom_maxiter       500
DAMPING_PERCENTAGE 1
guess              SAP
}

optimize('b3lyp')
--------------------------------------------------------------------------

Scratch directory: /tmp/
gradient() will perform analytic gradient computation.
   => Libint2 <=

    Primary   basis highest AM E, G, H:  6, 6, 3
    Auxiliary basis highest AM E, G, H:  7, 7, 4
    Onebody   basis highest AM E, G, H:  -, -, -
    Solid Harmonics ordering:            Gaussian

*** tstart() called on Joses-MacBook-Pro-2.local
*** at Thu Jul 17 11:27:42 2025

   => Loading Basis Set <=

    Name: CC-PVDZ
    Role: ORBITAL
    Keyword: BASIS
    atoms 1 entry MG         line   353 file /Users/joseantoniorodriguesromero/anaconda3/share/psi4/basis/cc-pvdz.gbs 
    atoms 2 entry S          line   598 file /Users/joseantoniorodriguesromero/anaconda3/share/psi4/basis/cc-pvdz.gbs 


         ---------------------------------------------------------
                                   SCF
               by Justin Turney, Rob Parrish, Andy Simmonett
                          and Daniel G. A. Smith
                              UKS Reference
                        1 Threads,    500 MiB Core
         ---------------------------------------------------------

  ==> Geometry <==

    Molecular point group: c2v
    Full point group: C_inf_v

    Geometry (in Angstrom), charge = -1, multiplicity = 2:

       Center              X                  Y                   Z               Mass       
    ------------   -----------------  -----------------  -----------------  -----------------
         MG           0.000000000000     0.000000000000     0.685640903194    23.985041697000
         S            0.000000000000     0.000000000000    -0.514359096806    31.972071174400

  Running in c2v symmetry.

  Rotational constants: A = ************  B =      0.85424  C =      0.85424 [cm^-1]
  Rotational constants: A = ************  B =  25609.36188  C =  25609.36188 [MHz]
  Nuclear repulsion =   84.668353707199998

  Charge       = -1
  Multiplicity = 2
  Electrons    = 29
  Nalpha       = 15
  Nbeta        = 14

  ==> Algorithm <==

  SCF Algorithm Type is DF.
  DIIS enabled.
  MOM disabled.
  Fractional occupation disabled.
  Guess Type is SAP.
  Energy threshold   = 1.00e-08
  Density threshold  = 1.00e-08
  Integral threshold = 1.00e-12

  ==> Primary Basis <==

  Basis Set: CC-PVDZ
    Blend: CC-PVDZ
    Number of shells: 16
    Number of basis functions: 36
    Number of Cartesian functions: 38
    Spherical Harmonics?: true
    Max angular momentum: 2

  ==> DFT Potential <==

   => LibXC <=

    Version 6.2.2
    S. Lehtola, C. Steigemann, M. J.T. Oliveira, and M. A.L. Marques.,  SoftwareX 7, 1–5 (2018) (10.1016/j.softx.2017.11.002)

   => Composite Functional: B3LYP <= 

    B3LYP Hyb-GGA Exchange-Correlation Functional

    P. J. Stephens, F. J. Devlin, C. F. Chabalowski, and M. J. Frisch.,  J. Phys. Chem. 98, 11623 (1994) (10.1021/j100096a001)

    Deriv               =              1
    GGA                 =           TRUE
    Meta                =          FALSE

    Exchange Hybrid     =           TRUE
    MP2 Hybrid          =          FALSE

   => Exchange Functionals <=

    0.0800   Slater exchange
    0.7200         Becke 88

   => Exact (HF) Exchange <=

    0.2000               HF 

   => Correlation Functionals <=

    0.1900   Vosko, Wilk & Nusair (VWN5_RPA)
    0.8100   Lee, Yang & Parr

   => LibXC Density Thresholds  <==

    XC_HYB_GGA_XC_B3LYP:  1.00E-15 

   => Molecular Quadrature <=

    Radial Scheme          =       TREUTLER
    Pruning Scheme         =           NONE
    Nuclear Scheme         =       TREUTLER

    Blocking Scheme        =         OCTREE
    BS radius alpha        =              1
    Pruning alpha          =              1
    Radial Points          =             75
    Spherical Points       =            302
    Total Points           =          42910
    Total Blocks           =            415
    Max Points             =            255
    Max Functions          =             36
    Weights Tolerance      =       1.00E-15

   => Loading Basis Set <=

    Name: (CC-PVDZ AUX)
    Role: JKFIT
    Keyword: DF_BASIS_SCF
    atoms 1 entry MG         line   576 file /Users/joseantoniorodriguesromero/anaconda3/share/psi4/basis/def2-universal-jkfit.gbs 
    atoms 2 entry S          line   593 file /Users/joseantoniorodriguesromero/anaconda3/share/psi4/basis/cc-pvdz-jkfit.gbs 

  ==> Integral Setup <==

  DFHelper Memory: AOs need 0.003 GiB; user supplied 0.323 GiB. 
  Using in-core AOs.

  ==> MemDFJK: Density-Fitted J/K Matrices <==

    J tasked:                   Yes
    K tasked:                   Yes
    wK tasked:                   No
    OpenMP threads:               1
    Memory [MiB]:               330
    Algorithm:                 Core
    Schwarz Cutoff:           1E-12
    Mask sparsity (%):       0.0000
    Fitting Condition:        1E-10

   => Auxiliary Basis Set <=

  Basis Set: (CC-PVDZ AUX)
    Blend: CC-PVDZ-JKFIT + DEF2-UNIVERSAL-JKFIT
    Number of shells: 70
    Number of basis functions: 224
    Number of Cartesian functions: 267
    Spherical Harmonics?: true
    Max angular momentum: 4

  Cached 100.0% of DFT collocation blocks in 0.043 [GiB].

  Minimum eigenvalue in the overlap matrix is 7.8387939082E-04.
  Reciprocal condition number of the overlap matrix is 2.4555321125E-04.
    Using symmetric orthogonalization.

  ==> Pre-Iterations <==

  SCF Guess: Superposition of Atomic Potentials (doi:10.1021/acs.jctc.8b01089).

  ==> SAP guess <==

   => Molecular Quadrature <=

    Radial Scheme          =       TREUTLER
    Pruning Scheme         =           NONE
    Nuclear Scheme         =       TREUTLER

    Blocking Scheme        =         OCTREE
    BS radius alpha        =              1
    Pruning alpha          =              1
    Radial Points          =             75
    Spherical Points       =            302
    Total Points           =          42910
    Total Blocks           =            415
    Max Points             =            255
    Max Functions          =             36
    Weights Tolerance      =       1.00E-15

   -------------------------------------------------------
    Irrep   Nso     Nmo     Nalpha   Nbeta   Ndocc  Nsocc
   -------------------------------------------------------
     A1        18      18       9       8       8       1
     A2         2       2       0       0       0       0
     B1         8       8       3       3       3       0
     B2         8       8       3       3       3       0
   -------------------------------------------------------
    Total      36      36      15      14      14       1
   -------------------------------------------------------

  ==> Iterations <==

                           Total Energy        Delta E     RMS |[F,P]|

   @DF-UKS iter   1:  -596.86076791064795   -5.96861e+02   3.20698e-02 DIIS/ADIIS
   @DF-UKS iter   2:  -595.12418745243963    1.73658e+00   6.55533e-02 DIIS/ADIIS/DAMP=1%
   @DF-UKS iter   3:  -597.07376946279101   -1.94958e+00   1.02507e-02 DIIS/ADIIS/DAMP=1%
   @DF-UKS iter   4:  -597.24108920282265   -1.67320e-01   3.69083e-03 DIIS/ADIIS/DAMP=1%
   @DF-UKS iter   5:  -597.25861903516864   -1.75298e-02   1.40589e-03 DIIS/ADIIS/DAMP=1%
   @DF-UKS iter   6:  -597.25800600934883    6.13026e-04   1.47037e-04 DIIS/ADIIS/DAMP=1%
   @DF-UKS iter   7:  -597.26131041595397   -3.30441e-03   3.15363e-05 DIIS/DAMP=1%
   @DF-UKS iter   8:  -597.26115863293535    1.51783e-04   9.74776e-06 DIIS/DAMP=1%
   @DF-UKS iter   9:  -597.26113912644610    1.95065e-05   1.38573e-06 DIIS/DAMP=1%
   @DF-UKS iter  10:  -597.26112025958878    1.88669e-05   1.67496e-07 DIIS/DAMP=1%
   @DF-UKS iter  11:  -597.26112315559828   -2.89601e-06   3.84243e-08 DIIS/DAMP=1%
   @DF-UKS iter  12:  -597.26112304984008    1.05758e-07   4.34653e-09 DIIS/DAMP=1%
   @DF-UKS iter  13:  -597.26112302661704    2.32230e-08   2.31640e-09 DIIS/DAMP=1%
   @DF-UKS iter  14:  -597.26112302999570   -3.37866e-09   1.34080e-10 DIIS/DAMP=1%
  Energy and wave function converged.


  ==> Post-Iterations <==

   Electrons on quadrature grid:
      Nalpha   =   14.9999958465 ; deviation = -4.153e-06
      Nbeta    =   13.9999958184 ; deviation = -4.182e-06
      Ntotal   =   28.9999916650 ; deviation = -8.335e-06 

   @Spin Contamination Metric:   2.749339149E-03
   @S^2 Expected:                7.500000000E-01
   @S^2 Observed:                7.527493391E-01
   @S   Expected:                5.000000000E-01
   @S   Observed:                5.000000000E-01

    Orbital Energies [Eh]
    ---------------------

    Alpha Occupied:                                                       

       1A1   -88.675488     2A1   -46.739190     3A1    -7.787877  
       4A1    -5.767715     1B2    -5.726791     1B1    -5.726791  
       5A1    -3.122083     6A1    -1.901433     2B2    -1.807097  
       2B1    -1.807097     7A1    -0.439230     3B1    -0.111346  
       3B2    -0.111346     8A1    -0.031618     9A1     0.078468  

    Alpha Virtual:                                                        

       4B1     0.169658     4B2     0.169658    10A1     0.194443  
      11A1     0.284702     5B2     0.331618     5B1     0.331618  
       1A2     0.447653    12A1     0.447653    13A1     0.524159  
       6B1     0.543183     6B2     0.543183    14A1     0.760656  
       7B2     0.788112     7B1     0.788112    15A1     0.908735  
       2A2     0.916023    16A1     0.916028     8B2     1.065336  
       8B1     1.065336    17A1     1.242540    18A1     2.128591  

    Beta Occupied:                                                        

       1A1   -88.672859     2A1   -46.736232     3A1    -7.784886  
       4A1    -5.760475     1B2    -5.724910     1B1    -5.724910  
       5A1    -3.117394     6A1    -1.892244     2B2    -1.805110  
       2B1    -1.805110     7A1    -0.423450     3B1    -0.104109  
       3B2    -0.104109     8A1    -0.005664  

    Beta Virtual:                                                         

       9A1     0.140416     4B1     0.177904     4B2     0.177904  
      10A1     0.199920    11A1     0.297520     5B2     0.335205  
       5B1     0.335205     1A2     0.448983    12A1     0.448984  
      13A1     0.538316     6B1     0.557369     6B2     0.557369  
      14A1     0.778579     7B2     0.794095     7B1     0.794095  
       2A2     0.919781    15A1     0.919786    16A1     0.920570  
       8B2     1.078890     8B1     1.078890    17A1     1.258690  
      18A1     2.132145  

    Final Occupation by Irrep:
             A1    A2    B1    B2 
    DOCC [     8,    0,    3,    3 ]
    SOCC [     1,    0,    0,    0 ]
    NA   [     9,    0,    3,    3 ]
    NB   [     8,    0,    3,    3 ]

  @DF-UKS Final Energy:  -597.26112302999570

   => Energetics <=

    Nuclear Repulsion Energy =             84.6683537071999979
    One-Electron Energy =                -999.9646776826564292
    Two-Electron Energy =                 352.5232497905528248
    DFT Exchange-Correlation Energy =     -34.4880488450921519
    Empirical Dispersion Energy =           0.0000000000000000
    VV10 Nonlocal Energy =                  0.0000000000000000
    Total Energy =                       -597.2611230299958152

  UHF NO Occupations:
  HONO-2 :    7 A1 1.9999190
  HONO-1 :    8 A1 1.9988242
  HONO-0 :    9 A1 1.0000000
  LUNO+0 :   10 A1 0.0011758
  LUNO+1 :   11 A1 0.0000810
  LUNO+2 :    4 B2 0.0000590
  LUNO+3 :    4 B1 0.0000590


Computation Completed


Properties will be evaluated at   0.000000,   0.000000,   0.000000 [a0]

Properties computed using the SCF density matrix


 Multipole Moments:

 ------------------------------------------------------------------------------------
     Multipole            Electronic (a.u.)      Nuclear  (a.u.)        Total (a.u.)
 ------------------------------------------------------------------------------------

 L = 1.  Multiply by 2.5417464519 to convert [e a0] to [Debye]
 Dipole X            :          0.0000000            0.0000000            0.0000000
 Dipole Y            :          0.0000000            0.0000000            0.0000000
 Dipole Z            :         -1.1553916           -0.0038828           -1.1592744
 Magnitude           :                                                    1.1592744

 ------------------------------------------------------------------------------------

*** tstop() called on Joses-MacBook-Pro-2.local at Thu Jul 17 11:27:45 2025
Module time:
	user time   =      20.04 seconds =       0.33 minutes
	system time =       1.54 seconds =       0.03 minutes
	total time  =          3 seconds =       0.05 minutes
Total time:
	user time   =      20.04 seconds =       0.33 minutes
	system time =       1.54 seconds =       0.03 minutes
	total time  =          3 seconds =       0.05 minutes

*** tstart() called on Joses-MacBook-Pro-2.local
*** at Thu Jul 17 11:27:45 2025


         ------------------------------------------------------------
                                   SCF GRAD                          
                          Rob Parrish, Justin Turney,                
                       Andy Simmonett, and Alex Sokolov              
         ------------------------------------------------------------

  ==> Geometry <==

    Molecular point group: c2v
    Full point group: C_inf_v

    Geometry (in Angstrom), charge = -1, multiplicity = 2:

       Center              X                  Y                   Z               Mass       
    ------------   -----------------  -----------------  -----------------  -----------------
         MG           0.000000000000     0.000000000000     0.685640903194    23.985041697000
         S            0.000000000000     0.000000000000    -0.514359096806    31.972071174400

  Nuclear repulsion =   84.668353707199998

  ==> Basis Set <==

  Basis Set: CC-PVDZ
    Blend: CC-PVDZ
    Number of shells: 16
    Number of basis functions: 36
    Number of Cartesian functions: 38
    Spherical Harmonics?: true
    Max angular momentum: 2

  ==> DFJKGrad: Density-Fitted SCF Gradients <==

    Gradient:                    1
    J tasked:                  Yes
    K tasked:                  Yes
    wK tasked:                  No
    OpenMP threads:              1
    Integrals threads:           1
    Memory [MiB]:              375
    Schwarz Cutoff:          1E-12
    Fitting Condition:       1E-10

   => Auxiliary Basis Set <=

  Basis Set: (CC-PVDZ AUX)
    Blend: CC-PVDZ-JKFIT + DEF2-UNIVERSAL-JKFIT
    Number of shells: 70
    Number of basis functions: 224
    Number of Cartesian functions: 267
    Spherical Harmonics?: true
    Max angular momentum: 4

  ==> DFT Potential <==

   => LibXC <=

    Version 6.2.2
    S. Lehtola, C. Steigemann, M. J.T. Oliveira, and M. A.L. Marques.,  SoftwareX 7, 1–5 (2018) (10.1016/j.softx.2017.11.002)

   => Composite Functional: B3LYP <= 

    B3LYP Hyb-GGA Exchange-Correlation Functional

    P. J. Stephens, F. J. Devlin, C. F. Chabalowski, and M. J. Frisch.,  J. Phys. Chem. 98, 11623 (1994) (10.1021/j100096a001)

    Deriv               =              1
    GGA                 =           TRUE
    Meta                =          FALSE

    Exchange Hybrid     =           TRUE
    MP2 Hybrid          =          FALSE

   => Exchange Functionals <=

    0.0800   Slater exchange
    0.7200         Becke 88

   => Exact (HF) Exchange <=

    0.2000               HF 

   => Correlation Functionals <=

    0.1900   Vosko, Wilk & Nusair (VWN5_RPA)
    0.8100   Lee, Yang & Parr

   => LibXC Density Thresholds  <==

    XC_HYB_GGA_XC_B3LYP:  1.00E-15 

   => Molecular Quadrature <=

    Radial Scheme          =       TREUTLER
    Pruning Scheme         =           NONE
    Nuclear Scheme         =       TREUTLER

    Blocking Scheme        =         OCTREE
    BS radius alpha        =              1
    Pruning alpha          =              1
    Radial Points          =             75
    Spherical Points       =            302
    Total Points           =          42910
    Total Blocks           =            415
    Max Points             =            255
    Max Functions          =             36
    Weights Tolerance      =       1.00E-15


  -Total Gradient:
     Atom            X                  Y                   Z
    ------   -----------------  -----------------  -----------------
       1       -0.000000000000     0.000000000000    -2.040129886018
       2        0.000000000000     0.000000000000     2.040276113978


*** tstop() called on Joses-MacBook-Pro-2.local at Thu Jul 17 11:27:45 2025
Module time:
	user time   =       2.32 seconds =       0.04 minutes
	system time =       1.83 seconds =       0.03 minutes
	total time  =          0 seconds =       0.00 minutes
Total time:
	user time   =      22.36 seconds =       0.37 minutes
	system time =       3.38 seconds =       0.06 minutes
	total time  =          3 seconds =       0.05 minutes

    			-----------------------------------------

    			 OPTKING 3.0: for geometry optimizations 

    			     By R.A. King, Bethel University     

    			        with contributions from          

    			    A.V. Copan, J. Cayton, A. Heide      

    			-----------------------------------------

    
	                            ===> Fragment 1 <== 

	 Z (Atomic Numbers)          Masses                          Geom                  
	      12.000000            23.985042          0.00000000  0.00000000  1.29567353   
	      16.000000            31.972071          0.00000000  0.00000000 -0.97199782   

	 - Coordinate -           - BOHR/RAD -       - ANG/DEG -
	 R(1,2)           =         2.267671           1.200000


	        --- Internal Coordinate Step in ANG or DEG, aJ/ANG or AJ/DEG ---
	-------------------------------------------------------------------------------
	           Coordinate      Previous         Force          Change          New 
	           ----------      --------        ------          ------        ------
	               R(1,2)       1.20000       16.80867        0.00496       1.20496
	-------------------------------------------------------------------------------

	                                 ==> Convergence Check <==                                  
    
	Measures of convergence in internal coordinates in au.
    
	Criteria marked as inactive (o), active & met (*), and active & unmet ( ).

	----------------------------------------------------------------------------------------------
	   Step    Total Energy     Delta E     Max Force     RMS Force      Max Disp      RMS Disp   
	----------------------------------------------------------------------------------------------
	  Convergence Criteria     1.00e-06 *    3.00e-04 *             o    1.20e-03 *             o
	----------------------------------------------------------------------------------------------
	     1    -597.26112303   -5.97e+02      2.04e+00      2.04e+00 o    9.37e-03      9.37e-03 o  ~
	----------------------------------------------------------------------------------------------

Next Geometry in Ang 
	Fragment 1 (Ang)

	   Mg   0.0000000000   0.0000000000   0.6881189220
	    S   0.0000000000   0.0000000000  -0.5168371156


    Structure for next step:
    Molecular point group: c2v
    Full point group: C_inf_v

    Geometry (in Angstrom), charge = -1, multiplicity = 2:

    MG           0.000000000000     0.000000000000     0.688472621608
    S            0.000000000000     0.000000000000    -0.516483415992


Scratch directory: /tmp/
gradient() will perform analytic gradient computation.
   => Libint2 <=

    Primary   basis highest AM E, G, H:  6, 6, 3
    Auxiliary basis highest AM E, G, H:  7, 7, 4
    Onebody   basis highest AM E, G, H:  -, -, -
    Solid Harmonics ordering:            Gaussian

*** tstart() called on Joses-MacBook-Pro-2.local
*** at Thu Jul 17 11:27:45 2025

   => Loading Basis Set <=

    Name: CC-PVDZ
    Role: ORBITAL
    Keyword: BASIS
    atoms 1 entry MG         line   353 file /Users/joseantoniorodriguesromero/anaconda3/share/psi4/basis/cc-pvdz.gbs 
    atoms 2 entry S          line   598 file /Users/joseantoniorodriguesromero/anaconda3/share/psi4/basis/cc-pvdz.gbs 


         ---------------------------------------------------------
                                   SCF
               by Justin Turney, Rob Parrish, Andy Simmonett
                          and Daniel G. A. Smith
                              UKS Reference
                        1 Threads,    500 MiB Core
         ---------------------------------------------------------

  ==> Geometry <==

    Molecular point group: c2v
    Full point group: C_inf_v

    Geometry (in Angstrom), charge = -1, multiplicity = 2:

       Center              X                  Y                   Z               Mass       
    ------------   -----------------  -----------------  -----------------  -----------------
         MG           0.000000000000     0.000000000000     0.688472621608    23.985041697000
         S            0.000000000000     0.000000000000    -0.516483415992    31.972071174400

  Running in c2v symmetry.

  Rotational constants: A = ************  B =      0.84722  C =      0.84722 [cm^-1]
  Rotational constants: A = ************  B =  25399.13024  C =  25399.13024 [MHz]
  Nuclear repulsion =   84.320109014909022

  Charge       = -1
  Multiplicity = 2
  Electrons    = 29
  Nalpha       = 15
  Nbeta        = 14

  ==> Algorithm <==

  SCF Algorithm Type is DF.
  DIIS enabled.
  MOM disabled.
  Fractional occupation disabled.
  Guess Type is READ.
  Energy threshold   = 1.00e-08
  Density threshold  = 1.00e-08
  Integral threshold = 1.00e-12

  ==> Primary Basis <==

  Basis Set: CC-PVDZ
    Blend: CC-PVDZ
    Number of shells: 16
    Number of basis functions: 36
    Number of Cartesian functions: 38
    Spherical Harmonics?: true
    Max angular momentum: 2

  ==> DFT Potential <==

   => LibXC <=

    Version 6.2.2
    S. Lehtola, C. Steigemann, M. J.T. Oliveira, and M. A.L. Marques.,  SoftwareX 7, 1–5 (2018) (10.1016/j.softx.2017.11.002)

   => Composite Functional: B3LYP <= 

    B3LYP Hyb-GGA Exchange-Correlation Functional

    P. J. Stephens, F. J. Devlin, C. F. Chabalowski, and M. J. Frisch.,  J. Phys. Chem. 98, 11623 (1994) (10.1021/j100096a001)

    Deriv               =              1
    GGA                 =           TRUE
    Meta                =          FALSE

    Exchange Hybrid     =           TRUE
    MP2 Hybrid          =          FALSE

   => Exchange Functionals <=

    0.0800   Slater exchange
    0.7200         Becke 88

   => Exact (HF) Exchange <=

    0.2000               HF 

   => Correlation Functionals <=

    0.1900   Vosko, Wilk & Nusair (VWN5_RPA)
    0.8100   Lee, Yang & Parr

   => LibXC Density Thresholds  <==

    XC_HYB_GGA_XC_B3LYP:  1.00E-15 

   => Molecular Quadrature <=

    Radial Scheme          =       TREUTLER
    Pruning Scheme         =           NONE
    Nuclear Scheme         =       TREUTLER

    Blocking Scheme        =         OCTREE
    BS radius alpha        =              1
    Pruning alpha          =              1
    Radial Points          =             75
    Spherical Points       =            302
    Total Points           =          42910
    Total Blocks           =            416
    Max Points             =            255
    Max Functions          =             36
    Weights Tolerance      =       1.00E-15

   => Loading Basis Set <=

    Name: (CC-PVDZ AUX)
    Role: JKFIT
    Keyword: DF_BASIS_SCF
    atoms 1 entry MG         line   576 file /Users/joseantoniorodriguesromero/anaconda3/share/psi4/basis/def2-universal-jkfit.gbs 
    atoms 2 entry S          line   593 file /Users/joseantoniorodriguesromero/anaconda3/share/psi4/basis/cc-pvdz-jkfit.gbs 

   => Loading Basis Set <=

    Name: CC-PVDZ
    Role: ORBITAL
    Keyword: BASIS
    atoms 1 entry MG         line   353 file /Users/joseantoniorodriguesromero/anaconda3/share/psi4/basis/cc-pvdz.gbs 
    atoms 2 entry S          line   598 file /Users/joseantoniorodriguesromero/anaconda3/share/psi4/basis/cc-pvdz.gbs 

  Reading orbitals from file /tmp/doublet_MgS.default.73143.180.npy, no projection.

  ==> Integral Setup <==

  DFHelper Memory: AOs need 0.003 GiB; user supplied 0.323 GiB. 
  Using in-core AOs.

  ==> MemDFJK: Density-Fitted J/K Matrices <==

    J tasked:                   Yes
    K tasked:                   Yes
    wK tasked:                   No
    OpenMP threads:               1
    Memory [MiB]:               330
    Algorithm:                 Core
    Schwarz Cutoff:           1E-12
    Mask sparsity (%):       0.0000
    Fitting Condition:        1E-10

   => Auxiliary Basis Set <=

  Basis Set: (CC-PVDZ AUX)
    Blend: CC-PVDZ-JKFIT + DEF2-UNIVERSAL-JKFIT
    Number of shells: 70
    Number of basis functions: 224
    Number of Cartesian functions: 267
    Spherical Harmonics?: true
    Max angular momentum: 4

  Cached 100.0% of DFT collocation blocks in 0.043 [GiB].

  Minimum eigenvalue in the overlap matrix is 7.8162703237E-04.
  Reciprocal condition number of the overlap matrix is 2.4484943494E-04.
    Using symmetric orthogonalization.

  ==> Pre-Iterations <==

  SCF Guess: Orbitals guess was supplied from a previous computation.

   -------------------------------------------------------
    Irrep   Nso     Nmo     Nalpha   Nbeta   Ndocc  Nsocc
   -------------------------------------------------------
     A1        18      18       9       8       8       1
     A2         2       2       0       0       0       0
     B1         8       8       3       3       3       0
     B2         8       8       3       3       3       0
   -------------------------------------------------------
    Total      36      36      15      14      14       1
   -------------------------------------------------------

  ==> Iterations <==

                           Total Energy        Delta E     RMS |[F,P]|

   @DF-UKS iter   0:  -597.27628149767224   -5.97276e+02   1.36375e-03 
   @DF-UKS iter   1:  -597.28006445539904   -3.78296e-03   2.25796e-04 DIIS/ADIIS
   @DF-UKS iter   2:  -597.28004210829829    2.23471e-05   3.49857e-04 DIIS/ADIIS/DAMP=1%
   @DF-UKS iter   3:  -597.28069589980373   -6.53792e-04   2.22290e-05 DIIS/DAMP=1%
   @DF-UKS iter   4:  -597.28010706772307    5.88832e-04   8.85504e-06 DIIS/DAMP=1%
   @DF-UKS iter   5:  -597.28009383789276    1.32298e-05   1.38517e-06 DIIS/DAMP=1%
   @DF-UKS iter   6:  -597.28008571180908    8.12608e-06   3.19671e-07 DIIS/DAMP=1%
   @DF-UKS iter   7:  -597.28008428147859    1.43033e-06   7.47740e-08 DIIS/DAMP=1%
   @DF-UKS iter   8:  -597.28008484738257   -5.65904e-07   7.20120e-09 DIIS/DAMP=1%
   @DF-UKS iter   9:  -597.28008474574926    1.01633e-07   7.58733e-10 DIIS/DAMP=1%
   @DF-UKS iter  10:  -597.28008473740374    8.34552e-09   9.22687e-11 DIIS/DAMP=1%
  Energy and wave function converged.


  ==> Post-Iterations <==

   Electrons on quadrature grid:
      Nalpha   =   14.9999959918 ; deviation = -4.008e-06
      Nbeta    =   13.9999959583 ; deviation = -4.042e-06
      Ntotal   =   28.9999919501 ; deviation = -8.050e-06 

   @Spin Contamination Metric:   2.737243367E-03
   @S^2 Expected:                7.500000000E-01
   @S^2 Observed:                7.527372434E-01
   @S   Expected:                5.000000000E-01
   @S   Observed:                5.000000000E-01

    Orbital Energies [Eh]
    ---------------------

    Alpha Occupied:                                                       

       1A1   -88.672511     2A1   -46.734571     3A1    -7.784443  
       4A1    -5.764028     1B2    -5.723746     1B1    -5.723746  
       5A1    -3.116296     6A1    -1.896390     2B2    -1.802581  
       2B1    -1.802581     7A1    -0.438969     3B1    -0.110160  
       3B2    -0.110160     8A1    -0.031891     9A1     0.077773  

    Alpha Virtual:                                                        

       4B1     0.169645     4B2     0.169645    10A1     0.194537  
      11A1     0.284574     5B1     0.331794     5B2     0.331794  
       1A2     0.448524    12A1     0.448525    13A1     0.523065  
       6B1     0.543289     6B2     0.543289    14A1     0.760058  
       7B1     0.787978     7B2     0.787978    15A1     0.907109  
       2A2     0.916126    16A1     0.916130     8B1     1.066622  
       8B2     1.066622    17A1     1.240281    18A1     2.132777  

    Beta Occupied:                                                        

       1A1   -88.669878     2A1   -46.731622     3A1    -7.781452  
       4A1    -5.756762     1B2    -5.721866     1B1    -5.721866  
       5A1    -3.111646     6A1    -1.887127     2B2    -1.800608  
       2B1    -1.800608     7A1    -0.423214     3B1    -0.102995  
       3B2    -0.102995     8A1    -0.005906  

    Beta Virtual:                                                         

       9A1     0.139774     4B1     0.177941     4B2     0.177941  
      10A1     0.199981    11A1     0.297469     5B1     0.335421  
       5B2     0.335421     1A2     0.449874    12A1     0.449875  
      13A1     0.537262     6B1     0.557536     6B2     0.557536  
      14A1     0.777904     7B1     0.793941     7B2     0.793941  
      15A1     0.918991     2A2     0.919886    16A1     0.919892  
       8B1     1.080201     8B2     1.080201    17A1     1.256307  
      18A1     2.136369  

    Final Occupation by Irrep:
             A1    A2    B1    B2 
    DOCC [     8,    0,    3,    3 ]
    SOCC [     1,    0,    0,    0 ]
    NA   [     9,    0,    3,    3 ]
    NB   [     8,    0,    3,    3 ]

  @DF-UKS Final Energy:  -597.28008473740374

   => Energetics <=

    Nuclear Repulsion Energy =             84.3201090149090220
    One-Electron Energy =                -999.3926410644839962
    Two-Electron Energy =                 352.2786063483067664
    DFT Exchange-Correlation Energy =     -34.4861590361354757
    Empirical Dispersion Energy =           0.0000000000000000
    VV10 Nonlocal Energy =                  0.0000000000000000
    Total Energy =                       -597.2800847374037403

  UHF NO Occupations:
  HONO-2 :    7 A1 1.9999188
  HONO-1 :    8 A1 1.9988283
  HONO-0 :    9 A1 1.0000000
  LUNO+0 :   10 A1 0.0011717
  LUNO+1 :   11 A1 0.0000812
  LUNO+2 :    4 B1 0.0000579
  LUNO+3 :    4 B2 0.0000579


Computation Completed


Properties will be evaluated at   0.000000,   0.000000,   0.000000 [a0]

Properties computed using the SCF density matrix


 Multipole Moments:

 ------------------------------------------------------------------------------------
     Multipole            Electronic (a.u.)      Nuclear  (a.u.)        Total (a.u.)
 ------------------------------------------------------------------------------------

 L = 1.  Multiply by 2.5417464519 to convert [e a0] to [Debye]
 Dipole X            :          0.0000000            0.0000000            0.0000000
 Dipole Y            :          0.0000000            0.0000000            0.0000000
 Dipole Z            :         -1.1455587           -0.0038989           -1.1494576
 Magnitude           :                                                    1.1494576

 ------------------------------------------------------------------------------------

*** tstop() called on Joses-MacBook-Pro-2.local at Thu Jul 17 11:27:46 2025
Module time:
	user time   =       7.48 seconds =       0.12 minutes
	system time =       2.53 seconds =       0.04 minutes
	total time  =          1 seconds =       0.02 minutes
Total time:
	user time   =      30.04 seconds =       0.50 minutes
	system time =       5.94 seconds =       0.10 minutes
	total time  =          4 seconds =       0.07 minutes

*** tstart() called on Joses-MacBook-Pro-2.local
*** at Thu Jul 17 11:27:46 2025


         ------------------------------------------------------------
                                   SCF GRAD                          
                          Rob Parrish, Justin Turney,                
                       Andy Simmonett, and Alex Sokolov              
         ------------------------------------------------------------

  ==> Geometry <==

    Molecular point group: c2v
    Full point group: C_inf_v

    Geometry (in Angstrom), charge = -1, multiplicity = 2:

       Center              X                  Y                   Z               Mass       
    ------------   -----------------  -----------------  -----------------  -----------------
         MG           0.000000000000     0.000000000000     0.688472621608    23.985041697000
         S            0.000000000000     0.000000000000    -0.516483415992    31.972071174400

  Nuclear repulsion =   84.320109014909022

  ==> Basis Set <==

  Basis Set: CC-PVDZ
    Blend: CC-PVDZ
    Number of shells: 16
    Number of basis functions: 36
    Number of Cartesian functions: 38
    Spherical Harmonics?: true
    Max angular momentum: 2

  ==> DFJKGrad: Density-Fitted SCF Gradients <==

    Gradient:                    1
    J tasked:                  Yes
    K tasked:                  Yes
    wK tasked:                  No
    OpenMP threads:              1
    Integrals threads:           1
    Memory [MiB]:              375
    Schwarz Cutoff:          1E-12
    Fitting Condition:       1E-10

   => Auxiliary Basis Set <=

  Basis Set: (CC-PVDZ AUX)
    Blend: CC-PVDZ-JKFIT + DEF2-UNIVERSAL-JKFIT
    Number of shells: 70
    Number of basis functions: 224
    Number of Cartesian functions: 267
    Spherical Harmonics?: true
    Max angular momentum: 4

  ==> DFT Potential <==

   => LibXC <=

    Version 6.2.2
    S. Lehtola, C. Steigemann, M. J.T. Oliveira, and M. A.L. Marques.,  SoftwareX 7, 1–5 (2018) (10.1016/j.softx.2017.11.002)

   => Composite Functional: B3LYP <= 

    B3LYP Hyb-GGA Exchange-Correlation Functional

    P. J. Stephens, F. J. Devlin, C. F. Chabalowski, and M. J. Frisch.,  J. Phys. Chem. 98, 11623 (1994) (10.1021/j100096a001)

    Deriv               =              1
    GGA                 =           TRUE
    Meta                =          FALSE

    Exchange Hybrid     =           TRUE
    MP2 Hybrid          =          FALSE

   => Exchange Functionals <=

    0.0800   Slater exchange
    0.7200         Becke 88

   => Exact (HF) Exchange <=

    0.2000               HF 

   => Correlation Functionals <=

    0.1900   Vosko, Wilk & Nusair (VWN5_RPA)
    0.8100   Lee, Yang & Parr

   => LibXC Density Thresholds  <==

    XC_HYB_GGA_XC_B3LYP:  1.00E-15 

   => Molecular Quadrature <=

    Radial Scheme          =       TREUTLER
    Pruning Scheme         =           NONE
    Nuclear Scheme         =       TREUTLER

    Blocking Scheme        =         OCTREE
    BS radius alpha        =              1
    Pruning alpha          =              1
    Radial Points          =             75
    Spherical Points       =            302
    Total Points           =          42910
    Total Blocks           =            416
    Max Points             =            255
    Max Functions          =             36
    Weights Tolerance      =       1.00E-15


  -Total Gradient:
     Atom            X                  Y                   Z
    ------   -----------------  -----------------  -----------------
       1       -0.000000000000     0.000000000000    -2.009010433939
       2        0.000000000000    -0.000000000000     2.009148368750


*** tstop() called on Joses-MacBook-Pro-2.local at Thu Jul 17 11:27:46 2025
Module time:
	user time   =       2.20 seconds =       0.04 minutes
	system time =       1.87 seconds =       0.03 minutes
	total time  =          0 seconds =       0.00 minutes
Total time:
	user time   =      32.25 seconds =       0.54 minutes
	system time =       7.82 seconds =       0.13 minutes
	total time  =          4 seconds =       0.07 minutes

    			-----------------------------------------

    			 OPTKING 3.0: for geometry optimizations 

    			     By R.A. King, Bethel University     

    			        with contributions from          

    			    A.V. Copan, J. Cayton, A. Heide      

    			-----------------------------------------

    
	                            ===> Fragment 1 <== 

	 Z (Atomic Numbers)          Masses                          Geom                  
	      12.000000            23.985042          0.00000000  0.00000000  1.30102470   
	      16.000000            31.972071          0.00000000  0.00000000 -0.97601220   

	 - Coordinate -           - BOHR/RAD -       - ANG/DEG -
	 R(1,2)           =         2.277037           1.204956


	        --- Internal Coordinate Step in ANG or DEG, aJ/ANG or AJ/DEG ---
	-------------------------------------------------------------------------------
	           Coordinate      Previous         Force          Change          New 
	           ----------      --------        ------          ------        ------
	               R(1,2)       1.20496       16.55225        0.00976       1.21471
	-------------------------------------------------------------------------------

	                                 ==> Convergence Check <==                                  
    
	Measures of convergence in internal coordinates in au.
    
	Criteria marked as inactive (o), active & met (*), and active & unmet ( ).

	----------------------------------------------------------------------------------------------
	   Step    Total Energy     Delta E     Max Force     RMS Force      Max Disp      RMS Disp   
	----------------------------------------------------------------------------------------------
	  Convergence Criteria     1.00e-06 *    3.00e-04 *             o    1.20e-03 *             o
	----------------------------------------------------------------------------------------------
	     2    -597.28008474   -1.90e-02      2.01e+00      2.01e+00 o    1.84e-02      1.84e-02 o  ~
	----------------------------------------------------------------------------------------------

Next Geometry in Ang 
	Fragment 1 (Ang)

	   Mg   0.0000000000   0.0000000000   0.6933518225
	    S   0.0000000000   0.0000000000  -0.5213626168


    Structure for next step:
    Molecular point group: c2v
    Full point group: C_inf_v

    Geometry (in Angstrom), charge = -1, multiplicity = 2:

    MG           0.000000000000     0.000000000000     0.694048254401
    S            0.000000000000     0.000000000000    -0.520666184894


Scratch directory: /tmp/
gradient() will perform analytic gradient computation.
   => Libint2 <=

    Primary   basis highest AM E, G, H:  6, 6, 3
    Auxiliary basis highest AM E, G, H:  7, 7, 4
    Onebody   basis highest AM E, G, H:  -, -, -
    Solid Harmonics ordering:            Gaussian

*** tstart() called on Joses-MacBook-Pro-2.local
*** at Thu Jul 17 11:27:46 2025

   => Loading Basis Set <=

    Name: CC-PVDZ
    Role: ORBITAL
    Keyword: BASIS
    atoms 1 entry MG         line   353 file /Users/joseantoniorodriguesromero/anaconda3/share/psi4/basis/cc-pvdz.gbs 
    atoms 2 entry S          line   598 file /Users/joseantoniorodriguesromero/anaconda3/share/psi4/basis/cc-pvdz.gbs 


         ---------------------------------------------------------
                                   SCF
               by Justin Turney, Rob Parrish, Andy Simmonett
                          and Daniel G. A. Smith
                              UKS Reference
                        1 Threads,    500 MiB Core
         ---------------------------------------------------------

  ==> Geometry <==

    Molecular point group: c2v
    Full point group: C_inf_v

    Geometry (in Angstrom), charge = -1, multiplicity = 2:

       Center              X                  Y                   Z               Mass       
    ------------   -----------------  -----------------  -----------------  -----------------
         MG           0.000000000000     0.000000000000     0.694048254401    23.985041697000
         S            0.000000000000     0.000000000000    -0.520666184894    31.972071174400

  Running in c2v symmetry.

  Rotational constants: A = ************  B =      0.83367  C =      0.83367 [cm^-1]
  Rotational constants: A = ************  B =  24992.68188  C =  24992.68188 [MHz]
  Nuclear repulsion =   83.642723887905632

  Charge       = -1
  Multiplicity = 2
  Electrons    = 29
  Nalpha       = 15
  Nbeta        = 14

  ==> Algorithm <==

  SCF Algorithm Type is DF.
  DIIS enabled.
  MOM disabled.
  Fractional occupation disabled.
  Guess Type is READ.
  Energy threshold   = 1.00e-08
  Density threshold  = 1.00e-08
  Integral threshold = 1.00e-12

  ==> Primary Basis <==

  Basis Set: CC-PVDZ
    Blend: CC-PVDZ
    Number of shells: 16
    Number of basis functions: 36
    Number of Cartesian functions: 38
    Spherical Harmonics?: true
    Max angular momentum: 2

  ==> DFT Potential <==

   => LibXC <=

    Version 6.2.2
    S. Lehtola, C. Steigemann, M. J.T. Oliveira, and M. A.L. Marques.,  SoftwareX 7, 1–5 (2018) (10.1016/j.softx.2017.11.002)

   => Composite Functional: B3LYP <= 

    B3LYP Hyb-GGA Exchange-Correlation Functional

    P. J. Stephens, F. J. Devlin, C. F. Chabalowski, and M. J. Frisch.,  J. Phys. Chem. 98, 11623 (1994) (10.1021/j100096a001)

    Deriv               =              1
    GGA                 =           TRUE
    Meta                =          FALSE

    Exchange Hybrid     =           TRUE
    MP2 Hybrid          =          FALSE

   => Exchange Functionals <=

    0.0800   Slater exchange
    0.7200         Becke 88

   => Exact (HF) Exchange <=

    0.2000               HF 

   => Correlation Functionals <=

    0.1900   Vosko, Wilk & Nusair (VWN5_RPA)
    0.8100   Lee, Yang & Parr

   => LibXC Density Thresholds  <==

    XC_HYB_GGA_XC_B3LYP:  1.00E-15 

   => Molecular Quadrature <=

    Radial Scheme          =       TREUTLER
    Pruning Scheme         =           NONE
    Nuclear Scheme         =       TREUTLER

    Blocking Scheme        =         OCTREE
    BS radius alpha        =              1
    Pruning alpha          =              1
    Radial Points          =             75
    Spherical Points       =            302
    Total Points           =          42914
    Total Blocks           =            417
    Max Points             =            255
    Max Functions          =             36
    Weights Tolerance      =       1.00E-15

   => Loading Basis Set <=

    Name: (CC-PVDZ AUX)
    Role: JKFIT
    Keyword: DF_BASIS_SCF
    atoms 1 entry MG         line   576 file /Users/joseantoniorodriguesromero/anaconda3/share/psi4/basis/def2-universal-jkfit.gbs 
    atoms 2 entry S          line   593 file /Users/joseantoniorodriguesromero/anaconda3/share/psi4/basis/cc-pvdz-jkfit.gbs 

   => Loading Basis Set <=

    Name: CC-PVDZ
    Role: ORBITAL
    Keyword: BASIS
    atoms 1 entry MG         line   353 file /Users/joseantoniorodriguesromero/anaconda3/share/psi4/basis/cc-pvdz.gbs 
    atoms 2 entry S          line   598 file /Users/joseantoniorodriguesromero/anaconda3/share/psi4/basis/cc-pvdz.gbs 

  Reading orbitals from file /tmp/doublet_MgS.default.73143.180.npy, no projection.

  ==> Integral Setup <==

  DFHelper Memory: AOs need 0.003 GiB; user supplied 0.323 GiB. 
  Using in-core AOs.

  ==> MemDFJK: Density-Fitted J/K Matrices <==

    J tasked:                   Yes
    K tasked:                   Yes
    wK tasked:                   No
    OpenMP threads:               1
    Memory [MiB]:               330
    Algorithm:                 Core
    Schwarz Cutoff:           1E-12
    Mask sparsity (%):       0.0000
    Fitting Condition:        1E-10

   => Auxiliary Basis Set <=

  Basis Set: (CC-PVDZ AUX)
    Blend: CC-PVDZ-JKFIT + DEF2-UNIVERSAL-JKFIT
    Number of shells: 70
    Number of basis functions: 224
    Number of Cartesian functions: 267
    Spherical Harmonics?: true
    Max angular momentum: 4

  Cached 100.0% of DFT collocation blocks in 0.043 [GiB].

  Minimum eigenvalue in the overlap matrix is 7.7730685208E-04.
  Reciprocal condition number of the overlap matrix is 2.4350056651E-04.
    Using symmetric orthogonalization.

  ==> Pre-Iterations <==

  SCF Guess: Orbitals guess was supplied from a previous computation.

   -------------------------------------------------------
    Irrep   Nso     Nmo     Nalpha   Nbeta   Ndocc  Nsocc
   -------------------------------------------------------
     A1        18      18       9       8       8       1
     A2         2       2       0       0       0       0
     B1         8       8       3       3       3       0
     B2         8       8       3       3       3       0
   -------------------------------------------------------
    Total      36      36      15      14      14       1
   -------------------------------------------------------

  ==> Iterations <==

                           Total Energy        Delta E     RMS |[F,P]|

   @DF-UKS iter   0:  -597.30905424438004   -5.97309e+02   2.65289e-03 
   @DF-UKS iter   1:  -597.31650497704288   -7.45073e-03   4.38358e-04 DIIS/ADIIS
   @DF-UKS iter   2:  -597.31641891553909    8.60615e-05   6.83316e-04 DIIS/ADIIS/DAMP=1%
   @DF-UKS iter   3:  -597.31777304013815   -1.35412e-03   4.29267e-05 DIIS/DAMP=1%
   @DF-UKS iter   4:  -597.31662418854239    1.14885e-03   1.74659e-05 DIIS/DAMP=1%
   @DF-UKS iter   5:  -597.31659969214309    2.44964e-05   2.67555e-06 DIIS/DAMP=1%
   @DF-UKS iter   6:  -597.31658321192799    1.64802e-05   6.33060e-07 DIIS/DAMP=1%
   @DF-UKS iter   7:  -597.31658071044615    2.50148e-06   1.41303e-07 DIIS/DAMP=1%
   @DF-UKS iter   8:  -597.31658174412814   -1.03368e-06   1.32022e-08 DIIS/DAMP=1%
   @DF-UKS iter   9:  -597.31658154988020    1.94248e-07   1.67931e-09 DIIS/DAMP=1%
   @DF-UKS iter  10:  -597.31658153618127    1.36989e-08   1.53237e-10 DIIS/DAMP=1%
   @DF-UKS iter  11:  -597.31658153419710    1.98418e-09   4.27333e-11 DIIS/DAMP=1%
  Energy and wave function converged.


  ==> Post-Iterations <==

   Electrons on quadrature grid:
      Nalpha   =   14.9999963462 ; deviation = -3.654e-06
      Nbeta    =   13.9999963017 ; deviation = -3.698e-06
      Ntotal   =   28.9999926478 ; deviation = -7.352e-06 

   @Spin Contamination Metric:   2.711843691E-03
   @S^2 Expected:                7.500000000E-01
   @S^2 Observed:                7.527118437E-01
   @S   Expected:                5.000000000E-01
   @S   Observed:                5.000000000E-01

    Orbital Energies [Eh]
    ---------------------

    Alpha Occupied:                                                       

       1A1   -88.666761     2A1   -46.725620     3A1    -7.777824  
       4A1    -5.756907     1B1    -5.717870     1B2    -5.717870  
       5A1    -3.105136     6A1    -1.886547     2B2    -1.793861  
       2B1    -1.793861     7A1    -0.438463     3B1    -0.107828  
       3B2    -0.107828     8A1    -0.032438     9A1     0.076404  

    Alpha Virtual:                                                        

       4B2     0.169613     4B1     0.169613    10A1     0.194716  
      11A1     0.284306     5B1     0.332129     5B2     0.332129  
       1A2     0.450215    12A1     0.450216    13A1     0.520951  
       6B1     0.543501     6B2     0.543501    14A1     0.758864  
       7B1     0.787727     7B2     0.787727    15A1     0.904035  
       2A2     0.916324    16A1     0.916328     8B1     1.069148  
       8B2     1.069148    17A1     1.236035    18A1     2.140437  

    Beta Occupied:                                                        

       1A1   -88.664123     2A1   -46.722691     3A1    -7.774837  
       4A1    -5.749598     1B1    -5.715993     1B2    -5.715993  
       5A1    -3.100563     6A1    -1.877149     2B2    -1.791915  
       2B1    -1.791915     7A1    -0.422768     3B1    -0.100807  
       3B2    -0.100807     8A1    -0.006406  

    Beta Virtual:                                                         

       9A1     0.138505     4B2     0.178010     4B1     0.178010  
      10A1     0.200102    11A1     0.297359     5B1     0.335839  
       5B2     0.335839     1A2     0.451609    12A1     0.451610  
      13A1     0.535230     6B1     0.557864     6B2     0.557864  
      14A1     0.776559     7B1     0.793649     7B2     0.793649  
      15A1     0.915988     2A2     0.920085    16A1     0.920091  
       8B1     1.082767     8B2     1.082767    17A1     1.251818  
      18A1     2.144102  

    Final Occupation by Irrep:
             A1    A2    B1    B2 
    DOCC [     8,    0,    3,    3 ]
    SOCC [     1,    0,    0,    0 ]
    NA   [     9,    0,    3,    3 ]
    NB   [     8,    0,    3,    3 ]

  @DF-UKS Final Energy:  -597.31658153419710

   => Energetics <=

    Nuclear Repulsion Energy =             83.6427238879056318
    One-Electron Energy =                -998.2781861678776067
    Two-Electron Energy =                 351.8014058988897546
    DFT Exchange-Correlation Energy =     -34.4825251531148353
    Empirical Dispersion Energy =           0.0000000000000000
    VV10 Nonlocal Energy =                  0.0000000000000000
    Total Energy =                       -597.3165815341970983

  UHF NO Occupations:
  HONO-2 :    7 A1 1.9999186
  HONO-1 :    8 A1 1.9988367
  HONO-0 :    9 A1 1.0000000
  LUNO+0 :   10 A1 0.0011633
  LUNO+1 :   11 A1 0.0000814
  LUNO+2 :    4 B1 0.0000557
  LUNO+3 :    4 B2 0.0000557


Computation Completed


Properties will be evaluated at   0.000000,   0.000000,   0.000000 [a0]

Properties computed using the SCF density matrix


 Multipole Moments:

 ------------------------------------------------------------------------------------
     Multipole            Electronic (a.u.)      Nuclear  (a.u.)        Total (a.u.)
 ------------------------------------------------------------------------------------

 L = 1.  Multiply by 2.5417464519 to convert [e a0] to [Debye]
 Dipole X            :          0.0000000            0.0000000            0.0000000
 Dipole Y            :          0.0000000            0.0000000            0.0000000
 Dipole Z            :         -1.1256108           -0.0039305           -1.1295413
 Magnitude           :                                                    1.1295413

 ------------------------------------------------------------------------------------

*** tstop() called on Joses-MacBook-Pro-2.local at Thu Jul 17 11:27:47 2025
Module time:
	user time   =       8.46 seconds =       0.14 minutes
	system time =       2.39 seconds =       0.04 minutes
	total time  =          1 seconds =       0.02 minutes
Total time:
	user time   =      40.97 seconds =       0.68 minutes
	system time =      10.23 seconds =       0.17 minutes
	total time  =          5 seconds =       0.08 minutes

*** tstart() called on Joses-MacBook-Pro-2.local
*** at Thu Jul 17 11:27:47 2025


         ------------------------------------------------------------
                                   SCF GRAD                          
                          Rob Parrish, Justin Turney,                
                       Andy Simmonett, and Alex Sokolov              
         ------------------------------------------------------------

  ==> Geometry <==

    Molecular point group: c2v
    Full point group: C_inf_v

    Geometry (in Angstrom), charge = -1, multiplicity = 2:

       Center              X                  Y                   Z               Mass       
    ------------   -----------------  -----------------  -----------------  -----------------
         MG           0.000000000000     0.000000000000     0.694048254401    23.985041697000
         S            0.000000000000     0.000000000000    -0.520666184894    31.972071174400

  Nuclear repulsion =   83.642723887905632

  ==> Basis Set <==

  Basis Set: CC-PVDZ
    Blend: CC-PVDZ
    Number of shells: 16
    Number of basis functions: 36
    Number of Cartesian functions: 38
    Spherical Harmonics?: true
    Max angular momentum: 2

  ==> DFJKGrad: Density-Fitted SCF Gradients <==

    Gradient:                    1
    J tasked:                  Yes
    K tasked:                  Yes
    wK tasked:                  No
    OpenMP threads:              1
    Integrals threads:           1
    Memory [MiB]:              375
    Schwarz Cutoff:          1E-12
    Fitting Condition:       1E-10

   => Auxiliary Basis Set <=

  Basis Set: (CC-PVDZ AUX)
    Blend: CC-PVDZ-JKFIT + DEF2-UNIVERSAL-JKFIT
    Number of shells: 70
    Number of basis functions: 224
    Number of Cartesian functions: 267
    Spherical Harmonics?: true
    Max angular momentum: 4

  ==> DFT Potential <==

   => LibXC <=

    Version 6.2.2
    S. Lehtola, C. Steigemann, M. J.T. Oliveira, and M. A.L. Marques.,  SoftwareX 7, 1–5 (2018) (10.1016/j.softx.2017.11.002)

   => Composite Functional: B3LYP <= 

    B3LYP Hyb-GGA Exchange-Correlation Functional

    P. J. Stephens, F. J. Devlin, C. F. Chabalowski, and M. J. Frisch.,  J. Phys. Chem. 98, 11623 (1994) (10.1021/j100096a001)

    Deriv               =              1
    GGA                 =           TRUE
    Meta                =          FALSE

    Exchange Hybrid     =           TRUE
    MP2 Hybrid          =          FALSE

   => Exchange Functionals <=

    0.0800   Slater exchange
    0.7200         Becke 88

   => Exact (HF) Exchange <=

    0.2000               HF 

   => Correlation Functionals <=

    0.1900   Vosko, Wilk & Nusair (VWN5_RPA)
    0.8100   Lee, Yang & Parr

   => LibXC Density Thresholds  <==

    XC_HYB_GGA_XC_B3LYP:  1.00E-15 

   => Molecular Quadrature <=

    Radial Scheme          =       TREUTLER
    Pruning Scheme         =           NONE
    Nuclear Scheme         =       TREUTLER

    Blocking Scheme        =         OCTREE
    BS radius alpha        =              1
    Pruning alpha          =              1
    Radial Points          =             75
    Spherical Points       =            302
    Total Points           =          42914
    Total Blocks           =            417
    Max Points             =            255
    Max Functions          =             36
    Weights Tolerance      =       1.00E-15


  -Total Gradient:
     Atom            X                  Y                   Z
    ------   -----------------  -----------------  -----------------
       1        0.000000000000     0.000000000000    -1.949415899498
       2        0.000000000000     0.000000000000     1.949533956361


*** tstop() called on Joses-MacBook-Pro-2.local at Thu Jul 17 11:27:48 2025
Module time:
	user time   =       2.28 seconds =       0.04 minutes
	system time =       1.71 seconds =       0.03 minutes
	total time  =          1 seconds =       0.02 minutes
Total time:
	user time   =      43.25 seconds =       0.72 minutes
	system time =      11.94 seconds =       0.20 minutes
	total time  =          6 seconds =       0.10 minutes

    			-----------------------------------------

    			 OPTKING 3.0: for geometry optimizations 

    			     By R.A. King, Bethel University     

    			        with contributions from          

    			    A.V. Copan, J. Cayton, A. Heide      

    			-----------------------------------------

    
	                            ===> Fragment 1 <== 

	 Z (Atomic Numbers)          Masses                          Geom                  
	      12.000000            23.985042          0.00000000  0.00000000  1.31156112   
	      16.000000            31.972071          0.00000000  0.00000000 -0.98391649   

	 - Coordinate -           - BOHR/RAD -       - ANG/DEG -
	 R(1,2)           =         2.295478           1.214714


	        --- Internal Coordinate Step in ANG or DEG, aJ/ANG or AJ/DEG ---
	-------------------------------------------------------------------------------
	           Coordinate      Previous         Force          Change          New 
	           ----------      --------        ------          ------        ------
	               R(1,2)       1.21471       16.06118        0.03770       1.25241
	-------------------------------------------------------------------------------

	                                 ==> Convergence Check <==                                  
    
	Measures of convergence in internal coordinates in au.
    
	Criteria marked as inactive (o), active & met (*), and active & unmet ( ).

	----------------------------------------------------------------------------------------------
	   Step    Total Energy     Delta E     Max Force     RMS Force      Max Disp      RMS Disp   
	----------------------------------------------------------------------------------------------
	  Convergence Criteria     1.00e-06 *    3.00e-04 *             o    1.20e-03 *             o
	----------------------------------------------------------------------------------------------
	     3    -597.31658153   -3.65e-02      1.95e+00      1.95e+00 o    7.12e-02      7.12e-02 o  ~
	----------------------------------------------------------------------------------------------

Next Geometry in Ang 
	Fragment 1 (Ang)

	   Mg   0.0000000000   0.0000000000   0.7128963517
	    S   0.0000000000   0.0000000000  -0.5395142822


    Structure for next step:
    Molecular point group: c2v
    Full point group: C_inf_v

    Geometry (in Angstrom), charge = -1, multiplicity = 2:

    MG           0.000000000000     0.000000000000     0.715586631873
    S            0.000000000000     0.000000000000    -0.536824002101


Scratch directory: /tmp/
gradient() will perform analytic gradient computation.
   => Libint2 <=

    Primary   basis highest AM E, G, H:  6, 6, 3
    Auxiliary basis highest AM E, G, H:  7, 7, 4
    Onebody   basis highest AM E, G, H:  -, -, -
    Solid Harmonics ordering:            Gaussian

*** tstart() called on Joses-MacBook-Pro-2.local
*** at Thu Jul 17 11:27:48 2025

   => Loading Basis Set <=

    Name: CC-PVDZ
    Role: ORBITAL
    Keyword: BASIS
    atoms 1 entry MG         line   353 file /Users/joseantoniorodriguesromero/anaconda3/share/psi4/basis/cc-pvdz.gbs 
    atoms 2 entry S          line   598 file /Users/joseantoniorodriguesromero/anaconda3/share/psi4/basis/cc-pvdz.gbs 


         ---------------------------------------------------------
                                   SCF
               by Justin Turney, Rob Parrish, Andy Simmonett
                          and Daniel G. A. Smith
                              UKS Reference
                        1 Threads,    500 MiB Core
         ---------------------------------------------------------

  ==> Geometry <==

    Molecular point group: c2v
    Full point group: C_inf_v

    Geometry (in Angstrom), charge = -1, multiplicity = 2:

       Center              X                  Y                   Z               Mass       
    ------------   -----------------  -----------------  -----------------  -----------------
         MG           0.000000000000     0.000000000000     0.715586631873    23.985041697000
         S            0.000000000000     0.000000000000    -0.536824002101    31.972071174400

  Running in c2v symmetry.

  Rotational constants: A = ************  B =      0.78424  C =      0.78424 [cm^-1]
  Rotational constants: A = ************  B =  23510.81891  C =  23510.81891 [MHz]
  Nuclear repulsion =   81.125169087912056

  Charge       = -1
  Multiplicity = 2
  Electrons    = 29
  Nalpha       = 15
  Nbeta        = 14

  ==> Algorithm <==

  SCF Algorithm Type is DF.
  DIIS enabled.
  MOM disabled.
  Fractional occupation disabled.
  Guess Type is READ.
  Energy threshold   = 1.00e-08
  Density threshold  = 1.00e-08
  Integral threshold = 1.00e-12

  ==> Primary Basis <==

  Basis Set: CC-PVDZ
    Blend: CC-PVDZ
    Number of shells: 16
    Number of basis functions: 36
    Number of Cartesian functions: 38
    Spherical Harmonics?: true
    Max angular momentum: 2

  ==> DFT Potential <==

   => LibXC <=

    Version 6.2.2
    S. Lehtola, C. Steigemann, M. J.T. Oliveira, and M. A.L. Marques.,  SoftwareX 7, 1–5 (2018) (10.1016/j.softx.2017.11.002)

   => Composite Functional: B3LYP <= 

    B3LYP Hyb-GGA Exchange-Correlation Functional

    P. J. Stephens, F. J. Devlin, C. F. Chabalowski, and M. J. Frisch.,  J. Phys. Chem. 98, 11623 (1994) (10.1021/j100096a001)

    Deriv               =              1
    GGA                 =           TRUE
    Meta                =          FALSE

    Exchange Hybrid     =           TRUE
    MP2 Hybrid          =          FALSE

   => Exchange Functionals <=

    0.0800   Slater exchange
    0.7200         Becke 88

   => Exact (HF) Exchange <=

    0.2000               HF 

   => Correlation Functionals <=

    0.1900   Vosko, Wilk & Nusair (VWN5_RPA)
    0.8100   Lee, Yang & Parr

   => LibXC Density Thresholds  <==

    XC_HYB_GGA_XC_B3LYP:  1.00E-15 

   => Molecular Quadrature <=

    Radial Scheme          =       TREUTLER
    Pruning Scheme         =           NONE
    Nuclear Scheme         =       TREUTLER

    Blocking Scheme        =         OCTREE
    BS radius alpha        =              1
    Pruning alpha          =              1
    Radial Points          =             75
    Spherical Points       =            302
    Total Points           =          42918
    Total Blocks           =            417
    Max Points             =            255
    Max Functions          =             36
    Weights Tolerance      =       1.00E-15

   => Loading Basis Set <=

    Name: (CC-PVDZ AUX)
    Role: JKFIT
    Keyword: DF_BASIS_SCF
    atoms 1 entry MG         line   576 file /Users/joseantoniorodriguesromero/anaconda3/share/psi4/basis/def2-universal-jkfit.gbs 
    atoms 2 entry S          line   593 file /Users/joseantoniorodriguesromero/anaconda3/share/psi4/basis/cc-pvdz-jkfit.gbs 

   => Loading Basis Set <=

    Name: CC-PVDZ
    Role: ORBITAL
    Keyword: BASIS
    atoms 1 entry MG         line   353 file /Users/joseantoniorodriguesromero/anaconda3/share/psi4/basis/cc-pvdz.gbs 
    atoms 2 entry S          line   598 file /Users/joseantoniorodriguesromero/anaconda3/share/psi4/basis/cc-pvdz.gbs 

  Reading orbitals from file /tmp/doublet_MgS.default.73143.180.npy, no projection.

  ==> Integral Setup <==

  DFHelper Memory: AOs need 0.003 GiB; user supplied 0.323 GiB. 
  Using in-core AOs.

  ==> MemDFJK: Density-Fitted J/K Matrices <==

    J tasked:                   Yes
    K tasked:                   Yes
    wK tasked:                   No
    OpenMP threads:               1
    Memory [MiB]:               330
    Algorithm:                 Core
    Schwarz Cutoff:           1E-12
    Mask sparsity (%):       0.0000
    Fitting Condition:        1E-10

   => Auxiliary Basis Set <=

  Basis Set: (CC-PVDZ AUX)
    Blend: CC-PVDZ-JKFIT + DEF2-UNIVERSAL-JKFIT
    Number of shells: 70
    Number of basis functions: 224
    Number of Cartesian functions: 267
    Spherical Harmonics?: true
    Max angular momentum: 4

  Cached 100.0% of DFT collocation blocks in 0.043 [GiB].

  Minimum eigenvalue in the overlap matrix is 7.6256756436E-04.
  Reciprocal condition number of the overlap matrix is 2.3891207862E-04.
    Using symmetric orthogonalization.

  ==> Pre-Iterations <==

  SCF Guess: Orbitals guess was supplied from a previous computation.

   -------------------------------------------------------
    Irrep   Nso     Nmo     Nalpha   Nbeta   Ndocc  Nsocc
   -------------------------------------------------------
     A1        18      18       9       8       8       1
     A2         2       2       0       0       0       0
     B1         8       8       3       3       3       0
     B2         8       8       3       3       3       0
   -------------------------------------------------------
    Total      36      36      15      14      14       1
   -------------------------------------------------------

  ==> Iterations <==

                           Total Energy        Delta E     RMS |[F,P]|

   @DF-UKS iter   0:  -597.41938773458162   -5.97419e+02   9.84877e-03 
   @DF-UKS iter   1:  -597.44667156838182   -2.72838e-02   1.64375e-03 DIIS/ADIIS
   @DF-UKS iter   2:  -597.44539706473790    1.27450e-03   2.60106e-03 DIIS/ADIIS/DAMP=1%
   @DF-UKS iter   3:  -597.45225125254240   -6.85419e-03   1.55800e-04 DIIS/ADIIS/DAMP=1%
   @DF-UKS iter   4:  -597.44789780727297    4.35345e-03   6.91417e-05 DIIS/DAMP=1%
   @DF-UKS iter   5:  -597.44782621637603    7.15909e-05   1.02101e-05 DIIS/DAMP=1%
   @DF-UKS iter   6:  -597.44775758014714    6.86362e-05   2.77098e-06 DIIS/DAMP=1%
   @DF-UKS iter   7:  -597.44775187575249    5.70439e-06   4.44278e-07 DIIS/DAMP=1%
   @DF-UKS iter   8:  -597.44775430701463   -2.43126e-06   3.88400e-08 DIIS/DAMP=1%
   @DF-UKS iter   9:  -597.44775366844249    6.38572e-07   9.83508e-09 DIIS/DAMP=1%
   @DF-UKS iter  10:  -597.44775366117199    7.27050e-09   1.40487e-09 DIIS/DAMP=1%
  Energy and wave function converged.


  ==> Post-Iterations <==

   Electrons on quadrature grid:
      Nalpha   =   14.9999979150 ; deviation = -2.085e-06
      Nbeta    =   13.9999978444 ; deviation = -2.156e-06
      Ntotal   =   28.9999957593 ; deviation = -4.241e-06 

   @Spin Contamination Metric:   2.597076202E-03
   @S^2 Expected:                7.500000000E-01
   @S^2 Observed:                7.525970762E-01
   @S   Expected:                5.000000000E-01
   @S   Observed:                5.000000000E-01

    Orbital Energies [Eh]
    ---------------------

    Alpha Occupied:                                                       

       1A1   -88.646010     2A1   -46.693035     3A1    -7.754030  
       4A1    -5.731142     1B2    -5.696685     1B1    -5.696685  
       5A1    -3.064993     6A1    -1.849796     2B2    -1.762373  
       2B1    -1.762373     7A1    -0.436607     3B2    -0.098920  
       3B1    -0.098920     8A1    -0.034670     9A1     0.071135  

    Alpha Virtual:                                                        

       4B2     0.169408     4B1     0.169408    10A1     0.195344  
      11A1     0.283100     5B1     0.333270     5B2     0.333270  
       1A2     0.456414    12A1     0.456415    13A1     0.513323  
       6B1     0.544321     6B2     0.544321    14A1     0.754100  
       7B1     0.786896     7B2     0.786896    15A1     0.893755  
       2A2     0.916999    16A1     0.917001     8B1     1.078734  
       8B2     1.078734    17A1     1.221668    18A1     2.161841  

    Beta Occupied:                                                        

       1A1   -88.643392     2A1   -46.690217     3A1    -7.751101  
       4A1    -5.723782     1B2    -5.694846     1B1    -5.694846  
       5A1    -3.060755     6A1    -1.840042     2B2    -1.760549  
       2B1    -1.760549     7A1    -0.421257     3B2    -0.092491  
       3B1    -0.092491     8A1    -0.008633  

    Beta Virtual:                                                         

       9A1     0.133605     4B1     0.178210     4B2     0.178210  
      10A1     0.200558    11A1     0.296819     5B1     0.337346  
       5B2     0.337346     1A2     0.458064    12A1     0.458065  
      13A1     0.527969     6B1     0.559109     6B2     0.559109  
      14A1     0.771201     7B1     0.792644     7B2     0.792644  
      15A1     0.905742     2A2     0.920737    16A1     0.920741  
       8B1     1.092398     8B2     1.092398    17A1     1.236537  
      18A1     2.165809  

    Final Occupation by Irrep:
             A1    A2    B1    B2 
    DOCC [     8,    0,    3,    3 ]
    SOCC [     1,    0,    0,    0 ]
    NA   [     9,    0,    3,    3 ]
    NB   [     8,    0,    3,    3 ]

  @DF-UKS Final Energy:  -597.44775366117199

   => Energetics <=

    Nuclear Repulsion Energy =             81.1251690879120559
    One-Electron Energy =                -994.1122618635015442
    Two-Electron Energy =                 350.0086629527276045
    DFT Exchange-Correlation Energy =     -34.4693238383101743
    Empirical Dispersion Energy =           0.0000000000000000
    VV10 Nonlocal Energy =                  0.0000000000000000
    Total Energy =                       -597.4477536611721007

  UHF NO Occupations:
  HONO-2 :    7 A1 1.9999200
  HONO-1 :    8 A1 1.9988734
  HONO-0 :    9 A1 1.0000000
  LUNO+0 :   10 A1 0.0011266
  LUNO+1 :   11 A1 0.0000800
  LUNO+2 :    4 B1 0.0000460
  LUNO+3 :    4 B2 0.0000460


Computation Completed


Properties will be evaluated at   0.000000,   0.000000,   0.000000 [a0]

Properties computed using the SCF density matrix


 Multipole Moments:

 ------------------------------------------------------------------------------------
     Multipole            Electronic (a.u.)      Nuclear  (a.u.)        Total (a.u.)
 ------------------------------------------------------------------------------------

 L = 1.  Multiply by 2.5417464519 to convert [e a0] to [Debye]
 Dipole X            :          0.0000000            0.0000000            0.0000000
 Dipole Y            :          0.0000000            0.0000000            0.0000000
 Dipole Z            :         -1.0424609           -0.0040524           -1.0465133
 Magnitude           :                                                    1.0465133

 ------------------------------------------------------------------------------------

*** tstop() called on Joses-MacBook-Pro-2.local at Thu Jul 17 11:27:49 2025
Module time:
	user time   =       8.30 seconds =       0.14 minutes
	system time =       2.99 seconds =       0.05 minutes
	total time  =          1 seconds =       0.02 minutes
Total time:
	user time   =      51.86 seconds =       0.86 minutes
	system time =      14.98 seconds =       0.25 minutes
	total time  =          7 seconds =       0.12 minutes

*** tstart() called on Joses-MacBook-Pro-2.local
*** at Thu Jul 17 11:27:49 2025


         ------------------------------------------------------------
                                   SCF GRAD                          
                          Rob Parrish, Justin Turney,                
                       Andy Simmonett, and Alex Sokolov              
         ------------------------------------------------------------

  ==> Geometry <==

    Molecular point group: c2v
    Full point group: C_inf_v

    Geometry (in Angstrom), charge = -1, multiplicity = 2:

       Center              X                  Y                   Z               Mass       
    ------------   -----------------  -----------------  -----------------  -----------------
         MG           0.000000000000     0.000000000000     0.715586631873    23.985041697000
         S            0.000000000000     0.000000000000    -0.536824002101    31.972071174400

  Nuclear repulsion =   81.125169087912056

  ==> Basis Set <==

  Basis Set: CC-PVDZ
    Blend: CC-PVDZ
    Number of shells: 16
    Number of basis functions: 36
    Number of Cartesian functions: 38
    Spherical Harmonics?: true
    Max angular momentum: 2

  ==> DFJKGrad: Density-Fitted SCF Gradients <==

    Gradient:                    1
    J tasked:                  Yes
    K tasked:                  Yes
    wK tasked:                  No
    OpenMP threads:              1
    Integrals threads:           1
    Memory [MiB]:              375
    Schwarz Cutoff:          1E-12
    Fitting Condition:       1E-10

   => Auxiliary Basis Set <=

  Basis Set: (CC-PVDZ AUX)
    Blend: CC-PVDZ-JKFIT + DEF2-UNIVERSAL-JKFIT
    Number of shells: 70
    Number of basis functions: 224
    Number of Cartesian functions: 267
    Spherical Harmonics?: true
    Max angular momentum: 4

  ==> DFT Potential <==

   => LibXC <=

    Version 6.2.2
    S. Lehtola, C. Steigemann, M. J.T. Oliveira, and M. A.L. Marques.,  SoftwareX 7, 1–5 (2018) (10.1016/j.softx.2017.11.002)

   => Composite Functional: B3LYP <= 

    B3LYP Hyb-GGA Exchange-Correlation Functional

    P. J. Stephens, F. J. Devlin, C. F. Chabalowski, and M. J. Frisch.,  J. Phys. Chem. 98, 11623 (1994) (10.1021/j100096a001)

    Deriv               =              1
    GGA                 =           TRUE
    Meta                =          FALSE

    Exchange Hybrid     =           TRUE
    MP2 Hybrid          =          FALSE

   => Exchange Functionals <=

    0.0800   Slater exchange
    0.7200         Becke 88

   => Exact (HF) Exchange <=

    0.2000               HF 

   => Correlation Functionals <=

    0.1900   Vosko, Wilk & Nusair (VWN5_RPA)
    0.8100   Lee, Yang & Parr

   => LibXC Density Thresholds  <==

    XC_HYB_GGA_XC_B3LYP:  1.00E-15 

   => Molecular Quadrature <=

    Radial Scheme          =       TREUTLER
    Pruning Scheme         =           NONE
    Nuclear Scheme         =       TREUTLER

    Blocking Scheme        =         OCTREE
    BS radius alpha        =              1
    Pruning alpha          =              1
    Radial Points          =             75
    Spherical Points       =            302
    Total Points           =          42918
    Total Blocks           =            417
    Max Points             =            255
    Max Functions          =             36
    Weights Tolerance      =       1.00E-15


  -Total Gradient:
     Atom            X                  Y                   Z
    ------   -----------------  -----------------  -----------------
       1        0.000000000000    -0.000000000000    -1.737749975982
       2       -0.000000000000     0.000000000000     1.737796974561


*** tstop() called on Joses-MacBook-Pro-2.local at Thu Jul 17 11:27:49 2025
Module time:
	user time   =       2.88 seconds =       0.05 minutes
	system time =       1.53 seconds =       0.03 minutes
	total time  =          0 seconds =       0.00 minutes
Total time:
	user time   =      54.74 seconds =       0.91 minutes
	system time =      16.51 seconds =       0.28 minutes
	total time  =          7 seconds =       0.12 minutes

    			-----------------------------------------

    			 OPTKING 3.0: for geometry optimizations 

    			     By R.A. King, Bethel University     

    			        with contributions from          

    			    A.V. Copan, J. Cayton, A. Heide      

    			-----------------------------------------

    
	                            ===> Fragment 1 <== 

	 Z (Atomic Numbers)          Masses                          Geom                  
	      12.000000            23.985042          0.00000000  0.00000000  1.35226275   
	      16.000000            31.972071          0.00000000  0.00000000 -1.01445034   

	 - Coordinate -           - BOHR/RAD -       - ANG/DEG -
	 R(1,2)           =         2.366713           1.252411


	        --- Internal Coordinate Step in ANG or DEG, aJ/ANG or AJ/DEG ---
	-------------------------------------------------------------------------------
	           Coordinate      Previous         Force          Change          New 
	           ----------      --------        ------          ------        ------
	               R(1,2)       1.25241       14.31703        0.22245       1.47486
	-------------------------------------------------------------------------------

	                                 ==> Convergence Check <==                                  
    
	Measures of convergence in internal coordinates in au.
    
	Criteria marked as inactive (o), active & met (*), and active & unmet ( ).

	----------------------------------------------------------------------------------------------
	   Step    Total Energy     Delta E     Max Force     RMS Force      Max Disp      RMS Disp   
	----------------------------------------------------------------------------------------------
	  Convergence Criteria     1.00e-06 *    3.00e-04 *             o    1.20e-03 *             o
	----------------------------------------------------------------------------------------------
	     4    -597.44775366   -1.31e-01      1.74e+00      1.74e+00 o    4.20e-01      4.20e-01 o  ~
	----------------------------------------------------------------------------------------------

Next Geometry in Ang 
	Fragment 1 (Ang)

	   Mg   0.0000000000   0.0000000000   0.8268103001
	    S   0.0000000000   0.0000000000  -0.6480476704


    Structure for next step:
    Molecular point group: c2v
    Full point group: C_inf_v

    Geometry (in Angstrom), charge = -1, multiplicity = 2:

    MG           0.000000000000     0.000000000000     0.842685792483
    S            0.000000000000     0.000000000000    -0.632172178021


Scratch directory: /tmp/
gradient() will perform analytic gradient computation.
   => Libint2 <=

    Primary   basis highest AM E, G, H:  6, 6, 3
    Auxiliary basis highest AM E, G, H:  7, 7, 4
    Onebody   basis highest AM E, G, H:  -, -, -
    Solid Harmonics ordering:            Gaussian

*** tstart() called on Joses-MacBook-Pro-2.local
*** at Thu Jul 17 11:27:49 2025

   => Loading Basis Set <=

    Name: CC-PVDZ
    Role: ORBITAL
    Keyword: BASIS
    atoms 1 entry MG         line   353 file /Users/joseantoniorodriguesromero/anaconda3/share/psi4/basis/cc-pvdz.gbs 
    atoms 2 entry S          line   598 file /Users/joseantoniorodriguesromero/anaconda3/share/psi4/basis/cc-pvdz.gbs 


         ---------------------------------------------------------
                                   SCF
               by Justin Turney, Rob Parrish, Andy Simmonett
                          and Daniel G. A. Smith
                              UKS Reference
                        1 Threads,    500 MiB Core
         ---------------------------------------------------------

  ==> Geometry <==

    Molecular point group: c2v
    Full point group: C_inf_v

    Geometry (in Angstrom), charge = -1, multiplicity = 2:

       Center              X                  Y                   Z               Mass       
    ------------   -----------------  -----------------  -----------------  -----------------
         MG           0.000000000000     0.000000000000     0.842685792483    23.985041697000
         S            0.000000000000     0.000000000000    -0.632172178021    31.972071174400

  Running in c2v symmetry.

[...]
	----------------------------------------------------------------------------------------------
	  Convergence Criteria     1.00e-06 *    3.00e-04 *             o    1.20e-03 *             o
	----------------------------------------------------------------------------------------------
	    14    -598.35708934   -3.35e-06      2.42e-04 *    2.42e-04 o    1.88e-03      1.88e-03 o  ~
	----------------------------------------------------------------------------------------------

Next Geometry in Ang 
	Fragment 1 (Ang)

	   Mg   0.0000000000   0.0000000000   1.2757911196
	    S   0.0000000000   0.0000000000  -0.9572062747


    Structure for next step:
    Molecular point group: c2v
    Full point group: C_inf_v

    Geometry (in Angstrom), charge = -1, multiplicity = 2:

    MG           0.000000000000     0.000000000000     1.275861958524
    S            0.000000000000     0.000000000000    -0.957135435734


Scratch directory: /tmp/
gradient() will perform analytic gradient computation.
   => Libint2 <=

    Primary   basis highest AM E, G, H:  6, 6, 3
    Auxiliary basis highest AM E, G, H:  7, 7, 4
    Onebody   basis highest AM E, G, H:  -, -, -
    Solid Harmonics ordering:            Gaussian

*** tstart() called on Joses-MacBook-Pro-2.local
*** at Thu Jul 17 11:28:04 2025

   => Loading Basis Set <=

    Name: CC-PVDZ
    Role: ORBITAL
    Keyword: BASIS
    atoms 1 entry MG         line   353 file /Users/joseantoniorodriguesromero/anaconda3/share/psi4/basis/cc-pvdz.gbs 
    atoms 2 entry S          line   598 file /Users/joseantoniorodriguesromero/anaconda3/share/psi4/basis/cc-pvdz.gbs 


         ---------------------------------------------------------
                                   SCF
               by Justin Turney, Rob Parrish, Andy Simmonett
                          and Daniel G. A. Smith
                              UKS Reference
                        1 Threads,    500 MiB Core
         ---------------------------------------------------------

  ==> Geometry <==

    Molecular point group: c2v
    Full point group: C_inf_v

    Geometry (in Angstrom), charge = -1, multiplicity = 2:

       Center              X                  Y                   Z               Mass       
    ------------   -----------------  -----------------  -----------------  -----------------
         MG           0.000000000000     0.000000000000     1.275861958524    23.985041697000
         S            0.000000000000     0.000000000000    -0.957135435734    31.972071174400

  Running in c2v symmetry.

  Rotational constants: A = ************  B =      0.24670  C =      0.24670 [cm^-1]
  Rotational constants: A = ************  B =   7395.79418  C =   7395.79418 [MHz]
  Nuclear repulsion =   45.500287958201028

  Charge       = -1
  Multiplicity = 2
  Electrons    = 29
  Nalpha       = 15
  Nbeta        = 14

  ==> Algorithm <==

  SCF Algorithm Type is DF.
  DIIS enabled.
  MOM disabled.
  Fractional occupation disabled.
  Guess Type is READ.
  Energy threshold   = 1.00e-08
  Density threshold  = 1.00e-08
  Integral threshold = 1.00e-12

  ==> Primary Basis <==

  Basis Set: CC-PVDZ
    Blend: CC-PVDZ
    Number of shells: 16
    Number of basis functions: 36
    Number of Cartesian functions: 38
    Spherical Harmonics?: true
    Max angular momentum: 2

  ==> DFT Potential <==

   => LibXC <=

    Version 6.2.2
    S. Lehtola, C. Steigemann, M. J.T. Oliveira, and M. A.L. Marques.,  SoftwareX 7, 1–5 (2018) (10.1016/j.softx.2017.11.002)

   => Composite Functional: B3LYP <= 

    B3LYP Hyb-GGA Exchange-Correlation Functional

    P. J. Stephens, F. J. Devlin, C. F. Chabalowski, and M. J. Frisch.,  J. Phys. Chem. 98, 11623 (1994) (10.1021/j100096a001)

    Deriv               =              1
    GGA                 =           TRUE
    Meta                =          FALSE

    Exchange Hybrid     =           TRUE
    MP2 Hybrid          =          FALSE

   => Exchange Functionals <=

    0.0800   Slater exchange
    0.7200         Becke 88

   => Exact (HF) Exchange <=

    0.2000               HF 

   => Correlation Functionals <=

    0.1900   Vosko, Wilk & Nusair (VWN5_RPA)
    0.8100   Lee, Yang & Parr

   => LibXC Density Thresholds  <==

    XC_HYB_GGA_XC_B3LYP:  1.00E-15 

   => Molecular Quadrature <=

    Radial Scheme          =       TREUTLER
    Pruning Scheme         =           NONE
    Nuclear Scheme         =       TREUTLER

    Blocking Scheme        =         OCTREE
    BS radius alpha        =              1
    Pruning alpha          =              1
    Radial Points          =             75
    Spherical Points       =            302
    Total Points           =          43003
    Total Blocks           =            420
    Max Points             =            252
    Max Functions          =             36
    Weights Tolerance      =       1.00E-15

   => Loading Basis Set <=

    Name: (CC-PVDZ AUX)
    Role: JKFIT
    Keyword: DF_BASIS_SCF
    atoms 1 entry MG         line   576 file /Users/joseantoniorodriguesromero/anaconda3/share/psi4/basis/def2-universal-jkfit.gbs 
    atoms 2 entry S          line   593 file /Users/joseantoniorodriguesromero/anaconda3/share/psi4/basis/cc-pvdz-jkfit.gbs 

   => Loading Basis Set <=

    Name: CC-PVDZ
    Role: ORBITAL
    Keyword: BASIS
    atoms 1 entry MG         line   353 file /Users/joseantoniorodriguesromero/anaconda3/share/psi4/basis/cc-pvdz.gbs 
    atoms 2 entry S          line   598 file /Users/joseantoniorodriguesromero/anaconda3/share/psi4/basis/cc-pvdz.gbs 

  Reading orbitals from file /tmp/doublet_MgS.default.73143.180.npy, no projection.

  ==> Integral Setup <==

  DFHelper Memory: AOs need 0.003 GiB; user supplied 0.323 GiB. 
  Using in-core AOs.

  ==> MemDFJK: Density-Fitted J/K Matrices <==

    J tasked:                   Yes
    K tasked:                   Yes
    wK tasked:                   No
    OpenMP threads:               1
    Memory [MiB]:               331
    Algorithm:                 Core
    Schwarz Cutoff:           1E-12
    Mask sparsity (%):       0.0000
    Fitting Condition:        1E-10

   => Auxiliary Basis Set <=

  Basis Set: (CC-PVDZ AUX)
    Blend: CC-PVDZ-JKFIT + DEF2-UNIVERSAL-JKFIT
    Number of shells: 70
    Number of basis functions: 224
    Number of Cartesian functions: 267
    Spherical Harmonics?: true
    Max angular momentum: 4

  Cached 100.0% of DFT collocation blocks in 0.043 [GiB].

  Minimum eigenvalue in the overlap matrix is 1.2688847075E-02.
  Reciprocal condition number of the overlap matrix is 4.1554820061E-03.
    Using symmetric orthogonalization.

  ==> Pre-Iterations <==

  SCF Guess: Orbitals guess was supplied from a previous computation.

   -------------------------------------------------------
    Irrep   Nso     Nmo     Nalpha   Nbeta   Ndocc  Nsocc
   -------------------------------------------------------
     A1        18      18       9       8       8       1
     A2         2       2       0       0       0       0
     B1         8       8       3       3       3       0
     B2         8       8       3       3       3       0
   -------------------------------------------------------
    Total      36      36      15      14      14       1
   -------------------------------------------------------

  ==> Iterations <==

                           Total Energy        Delta E     RMS |[F,P]|

   @DF-UKS iter   0:  -598.35699176594869   -5.98357e+02   6.44028e-05 
   @DF-UKS iter   1:  -598.35708945565170   -9.76897e-05   1.25001e-05 DIIS
   @DF-UKS iter   2:  -598.35708911077472    3.44877e-07   3.19792e-05 DIIS/DAMP=1%
   @DF-UKS iter   3:  -598.35704465049173    4.44603e-05   2.27967e-06 DIIS/DAMP=1%
   @DF-UKS iter   4:  -598.35708784392546   -4.31934e-05   1.10680e-06 DIIS/DAMP=1%
   @DF-UKS iter   5:  -598.35708805044521   -2.06520e-07   1.29331e-07 DIIS/DAMP=1%
   @DF-UKS iter   6:  -598.35708963477305   -1.58433e-06   3.85782e-08 DIIS/DAMP=1%
   @DF-UKS iter   7:  -598.35708951120750    1.23566e-07   1.07211e-08 DIIS/DAMP=1%
   @DF-UKS iter   8:  -598.35708955035091   -3.91434e-08   4.37056e-09 DIIS/DAMP=1%
   @DF-UKS iter   9:  -598.35708953165079    1.87001e-08   3.50575e-10 DIIS/DAMP=1%
   @DF-UKS iter  10:  -598.35708953572043   -4.06965e-09   1.80326e-10 DIIS/DAMP=1%
  Energy and wave function converged.


  ==> Post-Iterations <==

   Electrons on quadrature grid:
      Nalpha   =   15.0000028799 ; deviation = 2.880e-06
      Nbeta    =   14.0000029438 ; deviation = 2.944e-06
      Ntotal   =   29.0000058237 ; deviation = 5.824e-06 

   @Spin Contamination Metric:   4.008900429E-03
   @S^2 Expected:                7.500000000E-01
   @S^2 Observed:                7.540089004E-01
   @S   Expected:                5.000000000E-01
   @S   Observed:                5.000000000E-01

    Orbital Energies [Eh]
    ---------------------

    Alpha Occupied:                                                       

       1A1   -88.600880     2A1   -46.630849     3A1    -7.660632  
       4A1    -5.624529     1B2    -5.619286     1B1    -5.619286  
       5A1    -2.916881     2B1    -1.660864     2B2    -1.660864  
       6A1    -1.659502     7A1    -0.403164     8A1    -0.073230  
       3B2    -0.009683     3B1    -0.009683     9A1     0.002151  

    Alpha Virtual:                                                        

       4B1     0.137964     4B2     0.137964    10A1     0.185558  
      11A1     0.245775     5B1     0.315921     5B2     0.315921  
      12A1     0.392025     1A2     0.493667    13A1     0.493667  
       6B1     0.502376     6B2     0.502376    14A1     0.556818  
       7B2     0.769428     7B1     0.769428    15A1     0.837066  
       2A2     0.889010    16A1     0.889010    17A1     0.890085  
       8B2     0.994729     8B1     0.994729    18A1     1.328500  

    Beta Occupied:                                                        

       1A1   -88.599343     2A1   -46.629617     3A1    -7.659079  
       4A1    -5.619315     1B2    -5.618405     1B1    -5.618405  
       5A1    -2.914901     2B1    -1.659765     2B2    -1.659765  
       6A1    -1.656004     7A1    -0.390588     8A1    -0.049008  
       3B2    -0.006669     3B1    -0.006669  

    Beta Virtual:                                                         

       9A1     0.071387     4B2     0.149165     4B1     0.149165  
      10A1     0.192825    11A1     0.260851     5B1     0.323271  
       5B2     0.323271    12A1     0.409973     1A2     0.502153  
      13A1     0.502154     6B1     0.520098     6B2     0.520098  
      14A1     0.570818     7B2     0.772784     7B1     0.772784  
      15A1     0.849494     2A2     0.890789    16A1     0.890789  
      17A1     0.901809     8B2     1.006889     8B1     1.006889  
      18A1     1.338577  

    Final Occupation by Irrep:
             A1    A2    B1    B2 
    DOCC [     8,    0,    3,    3 ]
    SOCC [     1,    0,    0,    0 ]
    NA   [     9,    0,    3,    3 ]
    NB   [     8,    0,    3,    3 ]

  @DF-UKS Final Energy:  -598.35708953572043

   => Energetics <=

    Nuclear Repulsion Energy =             45.5002879582010280
    One-Electron Energy =                -927.1461764474157690
    Two-Electron Energy =                 317.4498017786631294
    DFT Exchange-Correlation Energy =     -34.1610028251688647
    Empirical Dispersion Energy =           0.0000000000000000
    VV10 Nonlocal Energy =                  0.0000000000000000
    Total Energy =                       -598.3570895357204336

  UHF NO Occupations:
  HONO-2 :    7 A1 1.9999183
  HONO-1 :    8 A1 1.9981973
  HONO-0 :    9 A1 1.0000000
  LUNO+0 :   10 A1 0.0018027
  LUNO+1 :   11 A1 0.0000817
  LUNO+2 :    4 B1 0.0000607
  LUNO+3 :    4 B2 0.0000607


Computation Completed


Properties will be evaluated at   0.000000,   0.000000,   0.000000 [a0]

Properties computed using the SCF density matrix


 Multipole Moments:

 ------------------------------------------------------------------------------------
     Multipole            Electronic (a.u.)      Nuclear  (a.u.)        Total (a.u.)
 ------------------------------------------------------------------------------------

 L = 1.  Multiply by 2.5417464519 to convert [e a0] to [Debye]
 Dipole X            :          0.0000000            0.0000000            0.0000000
 Dipole Y            :          0.0000000            0.0000000            0.0000000
 Dipole Z            :          0.2233415           -0.0072253            0.2161162
 Magnitude           :                                                    0.2161162

 ------------------------------------------------------------------------------------

*** tstop() called on Joses-MacBook-Pro-2.local at Thu Jul 17 11:28:05 2025
Module time:
	user time   =       7.05 seconds =       0.12 minutes
	system time =       2.76 seconds =       0.05 minutes
	total time  =          1 seconds =       0.02 minutes
Total time:
	user time   =     181.89 seconds =       3.03 minutes
	system time =      59.34 seconds =       0.99 minutes
	total time  =         23 seconds =       0.38 minutes

*** tstart() called on Joses-MacBook-Pro-2.local
*** at Thu Jul 17 11:28:05 2025


         ------------------------------------------------------------
                                   SCF GRAD                          
                          Rob Parrish, Justin Turney,                
                       Andy Simmonett, and Alex Sokolov              
         ------------------------------------------------------------

  ==> Geometry <==

    Molecular point group: c2v
    Full point group: C_inf_v

    Geometry (in Angstrom), charge = -1, multiplicity = 2:

       Center              X                  Y                   Z               Mass       
    ------------   -----------------  -----------------  -----------------  -----------------
         MG           0.000000000000     0.000000000000     1.275861958524    23.985041697000
         S            0.000000000000     0.000000000000    -0.957135435734    31.972071174400

  Nuclear repulsion =   45.500287958201028

  ==> Basis Set <==

  Basis Set: CC-PVDZ
    Blend: CC-PVDZ
    Number of shells: 16
    Number of basis functions: 36
    Number of Cartesian functions: 38
    Spherical Harmonics?: true
    Max angular momentum: 2

  ==> DFJKGrad: Density-Fitted SCF Gradients <==

    Gradient:                    1
    J tasked:                  Yes
    K tasked:                  Yes
    wK tasked:                  No
    OpenMP threads:              1
    Integrals threads:           1
    Memory [MiB]:              375
    Schwarz Cutoff:          1E-12
    Fitting Condition:       1E-10

   => Auxiliary Basis Set <=

  Basis Set: (CC-PVDZ AUX)
    Blend: CC-PVDZ-JKFIT + DEF2-UNIVERSAL-JKFIT
    Number of shells: 70
    Number of basis functions: 224
    Number of Cartesian functions: 267
    Spherical Harmonics?: true
    Max angular momentum: 4

  ==> DFT Potential <==

   => LibXC <=

    Version 6.2.2
    S. Lehtola, C. Steigemann, M. J.T. Oliveira, and M. A.L. Marques.,  SoftwareX 7, 1–5 (2018) (10.1016/j.softx.2017.11.002)

   => Composite Functional: B3LYP <= 

    B3LYP Hyb-GGA Exchange-Correlation Functional

    P. J. Stephens, F. J. Devlin, C. F. Chabalowski, and M. J. Frisch.,  J. Phys. Chem. 98, 11623 (1994) (10.1021/j100096a001)

    Deriv               =              1
    GGA                 =           TRUE
    Meta                =          FALSE

    Exchange Hybrid     =           TRUE
    MP2 Hybrid          =          FALSE

   => Exchange Functionals <=

    0.0800   Slater exchange
    0.7200         Becke 88

   => Exact (HF) Exchange <=

    0.2000               HF 

   => Correlation Functionals <=

    0.1900   Vosko, Wilk & Nusair (VWN5_RPA)
    0.8100   Lee, Yang & Parr

   => LibXC Density Thresholds  <==

    XC_HYB_GGA_XC_B3LYP:  1.00E-15 

   => Molecular Quadrature <=

    Radial Scheme          =       TREUTLER
    Pruning Scheme         =           NONE
    Nuclear Scheme         =       TREUTLER

    Blocking Scheme        =         OCTREE
    BS radius alpha        =              1
    Pruning alpha          =              1
    Radial Points          =             75
    Spherical Points       =            302
    Total Points           =          43003
    Total Blocks           =            420
    Max Points             =            252
    Max Functions          =             36
    Weights Tolerance      =       1.00E-15


  -Total Gradient:
     Atom            X                  Y                   Z
    ------   -----------------  -----------------  -----------------
       1       -0.000000000000    -0.000000000000     0.000000315796
       2        0.000000000000    -0.000000000000     0.000056417660


*** tstop() called on Joses-MacBook-Pro-2.local at Thu Jul 17 11:28:06 2025
Module time:
	user time   =       2.20 seconds =       0.04 minutes
	system time =       1.64 seconds =       0.03 minutes
	total time  =          1 seconds =       0.02 minutes
Total time:
	user time   =     184.09 seconds =       3.07 minutes
	system time =      60.98 seconds =       1.02 minutes
	total time  =         24 seconds =       0.40 minutes

    			-----------------------------------------

    			 OPTKING 3.0: for geometry optimizations 

    			     By R.A. King, Bethel University     

    			        with contributions from          

    			    A.V. Copan, J. Cayton, A. Heide      

    			-----------------------------------------

    
	                            ===> Fragment 1 <== 

	 Z (Atomic Numbers)          Masses                          Geom                  
	      12.000000            23.985042          0.00000000  0.00000000  2.41102968   
	      16.000000            31.972071          0.00000000  0.00000000 -1.80872384   

	 - Coordinate -           - BOHR/RAD -       - ANG/DEG -
	 R(1,2)           =         4.219754           2.232997


	        --- Internal Coordinate Step in ANG or DEG, aJ/ANG or AJ/DEG ---
	-------------------------------------------------------------------------------
	           Coordinate      Previous         Force          Change          New 
	           ----------      --------        ------          ------        ------
	               R(1,2)       2.23300        0.00023        0.00012       2.23312
	-------------------------------------------------------------------------------

	                                 ==> Convergence Check <==                                  
    
	Measures of convergence in internal coordinates in au.
    
	Criteria marked as inactive (o), active & met (*), and active & unmet ( ).

	----------------------------------------------------------------------------------------------
	   Step    Total Energy     Delta E     Max Force     RMS Force      Max Disp      RMS Disp   
	----------------------------------------------------------------------------------------------
	  Convergence Criteria     1.00e-06 *    3.00e-04 *             o    1.20e-03 *             o
	----------------------------------------------------------------------------------------------
	    15    -598.35708954   -1.94e-07 *    2.81e-05 *    2.81e-05 o    2.34e-04 *    2.34e-04 o  ~
	----------------------------------------------------------------------------------------------

Next Geometry in Ang 
	Fragment 1 (Ang)

	   Mg   0.0000000000   0.0000000000   1.2759238468
	    S   0.0000000000   0.0000000000  -0.9571973240


    Final optimized geometry and variables:
    Molecular point group: c2v
    Full point group: C_inf_v

    Geometry (in Angstrom), charge = -1, multiplicity = 2:

    MG           0.000000000000     0.000000000000     1.275861958524
    S            0.000000000000     0.000000000000    -0.957135435734


    Psi4 stopped on: Thursday, 17 July 2025 11:28AM
    Psi4 wall time for execution: 0:00:24.00

*** Psi4 exiting successfully. Buy a developer a beer!
