
    -----------------------------------------------------------------------
          Psi4: An Open-Source Ab Initio Electronic Structure Package
                               Psi4 1.9.1 release

                         Git: Rev {} zzzzzzz 


    D. G. A. Smith, L. A. Burns, A. C. Simmonett, R. M. Parrish,
    M. C. Schieber, R. Galvelis, P. Kraus, H. Kruse, R. Di Remigio,
    A. Alenaizan, A. M. James, S. Lehtola, J. P. Misiewicz, M. Scheurer,
    R. A. Shaw, J. B. Schriber, Y. Xie, Z. L. Glick, D. A. Sirianni,
    J. S. O'Brien, J. M. Waldrop, A. Kumar, E. G. Hohenstein,
    B. P. Pritchard, B. R. Brooks, H. F. Schaefer III, A. Yu. Sokolov,
    K. Patkowski, A. E. DePrince III, U. Bozkaya, R. A. King,
    F. A. Evangelista, J. M. Turney, T. D. Crawford, C. D. Sherrill,
    J. Chem. Phys. 152(18) 184108 (2020). https://doi.org/10.1063/5.0006002

                            Additional Code Authors
    E. T. Seidl, C. L. Janssen, E. F. Valeev, M. L. Leininger,
    J. F. Gonthier, R. M. Richard, H. R. McAlexander, M. Saitow, X. Wang,
    P. Verma, M. H. Lechner, A. Jiang, S. Behnle, A. G. Heide,
    M. F. Herbst, and D. L. Poole

             Previous Authors, Complete List of Code Contributors,
                       and Citations for Specific Modules
    https://github.com/psi4/psi4/blob/master/codemeta.json
    https://github.com/psi4/psi4/graphs/contributors
    http://psicode.org/psi4manual/master/introduction.html#citing-psifour

    -----------------------------------------------------------------------


    Psi4 started on: Thursday, 17 July 2025 10:36AM

    Process ID: 72663
    Host:       Joses-MacBook-Pro-2.local
    PSIDATADIR: /Users/joseantoniorodriguesromero/anaconda3/share/psi4
    Memory:     500.0 MiB
    Threads:    1
    
  ==> Input File <==

--------------------------------------------------------------------------
molecule { 
-1 2
N   0.00000        0.60000        0.00000
Cl   0.00000       -0.60000        0.00000
}

set { 
basis              cc-pvdz
reference          uks
maxiter            500
geom_maxiter       500
DAMPING_PERCENTAGE 1
guess              SAP
}

optimize('b3lyp')
--------------------------------------------------------------------------

Scratch directory: /tmp/
gradient() will perform analytic gradient computation.
   => Libint2 <=

    Primary   basis highest AM E, G, H:  6, 6, 3
    Auxiliary basis highest AM E, G, H:  7, 7, 4
    Onebody   basis highest AM E, G, H:  -, -, -
    Solid Harmonics ordering:            Gaussian

*** tstart() called on Joses-MacBook-Pro-2.local
*** at Thu Jul 17 10:36:23 2025

   => Loading Basis Set <=

    Name: CC-PVDZ
    Role: ORBITAL
    Keyword: BASIS
    atoms 1 entry N          line   168 file /Users/joseantoniorodriguesromero/anaconda3/share/psi4/basis/cc-pvdz.gbs 
    atoms 2 entry CL         line   658 file /Users/joseantoniorodriguesromero/anaconda3/share/psi4/basis/cc-pvdz.gbs 


         ---------------------------------------------------------
                                   SCF
               by Justin Turney, Rob Parrish, Andy Simmonett
                          and Daniel G. A. Smith
                              UKS Reference
                        1 Threads,    500 MiB Core
         ---------------------------------------------------------

  ==> Geometry <==

    Molecular point group: c2v
    Full point group: C_inf_v

    Geometry (in Angstrom), charge = -1, multiplicity = 2:

       Center              X                  Y                   Z               Mass       
    ------------   -----------------  -----------------  -----------------  -----------------
         N            0.000000000000     0.000000000000     0.856870988293    14.003074004430
         CL           0.000000000000     0.000000000000    -0.343129011707    34.968852682000

  Running in c2v symmetry.

  Rotational constants: A = ************  B =      1.17078  C =      1.17078 [cm^-1]
  Rotational constants: A = ************  B =  35099.19293  C =  35099.19293 [MHz]
  Nuclear repulsion =   52.476740058108341

  Charge       = -1
  Multiplicity = 2
  Electrons    = 25
  Nalpha       = 13
  Nbeta        = 12

  ==> Algorithm <==

  SCF Algorithm Type is DF.
  DIIS enabled.
  MOM disabled.
  Fractional occupation disabled.
  Guess Type is SAP.
  Energy threshold   = 1.00e-08
  Density threshold  = 1.00e-08
  Integral threshold = 1.00e-12

  ==> Primary Basis <==

  Basis Set: CC-PVDZ
    Blend: CC-PVDZ
    Number of shells: 14
    Number of basis functions: 32
    Number of Cartesian functions: 34
    Spherical Harmonics?: true
    Max angular momentum: 2

  ==> DFT Potential <==

   => LibXC <=

    Version 6.2.2
    S. Lehtola, C. Steigemann, M. J.T. Oliveira, and M. A.L. Marques.,  SoftwareX 7, 1–5 (2018) (10.1016/j.softx.2017.11.002)

   => Composite Functional: B3LYP <= 

    B3LYP Hyb-GGA Exchange-Correlation Functional

    P. J. Stephens, F. J. Devlin, C. F. Chabalowski, and M. J. Frisch.,  J. Phys. Chem. 98, 11623 (1994) (10.1021/j100096a001)

    Deriv               =              1
    GGA                 =           TRUE
    Meta                =          FALSE

    Exchange Hybrid     =           TRUE
    MP2 Hybrid          =          FALSE

   => Exchange Functionals <=

    0.0800   Slater exchange
    0.7200         Becke 88

   => Exact (HF) Exchange <=

    0.2000               HF 

   => Correlation Functionals <=

    0.1900   Vosko, Wilk & Nusair (VWN5_RPA)
    0.8100   Lee, Yang & Parr

   => LibXC Density Thresholds  <==

    XC_HYB_GGA_XC_B3LYP:  1.00E-15 

   => Molecular Quadrature <=

    Radial Scheme          =       TREUTLER
    Pruning Scheme         =           NONE
    Nuclear Scheme         =       TREUTLER

    Blocking Scheme        =         OCTREE
    BS radius alpha        =              1
    Pruning alpha          =              1
    Radial Points          =             75
    Spherical Points       =            302
    Total Points           =          41002
    Total Blocks           =            366
    Max Points             =            254
    Max Functions          =             32
    Weights Tolerance      =       1.00E-15

   => Loading Basis Set <=

    Name: (CC-PVDZ AUX)
    Role: JKFIT
    Keyword: DF_BASIS_SCF
    atoms 1 entry N          line   171 file /Users/joseantoniorodriguesromero/anaconda3/share/psi4/basis/cc-pvdz-jkfit.gbs 
    atoms 2 entry CL         line   667 file /Users/joseantoniorodriguesromero/anaconda3/share/psi4/basis/cc-pvdz-jkfit.gbs 

  ==> Integral Setup <==

  DFHelper Memory: AOs need 0.002 GiB; user supplied 0.329 GiB. 
  Using in-core AOs.

  ==> MemDFJK: Density-Fitted J/K Matrices <==

    J tasked:                   Yes
    K tasked:                   Yes
    wK tasked:                   No
    OpenMP threads:               1
    Memory [MiB]:               336
    Algorithm:                 Core
    Schwarz Cutoff:           1E-12
    Mask sparsity (%):       0.0000
    Fitting Condition:        1E-10

   => Auxiliary Basis Set <=

  Basis Set: (CC-PVDZ AUX)
    Blend: CC-PVDZ-JKFIT
    Number of shells: 60
    Number of basis functions: 182
    Number of Cartesian functions: 211
    Spherical Harmonics?: true
    Max angular momentum: 3

  Cached 100.0% of DFT collocation blocks in 0.038 [GiB].

  Minimum eigenvalue in the overlap matrix is 8.6587886525E-03.
  Reciprocal condition number of the overlap matrix is 2.7969898349E-03.
    Using symmetric orthogonalization.

  ==> Pre-Iterations <==

  SCF Guess: Superposition of Atomic Potentials (doi:10.1021/acs.jctc.8b01089).

  ==> SAP guess <==

   => Molecular Quadrature <=

    Radial Scheme          =       TREUTLER
    Pruning Scheme         =           NONE
    Nuclear Scheme         =       TREUTLER

    Blocking Scheme        =         OCTREE
    BS radius alpha        =              1
    Pruning alpha          =              1
    Radial Points          =             75
    Spherical Points       =            302
    Total Points           =          41002
    Total Blocks           =            366
    Max Points             =            254
    Max Functions          =             32
    Weights Tolerance      =       1.00E-15

   -------------------------------------------------------
    Irrep   Nso     Nmo     Nalpha   Nbeta   Ndocc  Nsocc
   -------------------------------------------------------
     A1        16      16       7       7       7       0
     A2         2       2       0       0       0       0
     B1         7       7       3       3       3       0
     B2         7       7       3       2       2       1
   -------------------------------------------------------
    Total      32      32      13      12      12       1
   -------------------------------------------------------

  ==> Iterations <==

                           Total Energy        Delta E     RMS |[F,P]|

    Occupation by irrep:
             A1    A2    B1    B2 
    DOCC [     8,    0,    2,    2 ]
    SOCC [     0,    0,    0,    1 ]
    NA   [     8,    0,    2,    3 ]
    NB   [     8,    0,    2,    2 ]

   @DF-UKS iter   1:  -513.72990442921832   -5.13730e+02   6.93988e-02 DIIS/ADIIS
    Occupation by irrep:
             A1    A2    B1    B2 
    DOCC [     7,    0,    3,    2 ]
    SOCC [     0,    0,    0,    1 ]
    NA   [     7,    0,    3,    3 ]
    NB   [     7,    0,    3,    2 ]

   @DF-UKS iter   2:  -512.08273260564863    1.64717e+00   9.73799e-02 DIIS/ADIIS/DAMP=1%
   @DF-UKS iter   3:  -514.36583533452483   -2.28310e+00   2.46684e-02 DIIS/ADIIS/DAMP=1%
   @DF-UKS iter   4:  -514.48537510852736   -1.19540e-01   4.75673e-03 DIIS/ADIIS/DAMP=1%
   @DF-UKS iter   5:  -514.51478456584107   -2.94095e-02   7.84463e-04 DIIS/ADIIS/DAMP=1%
   @DF-UKS iter   6:  -514.50933470385019    5.44986e-03   1.58363e-04 DIIS/ADIIS/DAMP=1%
   @DF-UKS iter   7:  -514.51045390973172   -1.11921e-03   2.98210e-05 DIIS/DAMP=1%
   @DF-UKS iter   8:  -514.51032166689686    1.32243e-04   6.92285e-06 DIIS/DAMP=1%
   @DF-UKS iter   9:  -514.51032061645810    1.05044e-06   7.55974e-07 DIIS/DAMP=1%
   @DF-UKS iter  10:  -514.51031846552758    2.15093e-06   1.21236e-07 DIIS/DAMP=1%
   @DF-UKS iter  11:  -514.51031828299131    1.82536e-07   2.01332e-08 DIIS/DAMP=1%
   @DF-UKS iter  12:  -514.51031838027188   -9.72806e-08   1.34143e-09 DIIS/DAMP=1%
   @DF-UKS iter  13:  -514.51031837184667    8.42522e-09   3.03855e-10 DIIS/DAMP=1%
  Energy and wave function converged.


  ==> Post-Iterations <==

   Electrons on quadrature grid:
      Nalpha   =   12.9999995148 ; deviation = -4.852e-07
      Nbeta    =   11.9999996293 ; deviation = -3.707e-07
      Ntotal   =   24.9999991441 ; deviation = -8.559e-07 

   @Spin Contamination Metric:   2.115887628E-03
   @S^2 Expected:                7.500000000E-01
   @S^2 Observed:                7.521158876E-01
   @S   Expected:                5.000000000E-01
   @S   Observed:                5.000000000E-01

    Orbital Energies [Eh]
    ---------------------

    Alpha Occupied:                                                       

       1A1  -101.288571     2A1   -13.901016     3A1    -9.214267  
       4A1    -6.975952     1B2    -6.969962     1B1    -6.963465  
       5A1    -0.813833     6A1    -0.322712     2B2    -0.191712  
       2B1    -0.161953     7A1    -0.026743     3B2     0.154225  
       3B1     0.190269  

    Alpha Virtual:                                                        

       8A1     0.434556     4B2     0.751290     4B1     0.768332  
       9A1     0.814851    10A1     0.942191     1A2     0.966199  
      11A1     0.966624    12A1     1.026099     5B2     1.049470  
       5B1     1.074034     6B2     1.153372     6B1     1.184283  
      13A1     1.565498    14A1     2.047858     2A2     2.136406  
      15A1     2.137512     7B2     2.572401     7B1     2.604589  
      16A1     3.077591  

    Beta Occupied:                                                        

       1A1  -101.287353     2A1   -13.888064     3A1    -9.213058  
       4A1    -6.975410     1B2    -6.965574     1B1    -6.962814  
       5A1    -0.795899     6A1    -0.293777     2B1    -0.155854  
       2B2    -0.147433     7A1    -0.003127     3B1     0.202777  

    Beta Virtual:                                                         

       3B2     0.290156     8A1     0.442476     4B2     0.764536  
       4B1     0.770252     9A1     0.822394    10A1     0.953097  
       1A2     0.981074    11A1     0.981711    12A1     1.034749  
       5B1     1.080352     5B2     1.089575     6B1     1.191769  
       6B2     1.208905    13A1     1.584412    14A1     2.068649  
       2A2     2.180458    15A1     2.184137     7B1     2.610490  
       7B2     2.612897    16A1     3.091684  

    Final Occupation by Irrep:
             A1    A2    B1    B2 
    DOCC [     7,    0,    3,    2 ]
    SOCC [     0,    0,    0,    1 ]
    NA   [     7,    0,    3,    3 ]
    NB   [     7,    0,    3,    2 ]

  @DF-UKS Final Energy:  -514.51031837184667

   => Energetics <=

    Nuclear Repulsion Energy =             52.4767400581083407
    One-Electron Energy =                -820.4872399571777351
    Two-Electron Energy =                 282.3192786487640547
    DFT Exchange-Correlation Energy =     -28.8190971215413008
    Empirical Dispersion Energy =           0.0000000000000000
    VV10 Nonlocal Energy =                  0.0000000000000000
    Total Energy =                       -514.5103183718466653

  UHF NO Occupations:
  HONO-2 :    7 A1 1.9996518
  HONO-1 :    2 B2 1.9994440
  HONO-0 :    3 B2 1.0000000
  LUNO+0 :    4 B2 0.0005560
  LUNO+1 :    8 A1 0.0003482
  LUNO+2 :    9 A1 0.0000966
  LUNO+3 :    4 B1 0.0000353


Computation Completed


Properties will be evaluated at   0.000000,   0.000000,   0.000000 [a0]

Properties computed using the SCF density matrix


 Multipole Moments:

 ------------------------------------------------------------------------------------
     Multipole            Electronic (a.u.)      Nuclear  (a.u.)        Total (a.u.)
 ------------------------------------------------------------------------------------

 L = 1.  Multiply by 2.5417464519 to convert [e a0] to [Debye]
 Dipole X            :          0.0000000            0.0000000            0.0000000
 Dipole Y            :          0.0000000            0.0000000            0.0000000
 Dipole Z            :         -1.3948085            0.3116229           -1.0831856
 Magnitude           :                                                    1.0831856

 ------------------------------------------------------------------------------------

*** tstop() called on Joses-MacBook-Pro-2.local at Thu Jul 17 10:36:25 2025
Module time:
	user time   =      12.17 seconds =       0.20 minutes
	system time =       7.75 seconds =       0.13 minutes
	total time  =          2 seconds =       0.03 minutes
Total time:
	user time   =      12.17 seconds =       0.20 minutes
	system time =       7.75 seconds =       0.13 minutes
	total time  =          2 seconds =       0.03 minutes

*** tstart() called on Joses-MacBook-Pro-2.local
*** at Thu Jul 17 10:36:25 2025


         ------------------------------------------------------------
                                   SCF GRAD                          
                          Rob Parrish, Justin Turney,                
                       Andy Simmonett, and Alex Sokolov              
         ------------------------------------------------------------

  ==> Geometry <==

    Molecular point group: c2v
    Full point group: C_inf_v

    Geometry (in Angstrom), charge = -1, multiplicity = 2:

       Center              X                  Y                   Z               Mass       
    ------------   -----------------  -----------------  -----------------  -----------------
         N            0.000000000000     0.000000000000     0.856870988293    14.003074004430
         CL           0.000000000000     0.000000000000    -0.343129011707    34.968852682000

  Nuclear repulsion =   52.476740058108341

  ==> Basis Set <==

  Basis Set: CC-PVDZ
    Blend: CC-PVDZ
    Number of shells: 14
    Number of basis functions: 32
    Number of Cartesian functions: 34
    Spherical Harmonics?: true
    Max angular momentum: 2

  ==> DFJKGrad: Density-Fitted SCF Gradients <==

    Gradient:                    1
    J tasked:                  Yes
    K tasked:                  Yes
    wK tasked:                  No
    OpenMP threads:              1
    Integrals threads:           1
    Memory [MiB]:              375
    Schwarz Cutoff:          1E-12
    Fitting Condition:       1E-10

   => Auxiliary Basis Set <=

  Basis Set: (CC-PVDZ AUX)
    Blend: CC-PVDZ-JKFIT
    Number of shells: 60
    Number of basis functions: 182
    Number of Cartesian functions: 211
    Spherical Harmonics?: true
    Max angular momentum: 3

  ==> DFT Potential <==

   => LibXC <=

    Version 6.2.2
    S. Lehtola, C. Steigemann, M. J.T. Oliveira, and M. A.L. Marques.,  SoftwareX 7, 1–5 (2018) (10.1016/j.softx.2017.11.002)

   => Composite Functional: B3LYP <= 

    B3LYP Hyb-GGA Exchange-Correlation Functional

    P. J. Stephens, F. J. Devlin, C. F. Chabalowski, and M. J. Frisch.,  J. Phys. Chem. 98, 11623 (1994) (10.1021/j100096a001)

    Deriv               =              1
    GGA                 =           TRUE
    Meta                =          FALSE

    Exchange Hybrid     =           TRUE
    MP2 Hybrid          =          FALSE

   => Exchange Functionals <=

    0.0800   Slater exchange
    0.7200         Becke 88

   => Exact (HF) Exchange <=

    0.2000               HF 

   => Correlation Functionals <=

    0.1900   Vosko, Wilk & Nusair (VWN5_RPA)
    0.8100   Lee, Yang & Parr

   => LibXC Density Thresholds  <==

    XC_HYB_GGA_XC_B3LYP:  1.00E-15 

   => Molecular Quadrature <=

    Radial Scheme          =       TREUTLER
    Pruning Scheme         =           NONE
    Nuclear Scheme         =       TREUTLER

    Blocking Scheme        =         OCTREE
    BS radius alpha        =              1
    Pruning alpha          =              1
    Radial Points          =             75
    Spherical Points       =            302
    Total Points           =          41002
    Total Blocks           =            366
    Max Points             =            254
    Max Functions          =             32
    Weights Tolerance      =       1.00E-15


  -Total Gradient:
     Atom            X                  Y                   Z
    ------   -----------------  -----------------  -----------------
       1        0.000000000000     0.000000000000    -1.026231258810
       2        0.000000000000     0.000000000000     1.026215226267


*** tstop() called on Joses-MacBook-Pro-2.local at Thu Jul 17 10:36:25 2025
Module time:
	user time   =       0.86 seconds =       0.01 minutes
	system time =       1.70 seconds =       0.03 minutes
	total time  =          0 seconds =       0.00 minutes
Total time:
	user time   =      13.04 seconds =       0.22 minutes
	system time =       9.46 seconds =       0.16 minutes
	total time  =          2 seconds =       0.03 minutes

    			-----------------------------------------

    			 OPTKING 3.0: for geometry optimizations 

    			     By R.A. King, Bethel University     

    			        with contributions from          

    			    A.V. Copan, J. Cayton, A. Heide      

    			-----------------------------------------

    
	                            ===> Fragment 1 <== 

	 Z (Atomic Numbers)          Masses                          Geom                  
	       7.000000            14.003074          0.00000000  0.00000000  1.61925149   
	      17.000000            34.968853          0.00000000  0.00000000 -0.64841986   

	 - Coordinate -           - BOHR/RAD -       - ANG/DEG -
	 R(1,2)           =         2.267671           1.200000


	        --- Internal Coordinate Step in ANG or DEG, aJ/ANG or AJ/DEG ---
	-------------------------------------------------------------------------------
	           Coordinate      Previous         Force          Change          New 
	           ----------      --------        ------          ------        ------
	               R(1,2)       1.20000        8.45477        0.12285       1.32285
	-------------------------------------------------------------------------------

	                                 ==> Convergence Check <==                                  
    
	Measures of convergence in internal coordinates in au.
    
	Criteria marked as inactive (o), active & met (*), and active & unmet ( ).

	----------------------------------------------------------------------------------------------
	   Step    Total Energy     Delta E     Max Force     RMS Force      Max Disp      RMS Disp   
	----------------------------------------------------------------------------------------------
	  Convergence Criteria     1.00e-06 *    3.00e-04 *             o    1.20e-03 *             o
	----------------------------------------------------------------------------------------------
	     1    -514.51031837   -5.15e+02      1.03e+00      1.03e+00 o    2.32e-01      2.32e-01 o  ~
	----------------------------------------------------------------------------------------------

Next Geometry in Ang 
	Fragment 1 (Ang)

	    N   0.0000000000   0.0000000000   0.9182960466
	   Cl   0.0000000000   0.0000000000  -0.4045540700


    Structure for next step:
    Molecular point group: c2v
    Full point group: C_inf_v

    Geometry (in Angstrom), charge = -1, multiplicity = 2:

    N            0.000000000000     0.000000000000     0.944593238974
    CL           0.000000000000     0.000000000000    -0.378256877620


Scratch directory: /tmp/
gradient() will perform analytic gradient computation.
   => Libint2 <=

    Primary   basis highest AM E, G, H:  6, 6, 3
    Auxiliary basis highest AM E, G, H:  7, 7, 4
    Onebody   basis highest AM E, G, H:  -, -, -
    Solid Harmonics ordering:            Gaussian

*** tstart() called on Joses-MacBook-Pro-2.local
*** at Thu Jul 17 10:36:26 2025

   => Loading Basis Set <=

    Name: CC-PVDZ
    Role: ORBITAL
    Keyword: BASIS
    atoms 1 entry N          line   168 file /Users/joseantoniorodriguesromero/anaconda3/share/psi4/basis/cc-pvdz.gbs 
    atoms 2 entry CL         line   658 file /Users/joseantoniorodriguesromero/anaconda3/share/psi4/basis/cc-pvdz.gbs 


         ---------------------------------------------------------
                                   SCF
               by Justin Turney, Rob Parrish, Andy Simmonett
                          and Daniel G. A. Smith
                              UKS Reference
                        1 Threads,    500 MiB Core
         ---------------------------------------------------------

  ==> Geometry <==

    Molecular point group: c2v
    Full point group: C_inf_v

    Geometry (in Angstrom), charge = -1, multiplicity = 2:

       Center              X                  Y                   Z               Mass       
    ------------   -----------------  -----------------  -----------------  -----------------
         N            0.000000000000     0.000000000000     0.944593238974    14.003074004430
         CL           0.000000000000     0.000000000000    -0.378256877620    34.968852682000

  Running in c2v symmetry.

  Rotational constants: A = ************  B =      0.96342  C =      0.96342 [cm^-1]
  Rotational constants: A = ************  B =  28882.73680  C =  28882.73680 [MHz]
  Nuclear repulsion =   47.603343175329577

  Charge       = -1
  Multiplicity = 2
  Electrons    = 25
  Nalpha       = 13
  Nbeta        = 12

  ==> Algorithm <==

  SCF Algorithm Type is DF.
  DIIS enabled.
  MOM disabled.
  Fractional occupation disabled.
  Guess Type is READ.
  Energy threshold   = 1.00e-08
  Density threshold  = 1.00e-08
  Integral threshold = 1.00e-12

  ==> Primary Basis <==

  Basis Set: CC-PVDZ
    Blend: CC-PVDZ
    Number of shells: 14
    Number of basis functions: 32
    Number of Cartesian functions: 34
    Spherical Harmonics?: true
    Max angular momentum: 2

  ==> DFT Potential <==

   => LibXC <=

    Version 6.2.2
    S. Lehtola, C. Steigemann, M. J.T. Oliveira, and M. A.L. Marques.,  SoftwareX 7, 1–5 (2018) (10.1016/j.softx.2017.11.002)

   => Composite Functional: B3LYP <= 

    B3LYP Hyb-GGA Exchange-Correlation Functional

    P. J. Stephens, F. J. Devlin, C. F. Chabalowski, and M. J. Frisch.,  J. Phys. Chem. 98, 11623 (1994) (10.1021/j100096a001)

    Deriv               =              1
    GGA                 =           TRUE
    Meta                =          FALSE

    Exchange Hybrid     =           TRUE
    MP2 Hybrid          =          FALSE

   => Exchange Functionals <=

    0.0800   Slater exchange
    0.7200         Becke 88

   => Exact (HF) Exchange <=

    0.2000               HF 

   => Correlation Functionals <=

    0.1900   Vosko, Wilk & Nusair (VWN5_RPA)
    0.8100   Lee, Yang & Parr

   => LibXC Density Thresholds  <==

    XC_HYB_GGA_XC_B3LYP:  1.00E-15 

   => Molecular Quadrature <=

    Radial Scheme          =       TREUTLER
    Pruning Scheme         =           NONE
    Nuclear Scheme         =       TREUTLER

    Blocking Scheme        =         OCTREE
    BS radius alpha        =              1
    Pruning alpha          =              1
    Radial Points          =             75
    Spherical Points       =            302
    Total Points           =          41037
    Total Blocks           =            367
    Max Points             =            256
    Max Functions          =             32
    Weights Tolerance      =       1.00E-15

   => Loading Basis Set <=

    Name: (CC-PVDZ AUX)
    Role: JKFIT
    Keyword: DF_BASIS_SCF
    atoms 1 entry N          line   171 file /Users/joseantoniorodriguesromero/anaconda3/share/psi4/basis/cc-pvdz-jkfit.gbs 
    atoms 2 entry CL         line   667 file /Users/joseantoniorodriguesromero/anaconda3/share/psi4/basis/cc-pvdz-jkfit.gbs 

   => Loading Basis Set <=

    Name: CC-PVDZ
    Role: ORBITAL
    Keyword: BASIS
    atoms 1 entry N          line   168 file /Users/joseantoniorodriguesromero/anaconda3/share/psi4/basis/cc-pvdz.gbs 
    atoms 2 entry CL         line   658 file /Users/joseantoniorodriguesromero/anaconda3/share/psi4/basis/cc-pvdz.gbs 

  Reading orbitals from file /tmp/doublet_NCl.default.72663.180.npy, no projection.

  ==> Integral Setup <==

  DFHelper Memory: AOs need 0.002 GiB; user supplied 0.329 GiB. 
  Using in-core AOs.

  ==> MemDFJK: Density-Fitted J/K Matrices <==

    J tasked:                   Yes
    K tasked:                   Yes
    wK tasked:                   No
    OpenMP threads:               1
    Memory [MiB]:               336
    Algorithm:                 Core
    Schwarz Cutoff:           1E-12
    Mask sparsity (%):       0.0000
    Fitting Condition:        1E-10

   => Auxiliary Basis Set <=

  Basis Set: (CC-PVDZ AUX)
    Blend: CC-PVDZ-JKFIT
    Number of shells: 60
    Number of basis functions: 182
    Number of Cartesian functions: 211
    Spherical Harmonics?: true
    Max angular momentum: 3

  Cached 100.0% of DFT collocation blocks in 0.038 [GiB].

  Minimum eigenvalue in the overlap matrix is 1.1949849746E-02.
  Reciprocal condition number of the overlap matrix is 3.9513598007E-03.
    Using symmetric orthogonalization.

  ==> Pre-Iterations <==

  SCF Guess: Orbitals guess was supplied from a previous computation.

   -------------------------------------------------------
    Irrep   Nso     Nmo     Nalpha   Nbeta   Ndocc  Nsocc
   -------------------------------------------------------
     A1        16      16       7       7       7       0
     A2         2       2       0       0       0       0
     B1         7       7       3       3       3       0
     B2         7       7       3       2       2       1
   -------------------------------------------------------
    Total      32      32      13      12      12       1
   -------------------------------------------------------

  ==> Iterations <==

                           Total Energy        Delta E     RMS |[F,P]|

   @DF-UKS iter   0:  -514.60057228251321   -5.14601e+02   3.73624e-02 
   @DF-UKS iter   1:  -514.68244615238177   -8.18739e-02   2.71443e-03 DIIS/ADIIS
   @DF-UKS iter   2:  -514.68374901178720   -1.30286e-03   1.32801e-03 DIIS/ADIIS/DAMP=1%
   @DF-UKS iter   3:  -514.68443227952230   -6.83268e-04   1.00627e-04 DIIS/ADIIS/DAMP=1%
   @DF-UKS iter   4:  -514.68402057886556    4.11701e-04   9.22785e-05 DIIS/DAMP=1%
   @DF-UKS iter   5:  -514.68408202427736   -6.14454e-05   1.65247e-05 DIIS/DAMP=1%
   @DF-UKS iter   6:  -514.68406699254456    1.50317e-05   2.70034e-06 DIIS/DAMP=1%
   @DF-UKS iter   7:  -514.68405835178260    8.64076e-06   1.02926e-06 DIIS/DAMP=1%
   @DF-UKS iter   8:  -514.68406332772599   -4.97594e-06   2.08223e-07 DIIS/DAMP=1%
   @DF-UKS iter   9:  -514.68406199574360    1.33198e-06   2.37241e-08 DIIS/DAMP=1%
   @DF-UKS iter  10:  -514.68406218614757   -1.90404e-07   1.71124e-09 DIIS/DAMP=1%
   @DF-UKS iter  11:  -514.68406217581889    1.03287e-08   2.22679e-10 DIIS/DAMP=1%
   @DF-UKS iter  12:  -514.68406217595361   -1.34719e-10   3.11746e-11 DIIS/DAMP=1%
  Energy and wave function converged.


  ==> Post-Iterations <==

   Electrons on quadrature grid:
      Nalpha   =   13.0000002037 ; deviation = 2.037e-07
      Nbeta    =   12.0000003533 ; deviation = 3.533e-07
      Ntotal   =   25.0000005570 ; deviation = 5.570e-07 

   @Spin Contamination Metric:   2.263865672E-03
   @S^2 Expected:                7.500000000E-01
   @S^2 Observed:                7.522638657E-01
   @S   Expected:                5.000000000E-01
   @S   Observed:                5.000000000E-01

    Orbital Energies [Eh]
    ---------------------

    Alpha Occupied:                                                       

       1A1  -101.288134     2A1   -13.924808     3A1    -9.207825  
       4A1    -6.968848     1B2    -6.964326     1B1    -6.958870  
       5A1    -0.751773     6A1    -0.334886     2B2    -0.159947  
       2B1    -0.133089     7A1    -0.036329     3B2     0.133322  
       3B1     0.172353  

    Alpha Virtual:                                                        

       8A1     0.416498     4B2     0.761269     4B1     0.775290  
       9A1     0.814080    10A1     0.916405     1A2     0.973811  
      11A1     0.973881    12A1     0.996496     5B2     1.068087  
       6B2     1.074206     5B1     1.091153     6B1     1.106967  
      13A1     1.540629    14A1     1.765724     2A2     2.126549  
      15A1     2.126990     7B2     2.458877     7B1     2.494324  
      16A1     3.012454  

    Beta Occupied:                                                        

       1A1  -101.287062     2A1   -13.910467     3A1    -9.206775  
       4A1    -6.968447     1B2    -6.960469     1B1    -6.958286  
       5A1    -0.733165     6A1    -0.306891     2B1    -0.127671  
       2B2    -0.119502     7A1    -0.011291     3B1     0.186080  

    Beta Virtual:                                                         

       3B2     0.279497     8A1     0.424882     4B2     0.771039  
       4B1     0.776584     9A1     0.820525    10A1     0.925307  
       1A2     0.985624    11A1     0.986058    12A1     1.007220  
       5B1     1.094524     5B2     1.097877     6B1     1.117785  
       6B2     1.143332    13A1     1.561725    14A1     1.783558  
       2A2     2.176818    15A1     2.181585     7B1     2.501091  
       7B2     2.505593    16A1     3.030777  

    Final Occupation by Irrep:
             A1    A2    B1    B2 
    DOCC [     7,    0,    3,    2 ]
    SOCC [     0,    0,    0,    1 ]
    NA   [     7,    0,    3,    3 ]
    NB   [     7,    0,    3,    2 ]

  @DF-UKS Final Energy:  -514.68406217595361

   => Energetics <=

    Nuclear Repulsion Energy =             47.6033431753295773
    One-Electron Energy =                -811.3007687851697938
    Two-Electron Energy =                 277.7312584761904759
    DFT Exchange-Correlation Energy =     -28.7178950423037946
    Empirical Dispersion Energy =           0.0000000000000000
    VV10 Nonlocal Energy =                  0.0000000000000000
    Total Energy =                       -514.6840621759536134

  UHF NO Occupations:
  HONO-2 :    7 A1 1.9995481
  HONO-1 :    2 B2 1.9994623
  HONO-0 :    3 B2 1.0000000
  LUNO+0 :    4 B2 0.0005377
  LUNO+1 :    8 A1 0.0004519
  LUNO+2 :    9 A1 0.0000666
  LUNO+3 :    4 B1 0.0000480


Computation Completed


Properties will be evaluated at   0.000000,   0.000000,   0.000000 [a0]

Properties computed using the SCF density matrix


 Multipole Moments:

 ------------------------------------------------------------------------------------
     Multipole            Electronic (a.u.)      Nuclear  (a.u.)        Total (a.u.)
 ------------------------------------------------------------------------------------

 L = 1.  Multiply by 2.5417464519 to convert [e a0] to [Debye]
 Dipole X            :          0.0000000            0.0000000            0.0000000
 Dipole Y            :          0.0000000            0.0000000            0.0000000
 Dipole Z            :         -1.5923177            0.3435253           -1.2487924
 Magnitude           :                                                    1.2487924

 ------------------------------------------------------------------------------------

*** tstop() called on Joses-MacBook-Pro-2.local at Thu Jul 17 10:36:27 2025
Module time:
	user time   =       8.78 seconds =       0.15 minutes
	system time =       4.26 seconds =       0.07 minutes
	total time  =          1 seconds =       0.02 minutes
Total time:
	user time   =      21.86 seconds =       0.36 minutes
	system time =      13.95 seconds =       0.23 minutes
	total time  =          4 seconds =       0.07 minutes

*** tstart() called on Joses-MacBook-Pro-2.local
*** at Thu Jul 17 10:36:27 2025


         ------------------------------------------------------------
                                   SCF GRAD                          
                          Rob Parrish, Justin Turney,                
                       Andy Simmonett, and Alex Sokolov              
         ------------------------------------------------------------

  ==> Geometry <==

    Molecular point group: c2v
    Full point group: C_inf_v

    Geometry (in Angstrom), charge = -1, multiplicity = 2:

       Center              X                  Y                   Z               Mass       
    ------------   -----------------  -----------------  -----------------  -----------------
         N            0.000000000000     0.000000000000     0.944593238974    14.003074004430
         CL           0.000000000000     0.000000000000    -0.378256877620    34.968852682000

  Nuclear repulsion =   47.603343175329577

  ==> Basis Set <==

  Basis Set: CC-PVDZ
    Blend: CC-PVDZ
    Number of shells: 14
    Number of basis functions: 32
    Number of Cartesian functions: 34
    Spherical Harmonics?: true
    Max angular momentum: 2

  ==> DFJKGrad: Density-Fitted SCF Gradients <==

    Gradient:                    1
    J tasked:                  Yes
    K tasked:                  Yes
    wK tasked:                  No
    OpenMP threads:              1
    Integrals threads:           1
    Memory [MiB]:              375
    Schwarz Cutoff:          1E-12
    Fitting Condition:       1E-10

   => Auxiliary Basis Set <=

  Basis Set: (CC-PVDZ AUX)
    Blend: CC-PVDZ-JKFIT
    Number of shells: 60
    Number of basis functions: 182
    Number of Cartesian functions: 211
    Spherical Harmonics?: true
    Max angular momentum: 3

  ==> DFT Potential <==

   => LibXC <=

    Version 6.2.2
    S. Lehtola, C. Steigemann, M. J.T. Oliveira, and M. A.L. Marques.,  SoftwareX 7, 1–5 (2018) (10.1016/j.softx.2017.11.002)

   => Composite Functional: B3LYP <= 

    B3LYP Hyb-GGA Exchange-Correlation Functional

    P. J. Stephens, F. J. Devlin, C. F. Chabalowski, and M. J. Frisch.,  J. Phys. Chem. 98, 11623 (1994) (10.1021/j100096a001)

    Deriv               =              1
    GGA                 =           TRUE
    Meta                =          FALSE

    Exchange Hybrid     =           TRUE
    MP2 Hybrid          =          FALSE

   => Exchange Functionals <=

    0.0800   Slater exchange
    0.7200         Becke 88

   => Exact (HF) Exchange <=

    0.2000               HF 

   => Correlation Functionals <=

    0.1900   Vosko, Wilk & Nusair (VWN5_RPA)
    0.8100   Lee, Yang & Parr

   => LibXC Density Thresholds  <==

    XC_HYB_GGA_XC_B3LYP:  1.00E-15 

   => Molecular Quadrature <=

    Radial Scheme          =       TREUTLER
    Pruning Scheme         =           NONE
    Nuclear Scheme         =       TREUTLER

    Blocking Scheme        =         OCTREE
    BS radius alpha        =              1
    Pruning alpha          =              1
    Radial Points          =             75
    Spherical Points       =            302
    Total Points           =          41037
    Total Blocks           =            367
    Max Points             =            256
    Max Functions          =             32
    Weights Tolerance      =       1.00E-15


  -Total Gradient:
     Atom            X                  Y                   Z
    ------   -----------------  -----------------  -----------------
       1        0.000000000000    -0.000000000000    -0.525108115438
       2        0.000000000000    -0.000000000000     0.525086826895


*** tstop() called on Joses-MacBook-Pro-2.local at Thu Jul 17 10:36:27 2025
Module time:
	user time   =       0.67 seconds =       0.01 minutes
	system time =       1.55 seconds =       0.03 minutes
	total time  =          0 seconds =       0.00 minutes
Total time:
	user time   =      22.53 seconds =       0.38 minutes
	system time =      15.51 seconds =       0.26 minutes
	total time  =          4 seconds =       0.07 minutes

    			-----------------------------------------

    			 OPTKING 3.0: for geometry optimizations 

    			     By R.A. King, Bethel University     

    			        with contributions from          

    			    A.V. Copan, J. Cayton, A. Heide      

    			-----------------------------------------

    
	                            ===> Fragment 1 <== 

	 Z (Atomic Numbers)          Masses                          Geom                  
	       7.000000            14.003074          0.00000000  0.00000000  1.78502252   
	      17.000000            34.968853          0.00000000  0.00000000 -0.71480190   

	 - Coordinate -           - BOHR/RAD -       - ANG/DEG -
	 R(1,2)           =         2.499824           1.322850


	        --- Internal Coordinate Step in ANG or DEG, aJ/ANG or AJ/DEG ---
	-------------------------------------------------------------------------------
	           Coordinate      Previous         Force          Change          New 
	           ----------      --------        ------          ------        ------
	               R(1,2)       1.32285        4.32613        0.12190       1.44475
	-------------------------------------------------------------------------------

	                                 ==> Convergence Check <==                                  
    
	Measures of convergence in internal coordinates in au.
    
	Criteria marked as inactive (o), active & met (*), and active & unmet ( ).

	----------------------------------------------------------------------------------------------
	   Step    Total Energy     Delta E     Max Force     RMS Force      Max Disp      RMS Disp   
	----------------------------------------------------------------------------------------------
	  Convergence Criteria     1.00e-06 *    3.00e-04 *             o    1.20e-03 *             o
	----------------------------------------------------------------------------------------------
	     2    -514.68406218   -1.74e-01      5.25e-01      5.25e-01 o    2.30e-01      2.30e-01 o  ~
	----------------------------------------------------------------------------------------------

Next Geometry in Ang 
	Fragment 1 (Ang)

	    N   0.0000000000   0.0000000000   1.0055413958
	   Cl   0.0000000000   0.0000000000  -0.4392050345


    Structure for next step:
    Molecular point group: c2v
    Full point group: C_inf_v

    Geometry (in Angstrom), charge = -1, multiplicity = 2:

    N            0.000000000000     0.000000000000     1.031634417975
    CL           0.000000000000     0.000000000000    -0.413112012333


Scratch directory: /tmp/
gradient() will perform analytic gradient computation.
   => Libint2 <=

    Primary   basis highest AM E, G, H:  6, 6, 3
    Auxiliary basis highest AM E, G, H:  7, 7, 4
    Onebody   basis highest AM E, G, H:  -, -, -
    Solid Harmonics ordering:            Gaussian

*** tstart() called on Joses-MacBook-Pro-2.local
*** at Thu Jul 17 10:36:27 2025

   => Loading Basis Set <=

    Name: CC-PVDZ
    Role: ORBITAL
    Keyword: BASIS
    atoms 1 entry N          line   168 file /Users/joseantoniorodriguesromero/anaconda3/share/psi4/basis/cc-pvdz.gbs 
    atoms 2 entry CL         line   658 file /Users/joseantoniorodriguesromero/anaconda3/share/psi4/basis/cc-pvdz.gbs 


         ---------------------------------------------------------
                                   SCF
               by Justin Turney, Rob Parrish, Andy Simmonett
                          and Daniel G. A. Smith
                              UKS Reference
                        1 Threads,    500 MiB Core
         ---------------------------------------------------------

  ==> Geometry <==

    Molecular point group: c2v
    Full point group: C_inf_v

    Geometry (in Angstrom), charge = -1, multiplicity = 2:

       Center              X                  Y                   Z               Mass       
    ------------   -----------------  -----------------  -----------------  -----------------
         N            0.000000000000     0.000000000000     1.031634417975    14.003074004430
         CL           0.000000000000     0.000000000000    -0.413112012333    34.968852682000

  Running in c2v symmetry.

  Rotational constants: A = ************  B =      0.80771  C =      0.80771 [cm^-1]
  Rotational constants: A = ************  B =  24214.54776  C =  24214.54776 [MHz]
  Nuclear repulsion =   43.586948372891378

  Charge       = -1
  Multiplicity = 2
  Electrons    = 25
  Nalpha       = 13
  Nbeta        = 12

  ==> Algorithm <==

  SCF Algorithm Type is DF.
  DIIS enabled.
  MOM disabled.
  Fractional occupation disabled.
  Guess Type is READ.
  Energy threshold   = 1.00e-08
  Density threshold  = 1.00e-08
  Integral threshold = 1.00e-12

  ==> Primary Basis <==

  Basis Set: CC-PVDZ
    Blend: CC-PVDZ
    Number of shells: 14
    Number of basis functions: 32
    Number of Cartesian functions: 34
    Spherical Harmonics?: true
    Max angular momentum: 2

  ==> DFT Potential <==

   => LibXC <=

    Version 6.2.2
    S. Lehtola, C. Steigemann, M. J.T. Oliveira, and M. A.L. Marques.,  SoftwareX 7, 1–5 (2018) (10.1016/j.softx.2017.11.002)

   => Composite Functional: B3LYP <= 

    B3LYP Hyb-GGA Exchange-Correlation Functional

    P. J. Stephens, F. J. Devlin, C. F. Chabalowski, and M. J. Frisch.,  J. Phys. Chem. 98, 11623 (1994) (10.1021/j100096a001)

    Deriv               =              1
    GGA                 =           TRUE
    Meta                =          FALSE

    Exchange Hybrid     =           TRUE
    MP2 Hybrid          =          FALSE

   => Exchange Functionals <=

    0.0800   Slater exchange
    0.7200         Becke 88

   => Exact (HF) Exchange <=

    0.2000               HF 

   => Correlation Functionals <=

    0.1900   Vosko, Wilk & Nusair (VWN5_RPA)
    0.8100   Lee, Yang & Parr

   => LibXC Density Thresholds  <==

    XC_HYB_GGA_XC_B3LYP:  1.00E-15 

   => Molecular Quadrature <=

    Radial Scheme          =       TREUTLER
    Pruning Scheme         =           NONE
    Nuclear Scheme         =       TREUTLER

    Blocking Scheme        =         OCTREE
    BS radius alpha        =              1
    Pruning alpha          =              1
    Radial Points          =             75
    Spherical Points       =            302
    Total Points           =          41059
    Total Blocks           =            367
    Max Points             =            256
    Max Functions          =             32
    Weights Tolerance      =       1.00E-15

   => Loading Basis Set <=

    Name: (CC-PVDZ AUX)
    Role: JKFIT
    Keyword: DF_BASIS_SCF
    atoms 1 entry N          line   171 file /Users/joseantoniorodriguesromero/anaconda3/share/psi4/basis/cc-pvdz-jkfit.gbs 
    atoms 2 entry CL         line   667 file /Users/joseantoniorodriguesromero/anaconda3/share/psi4/basis/cc-pvdz-jkfit.gbs 

   => Loading Basis Set <=

    Name: CC-PVDZ
    Role: ORBITAL
    Keyword: BASIS
    atoms 1 entry N          line   168 file /Users/joseantoniorodriguesromero/anaconda3/share/psi4/basis/cc-pvdz.gbs 
    atoms 2 entry CL         line   658 file /Users/joseantoniorodriguesromero/anaconda3/share/psi4/basis/cc-pvdz.gbs 

  Reading orbitals from file /tmp/doublet_NCl.default.72663.180.npy, no projection.

  ==> Integral Setup <==

  DFHelper Memory: AOs need 0.002 GiB; user supplied 0.329 GiB. 
  Using in-core AOs.

  ==> MemDFJK: Density-Fitted J/K Matrices <==

    J tasked:                   Yes
    K tasked:                   Yes
    wK tasked:                   No
    OpenMP threads:               1
    Memory [MiB]:               336
    Algorithm:                 Core
    Schwarz Cutoff:           1E-12
    Mask sparsity (%):       0.0000
    Fitting Condition:        1E-10

   => Auxiliary Basis Set <=

  Basis Set: (CC-PVDZ AUX)
    Blend: CC-PVDZ-JKFIT
    Number of shells: 60
    Number of basis functions: 182
    Number of Cartesian functions: 211
    Spherical Harmonics?: true
    Max angular momentum: 3

  Cached 100.0% of DFT collocation blocks in 0.038 [GiB].

  Minimum eigenvalue in the overlap matrix is 1.6232319808E-02.
  Reciprocal condition number of the overlap matrix is 5.5252922376E-03.
    Using symmetric orthogonalization.

  ==> Pre-Iterations <==

  SCF Guess: Orbitals guess was supplied from a previous computation.

   -------------------------------------------------------
    Irrep   Nso     Nmo     Nalpha   Nbeta   Ndocc  Nsocc
   -------------------------------------------------------
     A1        16      16       7       7       7       0
     A2         2       2       0       0       0       0
     B1         7       7       3       3       3       0
     B2         7       7       3       2       2       1
   -------------------------------------------------------
    Total      32      32      13      12      12       1
   -------------------------------------------------------

  ==> Iterations <==

                           Total Energy        Delta E     RMS |[F,P]|

   @DF-UKS iter   0:  -514.68587969992666   -5.14686e+02   2.47465e-02 
   @DF-UKS iter   1:  -514.77020821215899   -8.43285e-02   3.23148e-03 DIIS/ADIIS
   @DF-UKS iter   2:  -514.77114267056947   -9.34458e-04   2.31234e-03 DIIS/ADIIS/DAMP=1%
   @DF-UKS iter   3:  -514.77092376734640    2.18903e-04   6.54235e-04 DIIS/ADIIS/DAMP=1%
   @DF-UKS iter   4:  -514.77208668219532   -1.16291e-03   7.58208e-05 DIIS/DAMP=1%
   @DF-UKS iter   5:  -514.77210999029296   -2.33081e-05   4.99767e-05 DIIS/DAMP=1%
   @DF-UKS iter   6:  -514.77195511241837    1.54878e-04   5.63071e-06 DIIS/DAMP=1%
   @DF-UKS iter   7:  -514.77200474388553   -4.96315e-05   9.39421e-07 DIIS/DAMP=1%
   @DF-UKS iter   8:  -514.77200100528705    3.73860e-06   1.35093e-07 DIIS/DAMP=1%
   @DF-UKS iter   9:  -514.77200118102269   -1.75736e-07   2.17062e-08 DIIS/DAMP=1%
   @DF-UKS iter  10:  -514.77200128573304   -1.04710e-07   3.27370e-09 DIIS/DAMP=1%
   @DF-UKS iter  11:  -514.77200127253479    1.31982e-08   4.00343e-10 DIIS/DAMP=1%
   @DF-UKS iter  12:  -514.77200127324204   -7.07246e-10   5.49247e-11 DIIS/DAMP=1%
  Energy and wave function converged.


  ==> Post-Iterations <==

   Electrons on quadrature grid:
      Nalpha   =   12.9999999544 ; deviation = -4.564e-08
      Nbeta    =   12.0000002133 ; deviation = 2.133e-07
      Ntotal   =   25.0000001677 ; deviation = 1.677e-07 

   @Spin Contamination Metric:   2.277241444E-03
   @S^2 Expected:                7.500000000E-01
   @S^2 Observed:                7.522772414E-01
   @S   Expected:                5.000000000E-01
   @S   Observed:                5.000000000E-01

    Orbital Energies [Eh]
    ---------------------

    Alpha Occupied:                                                       

       1A1  -101.285340     2A1   -13.951333     3A1    -9.202827  
       4A1    -6.963738     1B2    -6.959188     1B1    -6.954739  
       5A1    -0.695542     6A1    -0.344743     2B2    -0.135740  
       2B1    -0.112366     7A1    -0.050531     3B2     0.111840  
       3B1     0.154438  

    Alpha Virtual:                                                        

       8A1     0.392197     4B2     0.771779     4B1     0.782968  
       9A1     0.805088    10A1     0.868855     1A2     0.980827  
      11A1     0.980839    12A1     1.006769     5B2     1.014737  
       5B1     1.041316     6B2     1.081991     6B1     1.110844  
      13A1     1.511026    14A1     1.575409     2A2     2.116807  
      15A1     2.117155     7B2     2.356280     7B1     2.394570  
      16A1     2.913718  

    Beta Occupied:                                                        

       1A1  -101.284451     2A1   -13.935900     3A1    -9.201962  
       4A1    -6.963498     1B2    -6.955941     1B1    -6.954249  
       5A1    -0.677330     6A1    -0.315450     2B1    -0.107829  
       2B2    -0.100712     7A1    -0.025858     3B1     0.169470  

    Beta Virtual:                                                         

       3B2     0.269023     8A1     0.402179     4B2     0.778575  
       4B1     0.783746     9A1     0.811149    10A1     0.875311  
       1A2     0.989905    11A1     0.990188    12A1     1.019240  
       5B1     1.046460     5B2     1.056489     6B1     1.119908  
       6B2     1.140262    13A1     1.537025    14A1     1.587397  
       2A2     2.171896    15A1     2.177847     7B1     2.402157  
       7B2     2.409015    16A1     2.935339  

    Final Occupation by Irrep:
             A1    A2    B1    B2 
    DOCC [     7,    0,    3,    2 ]
    SOCC [     0,    0,    0,    1 ]
    NA   [     7,    0,    3,    3 ]
    NB   [     7,    0,    3,    2 ]

  @DF-UKS Final Energy:  -514.77200127324204

   => Energetics <=

    Nuclear Repulsion Energy =             43.5869483728913778
    One-Electron Energy =                -803.5780210354549808
    Two-Electron Energy =                 273.8616703366845400
    DFT Exchange-Correlation Energy =     -28.6425989473629592
    Empirical Dispersion Energy =           0.0000000000000000
    VV10 Nonlocal Energy =                  0.0000000000000000
    Total Energy =                       -514.7720012732420400

  UHF NO Occupations:
  HONO-2 :    2 B2 1.9995590
  HONO-1 :    7 A1 1.9994541
  HONO-0 :    3 B2 1.0000000
  LUNO+0 :    8 A1 0.0005459
  LUNO+1 :    4 B2 0.0004410
  LUNO+2 :    9 A1 0.0000682
  LUNO+3 :    4 B1 0.0000578


Computation Completed


Properties will be evaluated at   0.000000,   0.000000,   0.000000 [a0]

Properties computed using the SCF density matrix


 Multipole Moments:

 ------------------------------------------------------------------------------------
     Multipole            Electronic (a.u.)      Nuclear  (a.u.)        Total (a.u.)
 ------------------------------------------------------------------------------------

 L = 1.  Multiply by 2.5417464519 to convert [e a0] to [Debye]
 Dipole X            :          0.0000000            0.0000000            0.0000000
 Dipole Y            :          0.0000000            0.0000000            0.0000000
 Dipole Z            :         -1.6781253            0.3751800           -1.3029452
 Magnitude           :                                                    1.3029452

 ------------------------------------------------------------------------------------

*** tstop() called on Joses-MacBook-Pro-2.local at Thu Jul 17 10:36:28 2025
Module time:
	user time   =       3.03 seconds =       0.05 minutes
	system time =       5.88 seconds =       0.10 minutes
	total time  =          1 seconds =       0.02 minutes
Total time:
	user time   =      25.59 seconds =       0.43 minutes
	system time =      21.59 seconds =       0.36 minutes
	total time  =          5 seconds =       0.08 minutes

*** tstart() called on Joses-MacBook-Pro-2.local
*** at Thu Jul 17 10:36:28 2025


         ------------------------------------------------------------
                                   SCF GRAD                          
                          Rob Parrish, Justin Turney,                
                       Andy Simmonett, and Alex Sokolov              
         ------------------------------------------------------------

  ==> Geometry <==

    Molecular point group: c2v
    Full point group: C_inf_v

    Geometry (in Angstrom), charge = -1, multiplicity = 2:

       Center              X                  Y                   Z               Mass       
    ------------   -----------------  -----------------  -----------------  -----------------
         N            0.000000000000     0.000000000000     1.031634417975    14.003074004430
         CL           0.000000000000     0.000000000000    -0.413112012333    34.968852682000

  Nuclear repulsion =   43.586948372891378

  ==> Basis Set <==

  Basis Set: CC-PVDZ
    Blend: CC-PVDZ
    Number of shells: 14
    Number of basis functions: 32
    Number of Cartesian functions: 34
    Spherical Harmonics?: true
    Max angular momentum: 2

  ==> DFJKGrad: Density-Fitted SCF Gradients <==

    Gradient:                    1
    J tasked:                  Yes
    K tasked:                  Yes
    wK tasked:                  No
    OpenMP threads:              1
    Integrals threads:           1
    Memory [MiB]:              375
    Schwarz Cutoff:          1E-12
    Fitting Condition:       1E-10

   => Auxiliary Basis Set <=

  Basis Set: (CC-PVDZ AUX)
    Blend: CC-PVDZ-JKFIT
    Number of shells: 60
    Number of basis functions: 182
    Number of Cartesian functions: 211
    Spherical Harmonics?: true
    Max angular momentum: 3

  ==> DFT Potential <==

   => LibXC <=

    Version 6.2.2
    S. Lehtola, C. Steigemann, M. J.T. Oliveira, and M. A.L. Marques.,  SoftwareX 7, 1–5 (2018) (10.1016/j.softx.2017.11.002)

   => Composite Functional: B3LYP <= 

    B3LYP Hyb-GGA Exchange-Correlation Functional

    P. J. Stephens, F. J. Devlin, C. F. Chabalowski, and M. J. Frisch.,  J. Phys. Chem. 98, 11623 (1994) (10.1021/j100096a001)

    Deriv               =              1
    GGA                 =           TRUE
    Meta                =          FALSE

    Exchange Hybrid     =           TRUE
    MP2 Hybrid          =          FALSE

   => Exchange Functionals <=

    0.0800   Slater exchange
    0.7200         Becke 88

   => Exact (HF) Exchange <=

    0.2000               HF 

   => Correlation Functionals <=

    0.1900   Vosko, Wilk & Nusair (VWN5_RPA)
    0.8100   Lee, Yang & Parr

   => LibXC Density Thresholds  <==

    XC_HYB_GGA_XC_B3LYP:  1.00E-15 

   => Molecular Quadrature <=

    Radial Scheme          =       TREUTLER
    Pruning Scheme         =           NONE
    Nuclear Scheme         =       TREUTLER

    Blocking Scheme        =         OCTREE
    BS radius alpha        =              1
    Pruning alpha          =              1
    Radial Points          =             75
    Spherical Points       =            302
    Total Points           =          41059
    Total Blocks           =            367
    Max Points             =            256
    Max Functions          =             32
    Weights Tolerance      =       1.00E-15


  -Total Gradient:
     Atom            X                  Y                   Z
    ------   -----------------  -----------------  -----------------
       1        0.000000000000     0.000000000000    -0.266105836870
       2        0.000000000000    -0.000000000000     0.266083415637


*** tstop() called on Joses-MacBook-Pro-2.local at Thu Jul 17 10:36:29 2025
Module time:
	user time   =       0.60 seconds =       0.01 minutes
	system time =       1.75 seconds =       0.03 minutes
	total time  =          1 seconds =       0.02 minutes
Total time:
	user time   =      26.20 seconds =       0.44 minutes
	system time =      23.34 seconds =       0.39 minutes
	total time  =          6 seconds =       0.10 minutes

    			-----------------------------------------

    			 OPTKING 3.0: for geometry optimizations 

    			     By R.A. King, Bethel University     

    			        with contributions from          

    			    A.V. Copan, J. Cayton, A. Heide      

    			-----------------------------------------

    
	                            ===> Fragment 1 <== 

	 Z (Atomic Numbers)          Masses                          Geom                  
	       7.000000            14.003074          0.00000000  0.00000000  1.94950651   
	      17.000000            34.968853          0.00000000  0.00000000 -0.78066856   

	 - Coordinate -           - BOHR/RAD -       - ANG/DEG -
	 R(1,2)           =         2.730175           1.444746


	        --- Internal Coordinate Step in ANG or DEG, aJ/ANG or AJ/DEG ---
	-------------------------------------------------------------------------------
	           Coordinate      Previous         Force          Change          New 
	           ----------      --------        ------          ------        ------
	               R(1,2)       1.44475        2.19228        0.08354       1.52829
	-------------------------------------------------------------------------------

	                                 ==> Convergence Check <==                                  
    
	Measures of convergence in internal coordinates in au.
    
	Criteria marked as inactive (o), active & met (*), and active & unmet ( ).

	----------------------------------------------------------------------------------------------
	   Step    Total Energy     Delta E     Max Force     RMS Force      Max Disp      RMS Disp   
	----------------------------------------------------------------------------------------------
	  Convergence Criteria     1.00e-06 *    3.00e-04 *             o    1.20e-03 *             o
	----------------------------------------------------------------------------------------------
	     3    -514.77200127   -8.79e-02      2.66e-01      2.66e-01 o    1.58e-01      1.58e-01 o  ~
	----------------------------------------------------------------------------------------------

Next Geometry in Ang 
	Fragment 1 (Ang)

	    N   0.0000000000   0.0000000000   1.0734053493
	   Cl   0.0000000000   0.0000000000  -0.4548829436


    Structure for next step:
    Molecular point group: c2v
    Full point group: C_inf_v

    Geometry (in Angstrom), charge = -1, multiplicity = 2:

    N            0.000000000000     0.000000000000     1.091288249965
    CL           0.000000000000     0.000000000000    -0.437000042964


Scratch directory: /tmp/
gradient() will perform analytic gradient computation.
   => Libint2 <=

    Primary   basis highest AM E, G, H:  6, 6, 3
    Auxiliary basis highest AM E, G, H:  7, 7, 4
    Onebody   basis highest AM E, G, H:  -, -, -
    Solid Harmonics ordering:            Gaussian

*** tstart() called on Joses-MacBook-Pro-2.local
*** at Thu Jul 17 10:36:29 2025

   => Loading Basis Set <=

    Name: CC-PVDZ
    Role: ORBITAL
    Keyword: BASIS
    atoms 1 entry N          line   168 file /Users/joseantoniorodriguesromero/anaconda3/share/psi4/basis/cc-pvdz.gbs 
    atoms 2 entry CL         line   658 file /Users/joseantoniorodriguesromero/anaconda3/share/psi4/basis/cc-pvdz.gbs 


         ---------------------------------------------------------
                                   SCF
               by Justin Turney, Rob Parrish, Andy Simmonett
                          and Daniel G. A. Smith
                              UKS Reference
                        1 Threads,    500 MiB Core
         ---------------------------------------------------------

  ==> Geometry <==

    Molecular point group: c2v
    Full point group: C_inf_v

    Geometry (in Angstrom), charge = -1, multiplicity = 2:

       Center              X                  Y                   Z               Mass       
    ------------   -----------------  -----------------  -----------------  -----------------
         N            0.000000000000     0.000000000000     1.091288249965    14.003074004430
         CL           0.000000000000     0.000000000000    -0.437000042964    34.968852682000

  Running in c2v symmetry.

  Rotational constants: A = ************  B =      0.72182  C =      0.72182 [cm^-1]
  Rotational constants: A = ************  B =  21639.59109  C =  21639.59109 [MHz]
  Nuclear repulsion =   41.204325362644646

  Charge       = -1
  Multiplicity = 2
  Electrons    = 25
  Nalpha       = 13
  Nbeta        = 12

  ==> Algorithm <==

  SCF Algorithm Type is DF.
  DIIS enabled.
  MOM disabled.
  Fractional occupation disabled.
  Guess Type is READ.
  Energy threshold   = 1.00e-08
  Density threshold  = 1.00e-08
  Integral threshold = 1.00e-12

  ==> Primary Basis <==

  Basis Set: CC-PVDZ
    Blend: CC-PVDZ
    Number of shells: 14
    Number of basis functions: 32
    Number of Cartesian functions: 34
    Spherical Harmonics?: true
    Max angular momentum: 2

  ==> DFT Potential <==

   => LibXC <=

    Version 6.2.2
    S. Lehtola, C. Steigemann, M. J.T. Oliveira, and M. A.L. Marques.,  SoftwareX 7, 1–5 (2018) (10.1016/j.softx.2017.11.002)

   => Composite Functional: B3LYP <= 

    B3LYP Hyb-GGA Exchange-Correlation Functional

    P. J. Stephens, F. J. Devlin, C. F. Chabalowski, and M. J. Frisch.,  J. Phys. Chem. 98, 11623 (1994) (10.1021/j100096a001)

    Deriv               =              1
    GGA                 =           TRUE
    Meta                =          FALSE

    Exchange Hybrid     =           TRUE
    MP2 Hybrid          =          FALSE

   => Exchange Functionals <=

    0.0800   Slater exchange
    0.7200         Becke 88

   => Exact (HF) Exchange <=

    0.2000               HF 

   => Correlation Functionals <=

    0.1900   Vosko, Wilk & Nusair (VWN5_RPA)
    0.8100   Lee, Yang & Parr

   => LibXC Density Thresholds  <==

    XC_HYB_GGA_XC_B3LYP:  1.00E-15 

   => Molecular Quadrature <=

    Radial Scheme          =       TREUTLER
    Pruning Scheme         =           NONE
    Nuclear Scheme         =       TREUTLER

    Blocking Scheme        =         OCTREE
    BS radius alpha        =              1
    Pruning alpha          =              1
    Radial Points          =             75
    Spherical Points       =            302
    Total Points           =          41077
    Total Blocks           =            368
    Max Points             =            256
    Max Functions          =             32
    Weights Tolerance      =       1.00E-15

   => Loading Basis Set <=

    Name: (CC-PVDZ AUX)
    Role: JKFIT
    Keyword: DF_BASIS_SCF
    atoms 1 entry N          line   171 file /Users/joseantoniorodriguesromero/anaconda3/share/psi4/basis/cc-pvdz-jkfit.gbs 
    atoms 2 entry CL         line   667 file /Users/joseantoniorodriguesromero/anaconda3/share/psi4/basis/cc-pvdz-jkfit.gbs 

   => Loading Basis Set <=

    Name: CC-PVDZ
    Role: ORBITAL
    Keyword: BASIS
    atoms 1 entry N          line   168 file /Users/joseantoniorodriguesromero/anaconda3/share/psi4/basis/cc-pvdz.gbs 
    atoms 2 entry CL         line   658 file /Users/joseantoniorodriguesromero/anaconda3/share/psi4/basis/cc-pvdz.gbs 

  Reading orbitals from file /tmp/doublet_NCl.default.72663.180.npy, no projection.

  ==> Integral Setup <==

  DFHelper Memory: AOs need 0.002 GiB; user supplied 0.329 GiB. 
  Using in-core AOs.

  ==> MemDFJK: Density-Fitted J/K Matrices <==

    J tasked:                   Yes
    K tasked:                   Yes
    wK tasked:                   No
    OpenMP threads:               1
    Memory [MiB]:               336
    Algorithm:                 Core
    Schwarz Cutoff:           1E-12
    Mask sparsity (%):       0.0000
    Fitting Condition:        1E-10

   => Auxiliary Basis Set <=

  Basis Set: (CC-PVDZ AUX)
    Blend: CC-PVDZ-JKFIT
    Number of shells: 60
    Number of basis functions: 182
    Number of Cartesian functions: 211
    Spherical Harmonics?: true
    Max angular momentum: 3

  Cached 100.0% of DFT collocation blocks in 0.038 [GiB].

  Minimum eigenvalue in the overlap matrix is 1.9828964843E-02.
  Reciprocal condition number of the overlap matrix is 6.9047646235E-03.
    Using symmetric orthogonalization.

  ==> Pre-Iterations <==

  SCF Guess: Orbitals guess was supplied from a previous computation.

   -------------------------------------------------------
    Irrep   Nso     Nmo     Nalpha   Nbeta   Ndocc  Nsocc
   -------------------------------------------------------
     A1        16      16       7       7       7       0
     A2         2       2       0       0       0       0
     B1         7       7       3       3       3       0
     B2         7       7       3       2       2       1
   -------------------------------------------------------
    Total      32      32      13      12      12       1
   -------------------------------------------------------

  ==> Iterations <==

                           Total Energy        Delta E     RMS |[F,P]|

   @DF-UKS iter   0:  -514.75098424073906   -5.14751e+02   1.34112e-02 
   @DF-UKS iter   1:  -514.80425136876897   -5.32671e-02   2.56191e-03 DIIS/ADIIS
   @DF-UKS iter   2:  -514.80425388803530   -2.51927e-06   2.53924e-03 DIIS/ADIIS/DAMP=1%
   @DF-UKS iter   3:  -514.80438557642356   -1.31688e-04   6.33202e-04 DIIS/ADIIS/DAMP=1%
   @DF-UKS iter   4:  -514.80532918075573   -9.43604e-04   5.57784e-05 DIIS/DAMP=1%
   @DF-UKS iter   5:  -514.80541185701202   -8.26763e-05   2.73498e-05 DIIS/DAMP=1%
   @DF-UKS iter   6:  -514.80530612131258    1.05736e-04   5.10631e-06 DIIS/DAMP=1%
   @DF-UKS iter   7:  -514.80533486198351   -2.87407e-05   6.72717e-07 DIIS/DAMP=1%
   @DF-UKS iter   8:  -514.80533202198978    2.83999e-06   1.26933e-07 DIIS/DAMP=1%
   @DF-UKS iter   9:  -514.80533216212291   -1.40133e-07   1.87066e-08 DIIS/DAMP=1%
   @DF-UKS iter  10:  -514.80533220848815   -4.63652e-08   1.91961e-09 DIIS/DAMP=1%
   @DF-UKS iter  11:  -514.80533220233303    6.15512e-09   2.94063e-10 DIIS/DAMP=1%
  Energy and wave function converged.


  ==> Post-Iterations <==

   Electrons on quadrature grid:
      Nalpha   =   12.9999996971 ; deviation = -3.029e-07
      Nbeta    =   11.9999999216 ; deviation = -7.838e-08
      Ntotal   =   24.9999996187 ; deviation = -3.813e-07 

   @Spin Contamination Metric:   2.260727094E-03
   @S^2 Expected:                7.500000000E-01
   @S^2 Observed:                7.522607271E-01
   @S   Expected:                5.000000000E-01
   @S   Observed:                5.000000000E-01

    Orbital Energies [Eh]
    ---------------------

    Alpha Occupied:                                                       

       1A1  -101.282681     2A1   -13.969849     3A1    -9.199552  
       4A1    -6.960455     1B2    -6.955661     1B1    -6.951842  
       5A1    -0.661879     6A1    -0.351124     2B2    -0.122186  
       2B1    -0.101238     7A1    -0.060558     3B2     0.097173  
       3B1     0.142217  

    Alpha Virtual:                                                        

       8A1     0.370234     4B2     0.779002     9A1     0.787444  
       4B1     0.788538    10A1     0.858029     5B2     0.983338  
       1A2     0.985436    11A1     0.985444     5B1     1.008962  
      12A1     1.014355     6B2     1.089024     6B1     1.118141  
      13A1     1.453261    14A1     1.520692     2A2     2.109948  
      15A1     2.110241     7B2     2.293904     7B1     2.333873  
      16A1     2.831681  

    Beta Occupied:                                                        

       1A1  -101.281927     2A1   -13.953821     3A1    -9.198820  
       4A1    -6.960336     1B2    -6.952836     1B1    -6.951425  
       5A1    -0.644559     6A1    -0.319529     2B1    -0.097331  
       2B2    -0.091117     7A1    -0.037146     3B1     0.158086  

    Beta Virtual:                                                         

       3B2     0.261562     8A1     0.381846     4B2     0.784270  
       4B1     0.789057     9A1     0.793323    10A1     0.862411  
       1A2     0.992911    11A1     0.993112     5B1     1.014173  
       5B2     1.025655    12A1     1.028067     6B1     1.126978  
       6B2     1.146393    13A1     1.474594    14A1     1.536665  
       2A2     2.167533    15A1     2.174180     7B1     2.341985  
       7B2     2.350481    16A1     2.855033  

    Final Occupation by Irrep:
             A1    A2    B1    B2 
    DOCC [     7,    0,    3,    2 ]
    SOCC [     0,    0,    0,    1 ]
    NA   [     7,    0,    3,    3 ]
    NB   [     7,    0,    3,    2 ]

  @DF-UKS Final Energy:  -514.80533220233303

   => Energetics <=

    Nuclear Repulsion Energy =             41.2043253626446457
    One-Electron Energy =                -798.9417866810756550
    Two-Electron Energy =                 271.5338226801894166
    DFT Exchange-Correlation Energy =     -28.6016935640914873
    Empirical Dispersion Energy =           0.0000000000000000
    VV10 Nonlocal Energy =                  0.0000000000000000
    Total Energy =                       -514.8053322023330338

  UHF NO Occupations:
  HONO-2 :    2 B2 1.9996402
  HONO-1 :    7 A1 1.9994023
  HONO-0 :    3 B2 1.0000000
  LUNO+0 :    8 A1 0.0005977
  LUNO+1 :    4 B2 0.0003598
  LUNO+2 :    9 A1 0.0000907
  LUNO+3 :    4 B1 0.0000625


Computation Completed


Properties will be evaluated at   0.000000,   0.000000,   0.000000 [a0]

Properties computed using the SCF density matrix


 Multipole Moments:

 ------------------------------------------------------------------------------------
     Multipole            Electronic (a.u.)      Nuclear  (a.u.)        Total (a.u.)
 ------------------------------------------------------------------------------------

 L = 1.  Multiply by 2.5417464519 to convert [e a0] to [Debye]
 Dipole X            :          0.0000000            0.0000000            0.0000000
 Dipole Y            :          0.0000000            0.0000000            0.0000000
 Dipole Z            :         -1.6898619            0.3968746           -1.2929873
 Magnitude           :                                                    1.2929873

 ------------------------------------------------------------------------------------

*** tstop() called on Joses-MacBook-Pro-2.local at Thu Jul 17 10:36:29 2025
Module time:
	user time   =       3.62 seconds =       0.06 minutes
	system time =       5.20 seconds =       0.09 minutes
	total time  =          0 seconds =       0.00 minutes
Total time:
	user time   =      29.92 seconds =       0.50 minutes
	system time =      28.72 seconds =       0.48 minutes
	total time  =          6 seconds =       0.10 minutes

*** tstart() called on Joses-MacBook-Pro-2.local
*** at Thu Jul 17 10:36:29 2025


         ------------------------------------------------------------
                                   SCF GRAD                          
                          Rob Parrish, Justin Turney,                
                       Andy Simmonett, and Alex Sokolov              
         ------------------------------------------------------------

  ==> Geometry <==

    Molecular point group: c2v
    Full point group: C_inf_v

    Geometry (in Angstrom), charge = -1, multiplicity = 2:

       Center              X                  Y                   Z               Mass       
    ------------   -----------------  -----------------  -----------------  -----------------
         N            0.000000000000     0.000000000000     1.091288249965    14.003074004430
         CL           0.000000000000     0.000000000000    -0.437000042964    34.968852682000

  Nuclear repulsion =   41.204325362644646

  ==> Basis Set <==

  Basis Set: CC-PVDZ
    Blend: CC-PVDZ
    Number of shells: 14
    Number of basis functions: 32
    Number of Cartesian functions: 34
    Spherical Harmonics?: true
    Max angular momentum: 2

  ==> DFJKGrad: Density-Fitted SCF Gradients <==

    Gradient:                    1
    J tasked:                  Yes
    K tasked:                  Yes
    wK tasked:                  No
    OpenMP threads:              1
    Integrals threads:           1
    Memory [MiB]:              375
    Schwarz Cutoff:          1E-12
    Fitting Condition:       1E-10

   => Auxiliary Basis Set <=

  Basis Set: (CC-PVDZ AUX)
    Blend: CC-PVDZ-JKFIT
    Number of shells: 60
    Number of basis functions: 182
    Number of Cartesian functions: 211
    Spherical Harmonics?: true
    Max angular momentum: 3

  ==> DFT Potential <==

   => LibXC <=

    Version 6.2.2
    S. Lehtola, C. Steigemann, M. J.T. Oliveira, and M. A.L. Marques.,  SoftwareX 7, 1–5 (2018) (10.1016/j.softx.2017.11.002)

   => Composite Functional: B3LYP <= 

    B3LYP Hyb-GGA Exchange-Correlation Functional

    P. J. Stephens, F. J. Devlin, C. F. Chabalowski, and M. J. Frisch.,  J. Phys. Chem. 98, 11623 (1994) (10.1021/j100096a001)

    Deriv               =              1
    GGA                 =           TRUE
    Meta                =          FALSE

    Exchange Hybrid     =           TRUE
    MP2 Hybrid          =          FALSE

   => Exchange Functionals <=

    0.0800   Slater exchange
    0.7200         Becke 88

   => Exact (HF) Exchange <=

    0.2000               HF 

   => Correlation Functionals <=

    0.1900   Vosko, Wilk & Nusair (VWN5_RPA)
    0.8100   Lee, Yang & Parr

   => LibXC Density Thresholds  <==

    XC_HYB_GGA_XC_B3LYP:  1.00E-15 

   => Molecular Quadrature <=

    Radial Scheme          =       TREUTLER
    Pruning Scheme         =           NONE
    Nuclear Scheme         =       TREUTLER

    Blocking Scheme        =         OCTREE
    BS radius alpha        =              1
    Pruning alpha          =              1
    Radial Points          =             75
    Spherical Points       =            302
    Total Points           =          41077
    Total Blocks           =            368
    Max Points             =            256
    Max Functions          =             32
    Weights Tolerance      =       1.00E-15


  -Total Gradient:
     Atom            X                  Y                   Z
    ------   -----------------  -----------------  -----------------
       1        0.000000000000     0.000000000000    -0.163573855165
       2        0.000000000000     0.000000000000     0.163554256762


*** tstop() called on Joses-MacBook-Pro-2.local at Thu Jul 17 10:36:30 2025
Module time:
	user time   =       1.06 seconds =       0.02 minutes
	system time =       1.45 seconds =       0.02 minutes
	total time  =          1 seconds =       0.02 minutes
Total time:
	user time   =      30.98 seconds =       0.52 minutes
	system time =      30.18 seconds =       0.50 minutes
	total time  =          7 seconds =       0.12 minutes

    			-----------------------------------------

    			 OPTKING 3.0: for geometry optimizations 

    			     By R.A. King, Bethel University     

    			        with contributions from          

    			    A.V. Copan, J. Cayton, A. Heide      

    			-----------------------------------------

    
	                            ===> Fragment 1 <== 

	 Z (Atomic Numbers)          Masses                          Geom                  
	       7.000000            14.003074          0.00000000  0.00000000  2.06223592   
	      17.000000            34.968853          0.00000000  0.00000000 -0.82581040   

	 - Coordinate -           - BOHR/RAD -       - ANG/DEG -
	 R(1,2)           =         2.888046           1.528288


	        --- Internal Coordinate Step in ANG or DEG, aJ/ANG or AJ/DEG ---
	-------------------------------------------------------------------------------
	           Coordinate      Previous         Force          Change          New 
	           ----------      --------        ------          ------        ------
	               R(1,2)       1.52829        1.34756        0.09024       1.61853
	-------------------------------------------------------------------------------

	                                 ==> Convergence Check <==                                  
    
	Measures of convergence in internal coordinates in au.
    
	Criteria marked as inactive (o), active & met (*), and active & unmet ( ).

	----------------------------------------------------------------------------------------------
	   Step    Total Energy     Delta E     Max Force     RMS Force      Max Disp      RMS Disp   
	----------------------------------------------------------------------------------------------
	  Convergence Criteria     1.00e-06 *    3.00e-04 *             o    1.20e-03 *             o
	----------------------------------------------------------------------------------------------
	     4    -514.80533220   -3.33e-02      1.64e-01      1.64e-01 o    1.71e-01      1.71e-01 o  ~
	----------------------------------------------------------------------------------------------

Next Geometry in Ang 
	Fragment 1 (Ang)

	    N   0.0000000000   0.0000000000   1.1364087297
	   Cl   0.0000000000   0.0000000000  -0.4821205227


    Structure for next step:
    Molecular point group: c2v
    Full point group: C_inf_v

    Geometry (in Angstrom), charge = -1, multiplicity = 2:

    N            0.000000000000     0.000000000000     1.155725633425
    CL           0.000000000000     0.000000000000    -0.462803619005


Scratch directory: /tmp/
gradient() will perform analytic gradient computation.
   => Libint2 <=

    Primary   basis highest AM E, G, H:  6, 6, 3
    Auxiliary basis highest AM E, G, H:  7, 7, 4
    Onebody   basis highest AM E, G, H:  -, -, -
    Solid Harmonics ordering:            Gaussian

*** tstart() called on Joses-MacBook-Pro-2.local
*** at Thu Jul 17 10:36:30 2025

   => Loading Basis Set <=

    Name: CC-PVDZ
    Role: ORBITAL
    Keyword: BASIS
    atoms 1 entry N          line   168 file /Users/joseantoniorodriguesromero/anaconda3/share/psi4/basis/cc-pvdz.gbs 
    atoms 2 entry CL         line   658 file /Users/joseantoniorodriguesromero/anaconda3/share/psi4/basis/cc-pvdz.gbs 


         ---------------------------------------------------------
                                   SCF
               by Justin Turney, Rob Parrish, Andy Simmonett
                          and Daniel G. A. Smith
                              UKS Reference
                        1 Threads,    500 MiB Core
         ---------------------------------------------------------

  ==> Geometry <==

    Molecular point group: c2v
    Full point group: C_inf_v

    Geometry (in Angstrom), charge = -1, multiplicity = 2:

       Center              X                  Y                   Z               Mass       
    ------------   -----------------  -----------------  -----------------  -----------------
         N            0.000000000000     0.000000000000     1.155725633425    14.003074004430
         CL           0.000000000000     0.000000000000    -0.462803619005    34.968852682000

  Running in c2v symmetry.

  Rotational constants: A = ************  B =      0.64357  C =      0.64357 [cm^-1]
  Rotational constants: A = ************  B =  19293.83306  C =  19293.83306 [MHz]
  Nuclear repulsion =   38.906981739870496

  Charge       = -1
  Multiplicity = 2
  Electrons    = 25
  Nalpha       = 13
[...]
    
	Measures of convergence in internal coordinates in au.
    
	Criteria marked as inactive (o), active & met (*), and active & unmet ( ).

	----------------------------------------------------------------------------------------------
	   Step    Total Energy     Delta E     Max Force     RMS Force      Max Disp      RMS Disp   
	----------------------------------------------------------------------------------------------
	  Convergence Criteria     1.00e-06 *    3.00e-04 *             o    1.20e-03 *             o
	----------------------------------------------------------------------------------------------
	    12    -514.84511737   -5.38e-06      2.60e-04 *    2.60e-04 o    2.36e-03      2.36e-03 o  ~
	----------------------------------------------------------------------------------------------

Next Geometry in Ang 
	Fragment 1 (Ang)

	    N   0.0000000000   0.0000000000   1.3442726727
	   Cl   0.0000000000   0.0000000000  -0.5386807540


    Structure for next step:
    Molecular point group: c2v
    Full point group: C_inf_v

    Geometry (in Angstrom), charge = -1, multiplicity = 2:

    N            0.000000000000     0.000000000000     1.344540136352
    CL           0.000000000000     0.000000000000    -0.538413290321


Scratch directory: /tmp/
gradient() will perform analytic gradient computation.
   => Libint2 <=

    Primary   basis highest AM E, G, H:  6, 6, 3
    Auxiliary basis highest AM E, G, H:  7, 7, 4
    Onebody   basis highest AM E, G, H:  -, -, -
    Solid Harmonics ordering:            Gaussian

*** tstart() called on Joses-MacBook-Pro-2.local
*** at Thu Jul 17 10:36:41 2025

   => Loading Basis Set <=

    Name: CC-PVDZ
    Role: ORBITAL
    Keyword: BASIS
    atoms 1 entry N          line   168 file /Users/joseantoniorodriguesromero/anaconda3/share/psi4/basis/cc-pvdz.gbs 
    atoms 2 entry CL         line   658 file /Users/joseantoniorodriguesromero/anaconda3/share/psi4/basis/cc-pvdz.gbs 


         ---------------------------------------------------------
                                   SCF
               by Justin Turney, Rob Parrish, Andy Simmonett
                          and Daniel G. A. Smith
                              UKS Reference
                        1 Threads,    500 MiB Core
         ---------------------------------------------------------

  ==> Geometry <==

    Molecular point group: c2v
    Full point group: C_inf_v

    Geometry (in Angstrom), charge = -1, multiplicity = 2:

       Center              X                  Y                   Z               Mass       
    ------------   -----------------  -----------------  -----------------  -----------------
         N            0.000000000000     0.000000000000     1.344540136352    14.003074004430
         CL           0.000000000000     0.000000000000    -0.538413290321    34.968852682000

  Running in c2v symmetry.

  Rotational constants: A = ************  B =      0.47551  C =      0.47551 [cm^-1]
  Rotational constants: A = ************  B =  14255.43473  C =  14255.43473 [MHz]
  Nuclear repulsion =   33.443253124431742

  Charge       = -1
  Multiplicity = 2
  Electrons    = 25
  Nalpha       = 13
  Nbeta        = 12

  ==> Algorithm <==

  SCF Algorithm Type is DF.
  DIIS enabled.
  MOM disabled.
  Fractional occupation disabled.
  Guess Type is READ.
  Energy threshold   = 1.00e-08
  Density threshold  = 1.00e-08
  Integral threshold = 1.00e-12

  ==> Primary Basis <==

  Basis Set: CC-PVDZ
    Blend: CC-PVDZ
    Number of shells: 14
    Number of basis functions: 32
    Number of Cartesian functions: 34
    Spherical Harmonics?: true
    Max angular momentum: 2

  ==> DFT Potential <==

   => LibXC <=

    Version 6.2.2
    S. Lehtola, C. Steigemann, M. J.T. Oliveira, and M. A.L. Marques.,  SoftwareX 7, 1–5 (2018) (10.1016/j.softx.2017.11.002)

   => Composite Functional: B3LYP <= 

    B3LYP Hyb-GGA Exchange-Correlation Functional

    P. J. Stephens, F. J. Devlin, C. F. Chabalowski, and M. J. Frisch.,  J. Phys. Chem. 98, 11623 (1994) (10.1021/j100096a001)

    Deriv               =              1
    GGA                 =           TRUE
    Meta                =          FALSE

    Exchange Hybrid     =           TRUE
    MP2 Hybrid          =          FALSE

   => Exchange Functionals <=

    0.0800   Slater exchange
    0.7200         Becke 88

   => Exact (HF) Exchange <=

    0.2000               HF 

   => Correlation Functionals <=

    0.1900   Vosko, Wilk & Nusair (VWN5_RPA)
    0.8100   Lee, Yang & Parr

   => LibXC Density Thresholds  <==

    XC_HYB_GGA_XC_B3LYP:  1.00E-15 

   => Molecular Quadrature <=

    Radial Scheme          =       TREUTLER
    Pruning Scheme         =           NONE
    Nuclear Scheme         =       TREUTLER

    Blocking Scheme        =         OCTREE
    BS radius alpha        =              1
    Pruning alpha          =              1
    Radial Points          =             75
    Spherical Points       =            302
    Total Points           =          41127
    Total Blocks           =            366
    Max Points             =            254
    Max Functions          =             32
    Weights Tolerance      =       1.00E-15

   => Loading Basis Set <=

    Name: (CC-PVDZ AUX)
    Role: JKFIT
    Keyword: DF_BASIS_SCF
    atoms 1 entry N          line   171 file /Users/joseantoniorodriguesromero/anaconda3/share/psi4/basis/cc-pvdz-jkfit.gbs 
    atoms 2 entry CL         line   667 file /Users/joseantoniorodriguesromero/anaconda3/share/psi4/basis/cc-pvdz-jkfit.gbs 

   => Loading Basis Set <=

    Name: CC-PVDZ
    Role: ORBITAL
    Keyword: BASIS
    atoms 1 entry N          line   168 file /Users/joseantoniorodriguesromero/anaconda3/share/psi4/basis/cc-pvdz.gbs 
    atoms 2 entry CL         line   658 file /Users/joseantoniorodriguesromero/anaconda3/share/psi4/basis/cc-pvdz.gbs 

  Reading orbitals from file /tmp/doublet_NCl.default.72663.180.npy, no projection.

  ==> Integral Setup <==

  DFHelper Memory: AOs need 0.002 GiB; user supplied 0.329 GiB. 
  Using in-core AOs.

  ==> MemDFJK: Density-Fitted J/K Matrices <==

    J tasked:                   Yes
    K tasked:                   Yes
    wK tasked:                   No
    OpenMP threads:               1
    Memory [MiB]:               336
    Algorithm:                 Core
    Schwarz Cutoff:           1E-12
    Mask sparsity (%):       0.0000
    Fitting Condition:        1E-10

   => Auxiliary Basis Set <=

  Basis Set: (CC-PVDZ AUX)
    Blend: CC-PVDZ-JKFIT
    Number of shells: 60
    Number of basis functions: 182
    Number of Cartesian functions: 211
    Spherical Harmonics?: true
    Max angular momentum: 3

  Cached 100.0% of DFT collocation blocks in 0.037 [GiB].

  Minimum eigenvalue in the overlap matrix is 4.1203635377E-02.
  Reciprocal condition number of the overlap matrix is 1.6062509906E-02.
    Using symmetric orthogonalization.

  ==> Pre-Iterations <==

  SCF Guess: Orbitals guess was supplied from a previous computation.

   -------------------------------------------------------
    Irrep   Nso     Nmo     Nalpha   Nbeta   Ndocc  Nsocc
   -------------------------------------------------------
     A1        16      16       7       7       7       0
     A2         2       2       0       0       0       0
     B1         7       7       3       3       3       0
     B2         7       7       3       2       2       1
   -------------------------------------------------------
    Total      32      32      13      12      12       1
   -------------------------------------------------------

  ==> Iterations <==

                           Total Energy        Delta E     RMS |[F,P]|

   @DF-UKS iter   0:  -514.84476675905421   -5.14845e+02   9.79589e-05 
   @DF-UKS iter   1:  -514.84511746377405   -3.50705e-04   3.58966e-05 DIIS
   @DF-UKS iter   2:  -514.84511711918549    3.44589e-07   5.45601e-05 DIIS/DAMP=1%
   @DF-UKS iter   3:  -514.84509578658208    2.13326e-05   6.52406e-06 DIIS/DAMP=1%
   @DF-UKS iter   4:  -514.84511801126666   -2.22247e-05   6.34139e-07 DIIS/DAMP=1%
   @DF-UKS iter   5:  -514.84511827248593   -2.61219e-07   1.57801e-07 DIIS/DAMP=1%
   @DF-UKS iter   6:  -514.84511753272272    7.39763e-07   6.06543e-08 DIIS/DAMP=1%
   @DF-UKS iter   7:  -514.84511776097452   -2.28252e-07   2.18897e-08 DIIS/DAMP=1%
   @DF-UKS iter   8:  -514.84511771130667    4.96678e-08   7.58404e-09 DIIS/DAMP=1%
   @DF-UKS iter   9:  -514.84511771406721   -2.76054e-09   9.76372e-10 DIIS/DAMP=1%
  Energy and wave function converged.


  ==> Post-Iterations <==

   Electrons on quadrature grid:
      Nalpha   =   13.0000022958 ; deviation = 2.296e-06
      Nbeta    =   12.0000009282 ; deviation = 9.282e-07
      Ntotal   =   25.0000032240 ; deviation = 3.224e-06 

   @Spin Contamination Metric:   2.805918602E-03
   @S^2 Expected:                7.500000000E-01
   @S^2 Observed:                7.528059186E-01
   @S   Expected:                5.000000000E-01
   @S   Observed:                5.000000000E-01

    Orbital Energies [Eh]
    ---------------------

    Alpha Occupied:                                                       

       1A1  -101.271894     2A1   -14.043553     3A1    -9.186931  
       4A1    -6.947512     1B2    -6.942313     1B1    -6.940462  
       5A1    -0.566560     6A1    -0.383779     2B2    -0.083207  
       7A1    -0.082505     2B1    -0.070412     3B2     0.039637  
       3B1     0.092537  

    Alpha Virtual:                                                        

       8A1     0.254368     9A1     0.752913     4B2     0.798906  
       4B1     0.804978    10A1     0.879892     5B2     0.917575  
       5B1     0.939950    11A1     1.002132     1A2     1.002145  
      12A1     1.025852     6B2     1.096883     6B1     1.123559  
      13A1     1.196327    14A1     1.470042    15A1     2.077296  
       2A2     2.077566     7B2     2.108834     7B1     2.153864  
      16A1     2.483004  

    Beta Occupied:                                                        

       1A1  -101.271688     2A1   -14.025809     3A1    -9.186735  
       4A1    -6.948011     1B2    -6.941004     1B1    -6.940356  
       5A1    -0.556311     6A1    -0.335234     7A1    -0.069478  
       2B1    -0.068744     2B2    -0.065806     3B1     0.111039  

    Beta Virtual:                                                         

       3B2     0.226980     8A1     0.272837     9A1     0.754213  
       4B2     0.802816     4B1     0.805173    10A1     0.880217  
       5B1     0.944431     5B2     0.956677     1A2     1.005111  
      11A1     1.005152    12A1     1.045147     6B1     1.131410  
       6B2     1.149879    13A1     1.207926    14A1     1.493742  
       2A2     2.140737    15A1     2.149105     7B1     2.164107  
       7B2     2.178539    16A1     2.510141  

    Final Occupation by Irrep:
             A1    A2    B1    B2 
    DOCC [     7,    0,    3,    2 ]
    SOCC [     0,    0,    0,    1 ]
    NA   [     7,    0,    3,    3 ]
    NB   [     7,    0,    3,    2 ]

  @DF-UKS Final Energy:  -514.84511771406721

   => Energetics <=

    Nuclear Repulsion Energy =             33.4432531244317417
    One-Electron Energy =                -783.5955470036623183
    Two-Electron Energy =                 263.7973264956830803
    DFT Exchange-Correlation Energy =     -28.4901503305197075
    Empirical Dispersion Energy =           0.0000000000000000
    VV10 Nonlocal Energy =                  0.0000000000000000
    Total Energy =                       -514.8451177140672144

  UHF NO Occupations:
  HONO-2 :    6 A1 1.9995981
  HONO-1 :    7 A1 1.9991886
  HONO-0 :    3 B2 1.0000000
  LUNO+0 :    8 A1 0.0008114
  LUNO+1 :    9 A1 0.0004019
  LUNO+2 :    4 B2 0.0001141
  LUNO+3 :    4 B1 0.0000699


Computation Completed


Properties will be evaluated at   0.000000,   0.000000,   0.000000 [a0]

Properties computed using the SCF density matrix


 Multipole Moments:

 ------------------------------------------------------------------------------------
     Multipole            Electronic (a.u.)      Nuclear  (a.u.)        Total (a.u.)
 ------------------------------------------------------------------------------------

 L = 1.  Multiply by 2.5417464519 to convert [e a0] to [Debye]
 Dipole X            :          0.0000000            0.0000000            0.0000000
 Dipole Y            :          0.0000000            0.0000000            0.0000000
 Dipole Z            :         -1.5272991            0.4889761           -1.0383229
 Magnitude           :                                                    1.0383229

 ------------------------------------------------------------------------------------

*** tstop() called on Joses-MacBook-Pro-2.local at Thu Jul 17 10:36:42 2025
Module time:
	user time   =       3.41 seconds =       0.06 minutes
	system time =       3.93 seconds =       0.07 minutes
	total time  =          1 seconds =       0.02 minutes
Total time:
	user time   =      82.63 seconds =       1.38 minutes
	system time =      89.80 seconds =       1.50 minutes
	total time  =         19 seconds =       0.32 minutes

*** tstart() called on Joses-MacBook-Pro-2.local
*** at Thu Jul 17 10:36:42 2025


         ------------------------------------------------------------
                                   SCF GRAD                          
                          Rob Parrish, Justin Turney,                
                       Andy Simmonett, and Alex Sokolov              
         ------------------------------------------------------------

  ==> Geometry <==

    Molecular point group: c2v
    Full point group: C_inf_v

    Geometry (in Angstrom), charge = -1, multiplicity = 2:

       Center              X                  Y                   Z               Mass       
    ------------   -----------------  -----------------  -----------------  -----------------
         N            0.000000000000     0.000000000000     1.344540136352    14.003074004430
         CL           0.000000000000     0.000000000000    -0.538413290321    34.968852682000

  Nuclear repulsion =   33.443253124431742

  ==> Basis Set <==

  Basis Set: CC-PVDZ
    Blend: CC-PVDZ
    Number of shells: 14
    Number of basis functions: 32
    Number of Cartesian functions: 34
    Spherical Harmonics?: true
    Max angular momentum: 2

  ==> DFJKGrad: Density-Fitted SCF Gradients <==

    Gradient:                    1
    J tasked:                  Yes
    K tasked:                  Yes
    wK tasked:                  No
    OpenMP threads:              1
    Integrals threads:           1
    Memory [MiB]:              375
    Schwarz Cutoff:          1E-12
    Fitting Condition:       1E-10

   => Auxiliary Basis Set <=

  Basis Set: (CC-PVDZ AUX)
    Blend: CC-PVDZ-JKFIT
    Number of shells: 60
    Number of basis functions: 182
    Number of Cartesian functions: 211
    Spherical Harmonics?: true
    Max angular momentum: 3

  ==> DFT Potential <==

   => LibXC <=

    Version 6.2.2
    S. Lehtola, C. Steigemann, M. J.T. Oliveira, and M. A.L. Marques.,  SoftwareX 7, 1–5 (2018) (10.1016/j.softx.2017.11.002)

   => Composite Functional: B3LYP <= 

    B3LYP Hyb-GGA Exchange-Correlation Functional

    P. J. Stephens, F. J. Devlin, C. F. Chabalowski, and M. J. Frisch.,  J. Phys. Chem. 98, 11623 (1994) (10.1021/j100096a001)

    Deriv               =              1
    GGA                 =           TRUE
    Meta                =          FALSE

    Exchange Hybrid     =           TRUE
    MP2 Hybrid          =          FALSE

   => Exchange Functionals <=

    0.0800   Slater exchange
    0.7200         Becke 88

   => Exact (HF) Exchange <=

    0.2000               HF 

   => Correlation Functionals <=

    0.1900   Vosko, Wilk & Nusair (VWN5_RPA)
    0.8100   Lee, Yang & Parr

   => LibXC Density Thresholds  <==

    XC_HYB_GGA_XC_B3LYP:  1.00E-15 

   => Molecular Quadrature <=

    Radial Scheme          =       TREUTLER
    Pruning Scheme         =           NONE
    Nuclear Scheme         =       TREUTLER

    Blocking Scheme        =         OCTREE
    BS radius alpha        =              1
    Pruning alpha          =              1
    Radial Points          =             75
    Spherical Points       =            302
    Total Points           =          41127
    Total Blocks           =            366
    Max Points             =            254
    Max Functions          =             32
    Weights Tolerance      =       1.00E-15


  -Total Gradient:
     Atom            X                  Y                   Z
    ------   -----------------  -----------------  -----------------
       1       -0.000000000000     0.000000000000    -0.000043118025
       2        0.000000000000     0.000000000000     0.000037985600


*** tstop() called on Joses-MacBook-Pro-2.local at Thu Jul 17 10:36:42 2025
Module time:
	user time   =       1.43 seconds =       0.02 minutes
	system time =       1.38 seconds =       0.02 minutes
	total time  =          0 seconds =       0.00 minutes
Total time:
	user time   =      84.07 seconds =       1.40 minutes
	system time =      91.18 seconds =       1.52 minutes
	total time  =         19 seconds =       0.32 minutes

    			-----------------------------------------

    			 OPTKING 3.0: for geometry optimizations 

    			     By R.A. King, Bethel University     

    			        with contributions from          

    			    A.V. Copan, J. Cayton, A. Heide      

    			-----------------------------------------

    
	                            ===> Fragment 1 <== 

	 Z (Atomic Numbers)          Masses                          Geom                  
	       7.000000            14.003074          0.00000000  0.00000000  2.54081262   
	      17.000000            34.968853          0.00000000  0.00000000 -1.01745366   

	 - Coordinate -           - BOHR/RAD -       - ANG/DEG -
	 R(1,2)           =         3.558266           1.882953


	        --- Internal Coordinate Step in ANG or DEG, aJ/ANG or AJ/DEG ---
	-------------------------------------------------------------------------------
	           Coordinate      Previous         Force          Change          New 
	           ----------      --------        ------          ------        ------
	               R(1,2)       1.88295        0.00033        0.00021       1.88317
	-------------------------------------------------------------------------------

	                                 ==> Convergence Check <==                                  
    
	Measures of convergence in internal coordinates in au.
    
	Criteria marked as inactive (o), active & met (*), and active & unmet ( ).

	----------------------------------------------------------------------------------------------
	   Step    Total Energy     Delta E     Max Force     RMS Force      Max Disp      RMS Disp   
	----------------------------------------------------------------------------------------------
	  Convergence Criteria     1.00e-06 *    3.00e-04 *             o    1.20e-03 *             o
	----------------------------------------------------------------------------------------------
	    13    -514.84511771   -3.47e-07 *    4.06e-05 *    4.06e-05 o    4.03e-04 *    4.03e-04 o  ~
	----------------------------------------------------------------------------------------------

Next Geometry in Ang 
	Fragment 1 (Ang)

	    N   0.0000000000   0.0000000000   1.3446467589
	   Cl   0.0000000000   0.0000000000  -0.5385199129


    Final optimized geometry and variables:
    Molecular point group: c2v
    Full point group: C_inf_v

    Geometry (in Angstrom), charge = -1, multiplicity = 2:

    N            0.000000000000     0.000000000000     1.344540136352
    CL           0.000000000000     0.000000000000    -0.538413290321


    Psi4 stopped on: Thursday, 17 July 2025 10:36AM
    Psi4 wall time for execution: 0:00:20.65

*** Psi4 exiting successfully. Buy a developer a beer!
