
    -----------------------------------------------------------------------
          Psi4: An Open-Source Ab Initio Electronic Structure Package
                               Psi4 1.9.1 release

                         Git: Rev {} zzzzzzz 


    D. G. A. Smith, L. A. Burns, A. C. Simmonett, R. M. Parrish,
    M. C. Schieber, R. Galvelis, P. Kraus, H. Kruse, R. Di Remigio,
    A. Alenaizan, A. M. James, S. Lehtola, J. P. Misiewicz, M. Scheurer,
    R. A. Shaw, J. B. Schriber, Y. Xie, Z. L. Glick, D. A. Sirianni,
    J. S. O'Brien, J. M. Waldrop, A. Kumar, E. G. Hohenstein,
    B. P. Pritchard, B. R. Brooks, H. F. Schaefer III, A. Yu. Sokolov,
    K. Patkowski, A. E. DePrince III, U. Bozkaya, R. A. King,
    F. A. Evangelista, J. M. Turney, T. D. Crawford, C. D. Sherrill,
    J. Chem. Phys. 152(18) 184108 (2020). https://doi.org/10.1063/5.0006002

                            Additional Code Authors
    E. T. Seidl, C. L. Janssen, E. F. Valeev, M. L. Leininger,
    J. F. Gonthier, R. M. Richard, H. R. McAlexander, M. Saitow, X. Wang,
    P. Verma, M. H. Lechner, A. Jiang, S. Behnle, A. G. Heide,
    M. F. Herbst, and D. L. Poole

             Previous Authors, Complete List of Code Contributors,
                       and Citations for Specific Modules
    https://github.com/psi4/psi4/blob/master/codemeta.json
    https://github.com/psi4/psi4/graphs/contributors
    http://psicode.org/psi4manual/master/introduction.html#citing-psifour

    -----------------------------------------------------------------------


    Psi4 started on: Thursday, 17 July 2025 11:24AM

    Process ID: 73118
    Host:       Joses-MacBook-Pro-2.local
    PSIDATADIR: /Users/joseantoniorodriguesromero/anaconda3/share/psi4
    Memory:     500.0 MiB
    Threads:    1
    
  ==> Input File <==

--------------------------------------------------------------------------
molecule { 
-1 2
Mg   0.00000        0.60000        0.00000
Si   0.00000       -0.60000        0.00000
}

set { 
basis              cc-pvdz
reference          uks
maxiter            500
geom_maxiter       500
DAMPING_PERCENTAGE 1
guess              SAP
}

optimize('b3lyp')
--------------------------------------------------------------------------

Scratch directory: /tmp/
gradient() will perform analytic gradient computation.
   => Libint2 <=

    Primary   basis highest AM E, G, H:  6, 6, 3
    Auxiliary basis highest AM E, G, H:  7, 7, 4
    Onebody   basis highest AM E, G, H:  -, -, -
    Solid Harmonics ordering:            Gaussian

*** tstart() called on Joses-MacBook-Pro-2.local
*** at Thu Jul 17 11:24:41 2025

   => Loading Basis Set <=

    Name: CC-PVDZ
    Role: ORBITAL
    Keyword: BASIS
    atoms 1 entry MG         line   353 file /Users/joseantoniorodriguesromero/anaconda3/share/psi4/basis/cc-pvdz.gbs 
    atoms 2 entry SI         line   478 file /Users/joseantoniorodriguesromero/anaconda3/share/psi4/basis/cc-pvdz.gbs 


         ---------------------------------------------------------
                                   SCF
               by Justin Turney, Rob Parrish, Andy Simmonett
                          and Daniel G. A. Smith
                              UKS Reference
                        1 Threads,    500 MiB Core
         ---------------------------------------------------------

  ==> Geometry <==

    Molecular point group: c2v
    Full point group: C_inf_v

    Geometry (in Angstrom), charge = -1, multiplicity = 2:

       Center              X                  Y                   Z               Mass       
    ------------   -----------------  -----------------  -----------------  -----------------
         MG           0.000000000000     0.000000000000     0.646093921845    23.985041697000
         SI           0.000000000000     0.000000000000    -0.553906078155    27.976926534650

  Running in c2v symmetry.

  Rotational constants: A = ************  B =      0.90652  C =      0.90652 [cm^-1]
  Rotational constants: A = ************  B =  27176.89397  C =  27176.89397 [MHz]
  Nuclear repulsion =   74.084809493800009

  Charge       = -1
  Multiplicity = 2
  Electrons    = 27
  Nalpha       = 14
  Nbeta        = 13

  ==> Algorithm <==

  SCF Algorithm Type is DF.
  DIIS enabled.
  MOM disabled.
  Fractional occupation disabled.
  Guess Type is SAP.
  Energy threshold   = 1.00e-08
  Density threshold  = 1.00e-08
  Integral threshold = 1.00e-12

  ==> Primary Basis <==

  Basis Set: CC-PVDZ
    Blend: CC-PVDZ
    Number of shells: 16
    Number of basis functions: 36
    Number of Cartesian functions: 38
    Spherical Harmonics?: true
    Max angular momentum: 2

  ==> DFT Potential <==

   => LibXC <=

    Version 6.2.2
    S. Lehtola, C. Steigemann, M. J.T. Oliveira, and M. A.L. Marques.,  SoftwareX 7, 1–5 (2018) (10.1016/j.softx.2017.11.002)

   => Composite Functional: B3LYP <= 

    B3LYP Hyb-GGA Exchange-Correlation Functional

    P. J. Stephens, F. J. Devlin, C. F. Chabalowski, and M. J. Frisch.,  J. Phys. Chem. 98, 11623 (1994) (10.1021/j100096a001)

    Deriv               =              1
    GGA                 =           TRUE
    Meta                =          FALSE

    Exchange Hybrid     =           TRUE
    MP2 Hybrid          =          FALSE

   => Exchange Functionals <=

    0.0800   Slater exchange
    0.7200         Becke 88

   => Exact (HF) Exchange <=

    0.2000               HF 

   => Correlation Functionals <=

    0.1900   Vosko, Wilk & Nusair (VWN5_RPA)
    0.8100   Lee, Yang & Parr

   => LibXC Density Thresholds  <==

    XC_HYB_GGA_XC_B3LYP:  1.00E-15 

   => Molecular Quadrature <=

    Radial Scheme          =       TREUTLER
    Pruning Scheme         =           NONE
    Nuclear Scheme         =       TREUTLER

    Blocking Scheme        =         OCTREE
    BS radius alpha        =              1
    Pruning alpha          =              1
    Radial Points          =             75
    Spherical Points       =            302
    Total Points           =          42812
    Total Blocks           =            419
    Max Points             =            255
    Max Functions          =             36
    Weights Tolerance      =       1.00E-15

   => Loading Basis Set <=

    Name: (CC-PVDZ AUX)
    Role: JKFIT
    Keyword: DF_BASIS_SCF
    atoms 1 entry MG         line   576 file /Users/joseantoniorodriguesromero/anaconda3/share/psi4/basis/def2-universal-jkfit.gbs 
    atoms 2 entry SI         line   445 file /Users/joseantoniorodriguesromero/anaconda3/share/psi4/basis/cc-pvdz-jkfit.gbs 

  ==> Integral Setup <==

  DFHelper Memory: AOs need 0.003 GiB; user supplied 0.322 GiB. 
  Using in-core AOs.

  ==> MemDFJK: Density-Fitted J/K Matrices <==

    J tasked:                   Yes
    K tasked:                   Yes
    wK tasked:                   No
    OpenMP threads:               1
    Memory [MiB]:               329
    Algorithm:                 Core
    Schwarz Cutoff:           1E-12
    Mask sparsity (%):       0.0000
    Fitting Condition:        1E-10

   => Auxiliary Basis Set <=

  Basis Set: (CC-PVDZ AUX)
    Blend: CC-PVDZ-JKFIT + DEF2-UNIVERSAL-JKFIT
    Number of shells: 70
    Number of basis functions: 224
    Number of Cartesian functions: 267
    Spherical Harmonics?: true
    Max angular momentum: 4

  Cached 100.0% of DFT collocation blocks in 0.044 [GiB].

  Minimum eigenvalue in the overlap matrix is 5.8470602831E-04.
  Reciprocal condition number of the overlap matrix is 1.7027300527E-04.
    Using symmetric orthogonalization.

  ==> Pre-Iterations <==

  SCF Guess: Superposition of Atomic Potentials (doi:10.1021/acs.jctc.8b01089).

  ==> SAP guess <==

   => Molecular Quadrature <=

    Radial Scheme          =       TREUTLER
    Pruning Scheme         =           NONE
    Nuclear Scheme         =       TREUTLER

    Blocking Scheme        =         OCTREE
    BS radius alpha        =              1
    Pruning alpha          =              1
    Radial Points          =             75
    Spherical Points       =            302
    Total Points           =          42812
    Total Blocks           =            419
    Max Points             =            255
    Max Functions          =             36
    Weights Tolerance      =       1.00E-15

   -------------------------------------------------------
    Irrep   Nso     Nmo     Nalpha   Nbeta   Ndocc  Nsocc
   -------------------------------------------------------
     A1        18      18       8       7       7       1
     A2         2       2       0       0       0       0
     B1         8       8       3       3       3       0
     B2         8       8       3       3       3       0
   -------------------------------------------------------
    Total      36      36      14      13      13       1
   -------------------------------------------------------

  ==> Iterations <==

                           Total Energy        Delta E     RMS |[F,P]|

    Occupation by irrep:
             A1    A2    B1    B2 
    DOCC [     8,    0,    3,    2 ]
    SOCC [     0,    0,    0,    1 ]
    NA   [     8,    0,    3,    3 ]
    NB   [     8,    0,    3,    2 ]

   @DF-UKS iter   1:  -488.22543794087341   -4.88225e+02   2.61298e-02 ADIIS/DIIS
    Occupation by irrep:
             A1    A2    B1    B2 
    DOCC [     7,    0,    3,    3 ]
    SOCC [     1,    0,    0,    0 ]
    NA   [     8,    0,    3,    3 ]
    NB   [     7,    0,    3,    3 ]

   @DF-UKS iter   2:  -487.33039392353606    8.95044e-01   3.93892e-02 ADIIS/DIIS/DAMP=1%
   @DF-UKS iter   3:  -488.47461535735766   -1.14422e+00   5.66034e-03 ADIIS/DIIS/DAMP=1%
   @DF-UKS iter   4:  -488.59270936374207   -1.18094e-01   5.67591e-03 ADIIS/DIIS/DAMP=1%
   @DF-UKS iter   5:  -488.61029623383570   -1.75869e-02   8.13071e-04 ADIIS/DIIS/DAMP=1%
   @DF-UKS iter   6:  -488.60852529086458    1.77094e-03   2.39035e-04 ADIIS/DIIS/DAMP=1%
   @DF-UKS iter   7:  -488.60944853460023   -9.23244e-04   2.69951e-05 DIIS/DAMP=1%
   @DF-UKS iter   8:  -488.60977281755964   -3.24283e-04   1.09432e-05 DIIS/DAMP=1%
   @DF-UKS iter   9:  -488.60977963476057   -6.81720e-06   1.55046e-06 DIIS/DAMP=1%
   @DF-UKS iter  10:  -488.60976587667386    1.37581e-05   5.11975e-07 DIIS/DAMP=1%
   @DF-UKS iter  11:  -488.60976322152078    2.65515e-06   4.85953e-08 DIIS/DAMP=1%
   @DF-UKS iter  12:  -488.60976399076930   -7.69249e-07   9.30546e-09 DIIS/DAMP=1%
   @DF-UKS iter  13:  -488.60976405800619   -6.72369e-08   2.29880e-09 DIIS/DAMP=1%
   @DF-UKS iter  14:  -488.60976404011848    1.78877e-08   5.02782e-10 DIIS/DAMP=1%
   @DF-UKS iter  15:  -488.60976404224647   -2.12799e-09   1.21348e-10 DIIS/DAMP=1%
  Energy and wave function converged.


  ==> Post-Iterations <==

   Electrons on quadrature grid:
      Nalpha   =   13.9999985685 ; deviation = -1.431e-06
      Nbeta    =   12.9999985509 ; deviation = -1.449e-06
      Ntotal   =   26.9999971195 ; deviation = -2.881e-06 

   @Spin Contamination Metric:   6.843194537E-03
   @S^2 Expected:                7.500000000E-01
   @S^2 Observed:                7.568431945E-01
   @S   Expected:                5.000000000E-01
   @S   Observed:                5.000000000E-01

    Orbital Energies [Eh]
    ---------------------

    Alpha Occupied:                                                       

       1A1   -65.981685     2A1   -46.798221     3A1    -5.184673  
       4A1    -3.590137     1B1    -3.512339     1B2    -3.512339  
       5A1    -3.133239     6A1    -1.908361     2B2    -1.854618  
       2B1    -1.854618     7A1    -0.218694     8A1    -0.005548  
       3B1     0.002295     3B2     0.002295  

    Alpha Virtual:                                                        

       9A1     0.149668     4B1     0.183195     4B2     0.183195  
      10A1     0.198787    11A1     0.270837     5B2     0.306151  
       5B1     0.306151    12A1     0.425542     1A2     0.425543  
       6B1     0.485280     6B2     0.485280    13A1     0.517602  
      14A1     0.579224     7B1     0.650262     7B2     0.650262  
      15A1     0.680397    16A1     0.730558     2A2     0.730560  
       8B2     0.916079     8B1     0.916079    17A1     1.179630  
      18A1     3.045915  

    Beta Occupied:                                                        

       1A1   -65.981039     2A1   -46.796312     3A1    -5.184053  
       4A1    -3.587386     1B2    -3.512217     1B1    -3.512217  
       5A1    -3.130495     6A1    -1.905217     2B1    -1.852309  
       2B2    -1.852309     7A1    -0.207053     3B2     0.005108  
       3B1     0.005108  

    Beta Virtual:                                                         

       8A1     0.070003     9A1     0.172462     4B1     0.191185  
       4B2     0.191185    10A1     0.204363    11A1     0.299882  
       5B1     0.320700     5B2     0.320700    12A1     0.433788  
       1A2     0.433791     6B2     0.498953     6B1     0.498953  
      13A1     0.534585    14A1     0.602863     7B2     0.668265  
       7B1     0.668265    15A1     0.689264    16A1     0.740607  
       2A2     0.740609     8B2     0.929776     8B1     0.929776  
      17A1     1.194809    18A1     3.058122  

    Final Occupation by Irrep:
             A1    A2    B1    B2 
    DOCC [     7,    0,    3,    3 ]
    SOCC [     1,    0,    0,    0 ]
    NA   [     8,    0,    3,    3 ]
    NB   [     7,    0,    3,    3 ]

  @DF-UKS Final Energy:  -488.60976404224647

   => Energetics <=

    Nuclear Repulsion Energy =             74.0848094938000088
    One-Electron Energy =                -828.5566182065314251
    Two-Electron Energy =                 296.3983333422377200
    DFT Exchange-Correlation Energy =     -30.5362886717527289
    Empirical Dispersion Energy =           0.0000000000000000
    VV10 Nonlocal Energy =                  0.0000000000000000
    Total Energy =                       -488.6097640422464679

  UHF NO Occupations:
  HONO-2 :    3 B2 1.9991104
  HONO-1 :    7 A1 1.9983560
  HONO-0 :    8 A1 1.0000000
  LUNO+0 :    9 A1 0.0016440
  LUNO+1 :    4 B2 0.0008896
  LUNO+2 :    4 B1 0.0008896
  LUNO+3 :   10 A1 0.0000004


Computation Completed


Properties will be evaluated at   0.000000,   0.000000,   0.000000 [a0]

Properties computed using the SCF density matrix


 Multipole Moments:

 ------------------------------------------------------------------------------------
     Multipole            Electronic (a.u.)      Nuclear  (a.u.)        Total (a.u.)
 ------------------------------------------------------------------------------------

 L = 1.  Multiply by 2.5417464519 to convert [e a0] to [Debye]
 Dipole X            :          0.0000000            0.0000000            0.0000000
 Dipole Y            :          0.0000000            0.0000000            0.0000000
 Dipole Z            :          0.0321849           -0.0029443            0.0292406
 Magnitude           :                                                    0.0292406

 ------------------------------------------------------------------------------------

*** tstop() called on Joses-MacBook-Pro-2.local at Thu Jul 17 11:24:43 2025
Module time:
	user time   =      18.68 seconds =       0.31 minutes
	system time =       3.55 seconds =       0.06 minutes
	total time  =          2 seconds =       0.03 minutes
Total time:
	user time   =      18.68 seconds =       0.31 minutes
	system time =       3.55 seconds =       0.06 minutes
	total time  =          2 seconds =       0.03 minutes

*** tstart() called on Joses-MacBook-Pro-2.local
*** at Thu Jul 17 11:24:43 2025


         ------------------------------------------------------------
                                   SCF GRAD                          
                          Rob Parrish, Justin Turney,                
                       Andy Simmonett, and Alex Sokolov              
         ------------------------------------------------------------

  ==> Geometry <==

    Molecular point group: c2v
    Full point group: C_inf_v

    Geometry (in Angstrom), charge = -1, multiplicity = 2:

       Center              X                  Y                   Z               Mass       
    ------------   -----------------  -----------------  -----------------  -----------------
         MG           0.000000000000     0.000000000000     0.646093921845    23.985041697000
         SI           0.000000000000     0.000000000000    -0.553906078155    27.976926534650

  Nuclear repulsion =   74.084809493800009

  ==> Basis Set <==

  Basis Set: CC-PVDZ
    Blend: CC-PVDZ
    Number of shells: 16
    Number of basis functions: 36
    Number of Cartesian functions: 38
    Spherical Harmonics?: true
    Max angular momentum: 2

  ==> DFJKGrad: Density-Fitted SCF Gradients <==

    Gradient:                    1
    J tasked:                  Yes
    K tasked:                  Yes
    wK tasked:                  No
    OpenMP threads:              1
    Integrals threads:           1
    Memory [MiB]:              375
    Schwarz Cutoff:          1E-12
    Fitting Condition:       1E-10

   => Auxiliary Basis Set <=

  Basis Set: (CC-PVDZ AUX)
    Blend: CC-PVDZ-JKFIT + DEF2-UNIVERSAL-JKFIT
    Number of shells: 70
    Number of basis functions: 224
    Number of Cartesian functions: 267
    Spherical Harmonics?: true
    Max angular momentum: 4

  ==> DFT Potential <==

   => LibXC <=

    Version 6.2.2
    S. Lehtola, C. Steigemann, M. J.T. Oliveira, and M. A.L. Marques.,  SoftwareX 7, 1–5 (2018) (10.1016/j.softx.2017.11.002)

   => Composite Functional: B3LYP <= 

    B3LYP Hyb-GGA Exchange-Correlation Functional

    P. J. Stephens, F. J. Devlin, C. F. Chabalowski, and M. J. Frisch.,  J. Phys. Chem. 98, 11623 (1994) (10.1021/j100096a001)

    Deriv               =              1
    GGA                 =           TRUE
    Meta                =          FALSE

    Exchange Hybrid     =           TRUE
    MP2 Hybrid          =          FALSE

   => Exchange Functionals <=

    0.0800   Slater exchange
    0.7200         Becke 88

   => Exact (HF) Exchange <=

    0.2000               HF 

   => Correlation Functionals <=

    0.1900   Vosko, Wilk & Nusair (VWN5_RPA)
    0.8100   Lee, Yang & Parr

   => LibXC Density Thresholds  <==

    XC_HYB_GGA_XC_B3LYP:  1.00E-15 

   => Molecular Quadrature <=

    Radial Scheme          =       TREUTLER
    Pruning Scheme         =           NONE
    Nuclear Scheme         =       TREUTLER

    Blocking Scheme        =         OCTREE
    BS radius alpha        =              1
    Pruning alpha          =              1
    Radial Points          =             75
    Spherical Points       =            302
    Total Points           =          42812
    Total Blocks           =            419
    Max Points             =            255
    Max Functions          =             36
    Weights Tolerance      =       1.00E-15


  -Total Gradient:
     Atom            X                  Y                   Z
    ------   -----------------  -----------------  -----------------
       1       -0.000000000000     0.000000000000    -1.518374760772
       2        0.000000000000    -0.000000000000     1.518518659059


*** tstop() called on Joses-MacBook-Pro-2.local at Thu Jul 17 11:24:43 2025
Module time:
	user time   =       1.98 seconds =       0.03 minutes
	system time =       1.96 seconds =       0.03 minutes
	total time  =          0 seconds =       0.00 minutes
Total time:
	user time   =      20.66 seconds =       0.34 minutes
	system time =       5.51 seconds =       0.09 minutes
	total time  =          2 seconds =       0.03 minutes

    			-----------------------------------------

    			 OPTKING 3.0: for geometry optimizations 

    			     By R.A. King, Bethel University     

    			        with contributions from          

    			    A.V. Copan, J. Cayton, A. Heide      

    			-----------------------------------------

    
	                            ===> Fragment 1 <== 

	 Z (Atomic Numbers)          Masses                          Geom                  
	      12.000000            23.985042          0.00000000  0.00000000  1.22094056   
	      14.000000            27.976927          0.00000000  0.00000000 -1.04673079   

	 - Coordinate -           - BOHR/RAD -       - ANG/DEG -
	 R(1,2)           =         2.267671           1.200000


	        --- Internal Coordinate Step in ANG or DEG, aJ/ANG or AJ/DEG ---
	-------------------------------------------------------------------------------
	           Coordinate      Previous         Force          Change          New 
	           ----------      --------        ------          ------        ------
	               R(1,2)       1.20000       12.51006        0.00369       1.20369
	-------------------------------------------------------------------------------

	                                 ==> Convergence Check <==                                  
    
	Measures of convergence in internal coordinates in au.
    
	Criteria marked as inactive (o), active & met (*), and active & unmet ( ).

	----------------------------------------------------------------------------------------------
	   Step    Total Energy     Delta E     Max Force     RMS Force      Max Disp      RMS Disp   
	----------------------------------------------------------------------------------------------
	  Convergence Criteria     1.00e-06 *    3.00e-04 *             o    1.20e-03 *             o
	----------------------------------------------------------------------------------------------
	     1    -488.60976404   -4.89e+02      1.52e+00      1.52e+00 o    6.97e-03      6.97e-03 o  ~
	----------------------------------------------------------------------------------------------

Next Geometry in Ang 
	Fragment 1 (Ang)

	   Mg   0.0000000000   0.0000000000   0.6479382906
	   Si   0.0000000000   0.0000000000  -0.5557504469


    Structure for next step:
    Molecular point group: c2v
    Full point group: C_inf_v

    Geometry (in Angstrom), charge = -1, multiplicity = 2:

    MG           0.000000000000     0.000000000000     0.648079980942
    SI           0.000000000000     0.000000000000    -0.555608756617


Scratch directory: /tmp/
gradient() will perform analytic gradient computation.
   => Libint2 <=

    Primary   basis highest AM E, G, H:  6, 6, 3
    Auxiliary basis highest AM E, G, H:  7, 7, 4
    Onebody   basis highest AM E, G, H:  -, -, -
    Solid Harmonics ordering:            Gaussian

*** tstart() called on Joses-MacBook-Pro-2.local
*** at Thu Jul 17 11:24:43 2025

   => Loading Basis Set <=

    Name: CC-PVDZ
    Role: ORBITAL
    Keyword: BASIS
    atoms 1 entry MG         line   353 file /Users/joseantoniorodriguesromero/anaconda3/share/psi4/basis/cc-pvdz.gbs 
    atoms 2 entry SI         line   478 file /Users/joseantoniorodriguesromero/anaconda3/share/psi4/basis/cc-pvdz.gbs 


         ---------------------------------------------------------
                                   SCF
               by Justin Turney, Rob Parrish, Andy Simmonett
                          and Daniel G. A. Smith
                              UKS Reference
                        1 Threads,    500 MiB Core
         ---------------------------------------------------------

  ==> Geometry <==

    Molecular point group: c2v
    Full point group: C_inf_v

    Geometry (in Angstrom), charge = -1, multiplicity = 2:

       Center              X                  Y                   Z               Mass       
    ------------   -----------------  -----------------  -----------------  -----------------
         MG           0.000000000000     0.000000000000     0.648079980942    23.985041697000
         SI           0.000000000000     0.000000000000    -0.555608756617    27.976926534650

  Running in c2v symmetry.

  Rotational constants: A = ************  B =      0.90098  C =      0.90098 [cm^-1]
  Rotational constants: A = ************  B =  27010.58051  C =  27010.58051 [MHz]
  Nuclear repulsion =   73.857774538034747

  Charge       = -1
  Multiplicity = 2
  Electrons    = 27
  Nalpha       = 14
  Nbeta        = 13

  ==> Algorithm <==

  SCF Algorithm Type is DF.
  DIIS enabled.
  MOM disabled.
  Fractional occupation disabled.
  Guess Type is READ.
  Energy threshold   = 1.00e-08
  Density threshold  = 1.00e-08
  Integral threshold = 1.00e-12

  ==> Primary Basis <==

  Basis Set: CC-PVDZ
    Blend: CC-PVDZ
    Number of shells: 16
    Number of basis functions: 36
    Number of Cartesian functions: 38
    Spherical Harmonics?: true
    Max angular momentum: 2

  ==> DFT Potential <==

   => LibXC <=

    Version 6.2.2
    S. Lehtola, C. Steigemann, M. J.T. Oliveira, and M. A.L. Marques.,  SoftwareX 7, 1–5 (2018) (10.1016/j.softx.2017.11.002)

   => Composite Functional: B3LYP <= 

    B3LYP Hyb-GGA Exchange-Correlation Functional

    P. J. Stephens, F. J. Devlin, C. F. Chabalowski, and M. J. Frisch.,  J. Phys. Chem. 98, 11623 (1994) (10.1021/j100096a001)

    Deriv               =              1
    GGA                 =           TRUE
    Meta                =          FALSE

    Exchange Hybrid     =           TRUE
    MP2 Hybrid          =          FALSE

   => Exchange Functionals <=

    0.0800   Slater exchange
    0.7200         Becke 88

   => Exact (HF) Exchange <=

    0.2000               HF 

   => Correlation Functionals <=

    0.1900   Vosko, Wilk & Nusair (VWN5_RPA)
    0.8100   Lee, Yang & Parr

   => LibXC Density Thresholds  <==

    XC_HYB_GGA_XC_B3LYP:  1.00E-15 

   => Molecular Quadrature <=

    Radial Scheme          =       TREUTLER
    Pruning Scheme         =           NONE
    Nuclear Scheme         =       TREUTLER

    Blocking Scheme        =         OCTREE
    BS radius alpha        =              1
    Pruning alpha          =              1
    Radial Points          =             75
    Spherical Points       =            302
    Total Points           =          42812
    Total Blocks           =            419
    Max Points             =            256
    Max Functions          =             36
    Weights Tolerance      =       1.00E-15

   => Loading Basis Set <=

    Name: (CC-PVDZ AUX)
    Role: JKFIT
    Keyword: DF_BASIS_SCF
    atoms 1 entry MG         line   576 file /Users/joseantoniorodriguesromero/anaconda3/share/psi4/basis/def2-universal-jkfit.gbs 
    atoms 2 entry SI         line   445 file /Users/joseantoniorodriguesromero/anaconda3/share/psi4/basis/cc-pvdz-jkfit.gbs 

   => Loading Basis Set <=

    Name: CC-PVDZ
    Role: ORBITAL
    Keyword: BASIS
    atoms 1 entry MG         line   353 file /Users/joseantoniorodriguesromero/anaconda3/share/psi4/basis/cc-pvdz.gbs 
    atoms 2 entry SI         line   478 file /Users/joseantoniorodriguesromero/anaconda3/share/psi4/basis/cc-pvdz.gbs 

  Reading orbitals from file /tmp/doublet_MgSi.default.73118.180.npy, no projection.

  ==> Integral Setup <==

  DFHelper Memory: AOs need 0.003 GiB; user supplied 0.322 GiB. 
  Using in-core AOs.

  ==> MemDFJK: Density-Fitted J/K Matrices <==

    J tasked:                   Yes
    K tasked:                   Yes
    wK tasked:                   No
    OpenMP threads:               1
    Memory [MiB]:               329
    Algorithm:                 Core
    Schwarz Cutoff:           1E-12
    Mask sparsity (%):       0.0000
    Fitting Condition:        1E-10

   => Auxiliary Basis Set <=

  Basis Set: (CC-PVDZ AUX)
    Blend: CC-PVDZ-JKFIT + DEF2-UNIVERSAL-JKFIT
    Number of shells: 70
    Number of basis functions: 224
    Number of Cartesian functions: 267
    Spherical Harmonics?: true
    Max angular momentum: 4

  Cached 100.0% of DFT collocation blocks in 0.044 [GiB].

  Minimum eigenvalue in the overlap matrix is 5.8946322081E-04.
  Reciprocal condition number of the overlap matrix is 1.7166082087E-04.
    Using symmetric orthogonalization.

  ==> Pre-Iterations <==

  SCF Guess: Orbitals guess was supplied from a previous computation.

   -------------------------------------------------------
    Irrep   Nso     Nmo     Nalpha   Nbeta   Ndocc  Nsocc
   -------------------------------------------------------
     A1        18      18       8       7       7       1
     A2         2       2       0       0       0       0
     B1         8       8       3       3       3       0
     B2         8       8       3       3       3       0
   -------------------------------------------------------
    Total      36      36      14      13      13       1
   -------------------------------------------------------

  ==> Iterations <==

                           Total Energy        Delta E     RMS |[F,P]|

   @DF-UKS iter   0:  -488.62063358260986   -4.88621e+02   6.91153e-04 
   @DF-UKS iter   1:  -488.62027827985963    3.55303e-04   5.80493e-05 DIIS
   @DF-UKS iter   2:  -488.62027786857919    4.11280e-07   5.14990e-05 DIIS/DAMP=1%
   @DF-UKS iter   3:  -488.62041432736044   -1.36459e-04   1.68877e-05 DIIS/DAMP=1%
   @DF-UKS iter   4:  -488.62025732709560    1.57000e-04   3.40132e-06 DIIS/DAMP=1%
   @DF-UKS iter   5:  -488.62027591596848   -1.85889e-05   1.45608e-07 DIIS/DAMP=1%
   @DF-UKS iter   6:  -488.62027897216700   -3.05620e-06   5.04056e-08 DIIS/DAMP=1%
   @DF-UKS iter   7:  -488.62027915196660   -1.79800e-07   7.37696e-09 DIIS/DAMP=1%
   @DF-UKS iter   8:  -488.62027914938682    2.57978e-09   1.28783e-09 DIIS/DAMP=1%
  Energy and wave function converged.


  ==> Post-Iterations <==

   Electrons on quadrature grid:
      Nalpha   =   13.9999984748 ; deviation = -1.525e-06
      Nbeta    =   12.9999984565 ; deviation = -1.543e-06
      Ntotal   =   26.9999969313 ; deviation = -3.069e-06 

   @Spin Contamination Metric:   6.865249986E-03
   @S^2 Expected:                7.500000000E-01
   @S^2 Observed:                7.568652500E-01
   @S   Expected:                5.000000000E-01
   @S   Observed:                5.000000000E-01

    Orbital Energies [Eh]
    ---------------------

    Alpha Occupied:                                                       

       1A1   -65.980601     2A1   -46.796691     3A1    -5.182783  
       4A1    -3.587467     1B1    -3.510876     1B2    -3.510876  
       5A1    -3.131530     6A1    -1.906516     2B2    -1.852579  
       2B1    -1.852579     7A1    -0.218718     8A1    -0.005675  
       3B1     0.002478     3B2     0.002478  

    Alpha Virtual:                                                        

       9A1     0.149307     4B1     0.183116     4B2     0.183116  
      10A1     0.198770    11A1     0.270712     5B2     0.306127  
       5B1     0.306127    12A1     0.425831     1A2     0.425833  
       6B1     0.485174     6B2     0.485174    13A1     0.517221  
      14A1     0.578239     7B1     0.649732     7B2     0.649732  
      15A1     0.679651    16A1     0.730136     2A2     0.730139  
       8B2     0.916306     8B1     0.916306    17A1     1.176595  
      18A1     3.026433  

    Beta Occupied:                                                        

       1A1   -65.979955     2A1   -46.794780     3A1    -5.182161  
       4A1    -3.584712     1B1    -3.510754     1B2    -3.510754  
       5A1    -3.128777     6A1    -1.903389     2B2    -1.850264  
       2B1    -1.850264     7A1    -0.207086     3B1     0.005289  
       3B2     0.005289  

    Beta Virtual:                                                         

       8A1     0.069850     9A1     0.172168     4B1     0.191118  
       4B2     0.191118    10A1     0.204320    11A1     0.299709  
       5B2     0.320668     5B1     0.320668    12A1     0.434099  
       1A2     0.434102     6B1     0.498863     6B2     0.498863  
      13A1     0.534145    14A1     0.601897     7B1     0.667698  
       7B2     0.667698    15A1     0.688563    16A1     0.740164  
       2A2     0.740167     8B2     0.930076     8B1     0.930076  
      17A1     1.191804    18A1     3.038609  

    Final Occupation by Irrep:
             A1    A2    B1    B2 
    DOCC [     7,    0,    3,    3 ]
    SOCC [     1,    0,    0,    0 ]
    NA   [     8,    0,    3,    3 ]
    NB   [     7,    0,    3,    3 ]

  @DF-UKS Final Energy:  -488.62027914938682

   => Energetics <=

    Nuclear Repulsion Energy =             73.8577745380347466
    One-Electron Energy =                -828.1612453981730368
    Two-Electron Energy =                 296.2170644201986534
    DFT Exchange-Correlation Energy =     -30.5338727094471452
    Empirical Dispersion Energy =           0.0000000000000000
    VV10 Nonlocal Energy =                  0.0000000000000000
    Total Energy =                       -488.6202791493868176

  UHF NO Occupations:
  HONO-2 :    3 B2 1.9991080
  HONO-1 :    7 A1 1.9983499
  HONO-0 :    8 A1 1.0000000
  LUNO+0 :    9 A1 0.0016501
  LUNO+1 :    4 B2 0.0008920
  LUNO+2 :    4 B1 0.0008920
  LUNO+3 :   10 A1 0.0000004


Computation Completed


Properties will be evaluated at   0.000000,   0.000000,   0.000000 [a0]

Properties computed using the SCF density matrix


 Multipole Moments:

 ------------------------------------------------------------------------------------
     Multipole            Electronic (a.u.)      Nuclear  (a.u.)        Total (a.u.)
 ------------------------------------------------------------------------------------

 L = 1.  Multiply by 2.5417464519 to convert [e a0] to [Debye]
 Dipole X            :          0.0000000            0.0000000            0.0000000
 Dipole Y            :          0.0000000            0.0000000            0.0000000
 Dipole Z            :          0.0328947           -0.0029533            0.0299414
 Magnitude           :                                                    0.0299414

 ------------------------------------------------------------------------------------

*** tstop() called on Joses-MacBook-Pro-2.local at Thu Jul 17 11:24:44 2025
Module time:
	user time   =       6.02 seconds =       0.10 minutes
	system time =       3.58 seconds =       0.06 minutes
	total time  =          1 seconds =       0.02 minutes
Total time:
	user time   =      26.86 seconds =       0.45 minutes
	system time =       9.17 seconds =       0.15 minutes
	total time  =          3 seconds =       0.05 minutes

*** tstart() called on Joses-MacBook-Pro-2.local
*** at Thu Jul 17 11:24:44 2025


         ------------------------------------------------------------
                                   SCF GRAD                          
                          Rob Parrish, Justin Turney,                
                       Andy Simmonett, and Alex Sokolov              
         ------------------------------------------------------------

  ==> Geometry <==

    Molecular point group: c2v
    Full point group: C_inf_v

    Geometry (in Angstrom), charge = -1, multiplicity = 2:

       Center              X                  Y                   Z               Mass       
    ------------   -----------------  -----------------  -----------------  -----------------
         MG           0.000000000000     0.000000000000     0.648079980942    23.985041697000
         SI           0.000000000000     0.000000000000    -0.555608756617    27.976926534650

  Nuclear repulsion =   73.857774538034747

  ==> Basis Set <==

  Basis Set: CC-PVDZ
    Blend: CC-PVDZ
    Number of shells: 16
    Number of basis functions: 36
    Number of Cartesian functions: 38
    Spherical Harmonics?: true
    Max angular momentum: 2

  ==> DFJKGrad: Density-Fitted SCF Gradients <==

    Gradient:                    1
    J tasked:                  Yes
    K tasked:                  Yes
    wK tasked:                  No
    OpenMP threads:              1
    Integrals threads:           1
    Memory [MiB]:              375
    Schwarz Cutoff:          1E-12
    Fitting Condition:       1E-10

   => Auxiliary Basis Set <=

  Basis Set: (CC-PVDZ AUX)
    Blend: CC-PVDZ-JKFIT + DEF2-UNIVERSAL-JKFIT
    Number of shells: 70
    Number of basis functions: 224
    Number of Cartesian functions: 267
    Spherical Harmonics?: true
    Max angular momentum: 4

  ==> DFT Potential <==

   => LibXC <=

    Version 6.2.2
    S. Lehtola, C. Steigemann, M. J.T. Oliveira, and M. A.L. Marques.,  SoftwareX 7, 1–5 (2018) (10.1016/j.softx.2017.11.002)

   => Composite Functional: B3LYP <= 

    B3LYP Hyb-GGA Exchange-Correlation Functional

    P. J. Stephens, F. J. Devlin, C. F. Chabalowski, and M. J. Frisch.,  J. Phys. Chem. 98, 11623 (1994) (10.1021/j100096a001)

    Deriv               =              1
    GGA                 =           TRUE
    Meta                =          FALSE

    Exchange Hybrid     =           TRUE
    MP2 Hybrid          =          FALSE

   => Exchange Functionals <=

    0.0800   Slater exchange
    0.7200         Becke 88

   => Exact (HF) Exchange <=

    0.2000               HF 

   => Correlation Functionals <=

    0.1900   Vosko, Wilk & Nusair (VWN5_RPA)
    0.8100   Lee, Yang & Parr

   => LibXC Density Thresholds  <==

    XC_HYB_GGA_XC_B3LYP:  1.00E-15 

   => Molecular Quadrature <=

    Radial Scheme          =       TREUTLER
    Pruning Scheme         =           NONE
    Nuclear Scheme         =       TREUTLER

    Blocking Scheme        =         OCTREE
    BS radius alpha        =              1
    Pruning alpha          =              1
    Radial Points          =             75
    Spherical Points       =            302
    Total Points           =          42812
    Total Blocks           =            419
    Max Points             =            256
    Max Functions          =             36
    Weights Tolerance      =       1.00E-15


  -Total Gradient:
     Atom            X                  Y                   Z
    ------   -----------------  -----------------  -----------------
       1        0.000000000000     0.000000000000    -1.498321833870
       2        0.000000000000     0.000000000000     1.498468428677


*** tstop() called on Joses-MacBook-Pro-2.local at Thu Jul 17 11:24:45 2025
Module time:
	user time   =       2.15 seconds =       0.04 minutes
	system time =       1.80 seconds =       0.03 minutes
	total time  =          1 seconds =       0.02 minutes
Total time:
	user time   =      29.01 seconds =       0.48 minutes
	system time =      10.98 seconds =       0.18 minutes
	total time  =          4 seconds =       0.07 minutes

    			-----------------------------------------

    			 OPTKING 3.0: for geometry optimizations 

    			     By R.A. King, Bethel University     

    			        with contributions from          

    			    A.V. Copan, J. Cayton, A. Heide      

    			-----------------------------------------

    
	                            ===> Fragment 1 <== 

	 Z (Atomic Numbers)          Masses                          Geom                  
	      12.000000            23.985042          0.00000000  0.00000000  1.22469367   
	      14.000000            27.976927          0.00000000  0.00000000 -1.04994838   

	 - Coordinate -           - BOHR/RAD -       - ANG/DEG -
	 R(1,2)           =         2.274642           1.203689


	        --- Internal Coordinate Step in ANG or DEG, aJ/ANG or AJ/DEG ---
	-------------------------------------------------------------------------------
	           Coordinate      Previous         Force          Change          New 
	           ----------      --------        ------          ------        ------
	               R(1,2)       1.20369       12.34486        0.00728       1.21097
	-------------------------------------------------------------------------------

	                                 ==> Convergence Check <==                                  
    
	Measures of convergence in internal coordinates in au.
    
	Criteria marked as inactive (o), active & met (*), and active & unmet ( ).

	----------------------------------------------------------------------------------------------
	   Step    Total Energy     Delta E     Max Force     RMS Force      Max Disp      RMS Disp   
	----------------------------------------------------------------------------------------------
	  Convergence Criteria     1.00e-06 *    3.00e-04 *             o    1.20e-03 *             o
	----------------------------------------------------------------------------------------------
	     2    -488.62027915   -1.05e-02      1.50e+00      1.50e+00 o    1.38e-02      1.38e-02 o  ~
	----------------------------------------------------------------------------------------------

Next Geometry in Ang 
	Fragment 1 (Ang)

	   Mg   0.0000000000   0.0000000000   0.6517194956
	   Si   0.0000000000   0.0000000000  -0.5592482713


    Structure for next step:
    Molecular point group: c2v
    Full point group: C_inf_v

    Geometry (in Angstrom), charge = -1, multiplicity = 2:

    MG           0.000000000000     0.000000000000     0.651999094824
    SI           0.000000000000     0.000000000000    -0.558968672145


Scratch directory: /tmp/
gradient() will perform analytic gradient computation.
   => Libint2 <=

    Primary   basis highest AM E, G, H:  6, 6, 3
    Auxiliary basis highest AM E, G, H:  7, 7, 4
    Onebody   basis highest AM E, G, H:  -, -, -
    Solid Harmonics ordering:            Gaussian

*** tstart() called on Joses-MacBook-Pro-2.local
*** at Thu Jul 17 11:24:45 2025

   => Loading Basis Set <=

    Name: CC-PVDZ
    Role: ORBITAL
    Keyword: BASIS
    atoms 1 entry MG         line   353 file /Users/joseantoniorodriguesromero/anaconda3/share/psi4/basis/cc-pvdz.gbs 
    atoms 2 entry SI         line   478 file /Users/joseantoniorodriguesromero/anaconda3/share/psi4/basis/cc-pvdz.gbs 


         ---------------------------------------------------------
                                   SCF
               by Justin Turney, Rob Parrish, Andy Simmonett
                          and Daniel G. A. Smith
                              UKS Reference
                        1 Threads,    500 MiB Core
         ---------------------------------------------------------

  ==> Geometry <==

    Molecular point group: c2v
    Full point group: C_inf_v

    Geometry (in Angstrom), charge = -1, multiplicity = 2:

       Center              X                  Y                   Z               Mass       
    ------------   -----------------  -----------------  -----------------  -----------------
         MG           0.000000000000     0.000000000000     0.651999094824    23.985041697000
         SI           0.000000000000     0.000000000000    -0.558968672145    27.976926534650

  Running in c2v symmetry.

  Rotational constants: A = ************  B =      0.89018  C =      0.89018 [cm^-1]
  Rotational constants: A = ************  B =  26686.83960  C =  26686.83960 [MHz]
  Nuclear repulsion =   73.413821422422942

  Charge       = -1
  Multiplicity = 2
  Electrons    = 27
  Nalpha       = 14
  Nbeta        = 13

  ==> Algorithm <==

  SCF Algorithm Type is DF.
  DIIS enabled.
  MOM disabled.
  Fractional occupation disabled.
  Guess Type is READ.
  Energy threshold   = 1.00e-08
  Density threshold  = 1.00e-08
  Integral threshold = 1.00e-12

  ==> Primary Basis <==

  Basis Set: CC-PVDZ
    Blend: CC-PVDZ
    Number of shells: 16
    Number of basis functions: 36
    Number of Cartesian functions: 38
    Spherical Harmonics?: true
    Max angular momentum: 2

  ==> DFT Potential <==

   => LibXC <=

    Version 6.2.2
    S. Lehtola, C. Steigemann, M. J.T. Oliveira, and M. A.L. Marques.,  SoftwareX 7, 1–5 (2018) (10.1016/j.softx.2017.11.002)

   => Composite Functional: B3LYP <= 

    B3LYP Hyb-GGA Exchange-Correlation Functional

    P. J. Stephens, F. J. Devlin, C. F. Chabalowski, and M. J. Frisch.,  J. Phys. Chem. 98, 11623 (1994) (10.1021/j100096a001)

    Deriv               =              1
    GGA                 =           TRUE
    Meta                =          FALSE

    Exchange Hybrid     =           TRUE
    MP2 Hybrid          =          FALSE

   => Exchange Functionals <=

    0.0800   Slater exchange
    0.7200         Becke 88

   => Exact (HF) Exchange <=

    0.2000               HF 

   => Correlation Functionals <=

    0.1900   Vosko, Wilk & Nusair (VWN5_RPA)
    0.8100   Lee, Yang & Parr

   => LibXC Density Thresholds  <==

    XC_HYB_GGA_XC_B3LYP:  1.00E-15 

   => Molecular Quadrature <=

    Radial Scheme          =       TREUTLER
    Pruning Scheme         =           NONE
    Nuclear Scheme         =       TREUTLER

    Blocking Scheme        =         OCTREE
    BS radius alpha        =              1
    Pruning alpha          =              1
    Radial Points          =             75
    Spherical Points       =            302
    Total Points           =          42813
    Total Blocks           =            418
    Max Points             =            254
    Max Functions          =             36
    Weights Tolerance      =       1.00E-15

   => Loading Basis Set <=

    Name: (CC-PVDZ AUX)
    Role: JKFIT
    Keyword: DF_BASIS_SCF
    atoms 1 entry MG         line   576 file /Users/joseantoniorodriguesromero/anaconda3/share/psi4/basis/def2-universal-jkfit.gbs 
    atoms 2 entry SI         line   445 file /Users/joseantoniorodriguesromero/anaconda3/share/psi4/basis/cc-pvdz-jkfit.gbs 

   => Loading Basis Set <=

    Name: CC-PVDZ
    Role: ORBITAL
    Keyword: BASIS
    atoms 1 entry MG         line   353 file /Users/joseantoniorodriguesromero/anaconda3/share/psi4/basis/cc-pvdz.gbs 
    atoms 2 entry SI         line   478 file /Users/joseantoniorodriguesromero/anaconda3/share/psi4/basis/cc-pvdz.gbs 

  Reading orbitals from file /tmp/doublet_MgSi.default.73118.180.npy, no projection.

  ==> Integral Setup <==

  DFHelper Memory: AOs need 0.003 GiB; user supplied 0.322 GiB. 
  Using in-core AOs.

  ==> MemDFJK: Density-Fitted J/K Matrices <==

    J tasked:                   Yes
    K tasked:                   Yes
    wK tasked:                   No
    OpenMP threads:               1
    Memory [MiB]:               329
    Algorithm:                 Core
    Schwarz Cutoff:           1E-12
    Mask sparsity (%):       0.0000
    Fitting Condition:        1E-10

   => Auxiliary Basis Set <=

  Basis Set: (CC-PVDZ AUX)
    Blend: CC-PVDZ-JKFIT + DEF2-UNIVERSAL-JKFIT
    Number of shells: 70
    Number of basis functions: 224
    Number of Cartesian functions: 267
    Spherical Harmonics?: true
    Max angular momentum: 4

  Cached 100.0% of DFT collocation blocks in 0.044 [GiB].

  Minimum eigenvalue in the overlap matrix is 5.9893181892E-04.
  Reciprocal condition number of the overlap matrix is 1.7442337108E-04.
    Using symmetric orthogonalization.

  ==> Pre-Iterations <==

  SCF Guess: Orbitals guess was supplied from a previous computation.

   -------------------------------------------------------
    Irrep   Nso     Nmo     Nalpha   Nbeta   Ndocc  Nsocc
   -------------------------------------------------------
     A1        18      18       8       7       7       1
     A2         2       2       0       0       0       0
     B1         8       8       3       3       3       0
     B2         8       8       3       3       3       0
   -------------------------------------------------------
    Total      36      36      14      13      13       1
   -------------------------------------------------------

  ==> Iterations <==

                           Total Energy        Delta E     RMS |[F,P]|

   @DF-UKS iter   0:  -488.64126267130848   -4.88641e+02   1.34731e-03 
   @DF-UKS iter   1:  -488.64062176351257    6.40908e-04   1.10113e-04 ADIIS/DIIS
   @DF-UKS iter   2:  -488.64062030623626    1.45728e-06   9.70851e-05 DIIS/DAMP=1%
   @DF-UKS iter   3:  -488.64087996111084   -2.59655e-04   3.25889e-05 DIIS/DAMP=1%
   @DF-UKS iter   4:  -488.64058264831345    2.97313e-04   6.48158e-06 DIIS/DAMP=1%
   @DF-UKS iter   5:  -488.64061861246870   -3.59642e-05   2.87794e-07 DIIS/DAMP=1%
   @DF-UKS iter   6:  -488.64062451790210   -5.90543e-06   9.67906e-08 DIIS/DAMP=1%
   @DF-UKS iter   7:  -488.64062487885076   -3.60949e-07   1.40391e-08 DIIS/DAMP=1%
   @DF-UKS iter   8:  -488.64062487212624    6.72452e-09   2.36505e-09 DIIS/DAMP=1%
  Energy and wave function converged.


  ==> Post-Iterations <==

   Electrons on quadrature grid:
      Nalpha   =   13.9999983125 ; deviation = -1.688e-06
      Nbeta    =   12.9999982931 ; deviation = -1.707e-06
      Ntotal   =   26.9999966056 ; deviation = -3.394e-06 

   @Spin Contamination Metric:   6.908507946E-03
   @S^2 Expected:                7.500000000E-01
   @S^2 Observed:                7.569085079E-01
   @S   Expected:                5.000000000E-01
   @S   Observed:                5.000000000E-01

    Orbital Energies [Eh]
    ---------------------

    Alpha Occupied:                                                       

       1A1   -65.978484     2A1   -46.793675     3A1    -5.179124  
       4A1    -3.582322     1B1    -3.508033     1B2    -3.508033  
       5A1    -3.128126     6A1    -1.902864     2B2    -1.848592  
       2B1    -1.848592     7A1    -0.218778     8A1    -0.005928  
       3B2     0.002842     3B1     0.002842  

    Alpha Virtual:                                                        

       9A1     0.148582     4B2     0.182958     4B1     0.182958  
      10A1     0.198734    11A1     0.270462     5B1     0.306080  
       5B2     0.306080    12A1     0.426402     1A2     0.426404  
       6B2     0.484966     6B1     0.484966    13A1     0.516449  
      14A1     0.576293     7B1     0.648693     7B2     0.648693  
      15A1     0.678164    16A1     0.729305     2A2     0.729308  
       8B1     0.916754     8B2     0.916754    17A1     1.170676  
      18A1     2.988218  

    Beta Occupied:                                                        

       1A1   -65.977836     2A1   -46.791760     3A1    -5.178495  
       4A1    -3.579558     1B1    -3.507910     1B2    -3.507910  
       5A1    -3.125355     6A1    -1.899768     2B2    -1.846268  
       2B1    -1.846268     7A1    -0.207163     3B2     0.005647  
       3B1     0.005647  

    Beta Virtual:                                                         

       8A1     0.069546     9A1     0.171574     4B2     0.190982  
       4B1     0.190982    10A1     0.204234    11A1     0.299365  
       5B1     0.320605     5B2     0.320605    12A1     0.434713  
       1A2     0.434716     6B2     0.498689     6B1     0.498689  
      13A1     0.533249    14A1     0.599989     7B1     0.666587  
       7B2     0.666587    15A1     0.687173    16A1     0.739292  
       2A2     0.739295     8B1     0.930666     8B2     0.930666  
      17A1     1.185940    18A1     3.000333  

    Final Occupation by Irrep:
             A1    A2    B1    B2 
    DOCC [     7,    0,    3,    3 ]
    SOCC [     1,    0,    0,    0 ]
    NA   [     8,    0,    3,    3 ]
    NB   [     7,    0,    3,    3 ]

  @DF-UKS Final Energy:  -488.64062487212624

   => Energetics <=

    Nuclear Repulsion Energy =             73.4138214224229415
    One-Electron Energy =                -827.3876110333605993
    Two-Electron Energy =                 295.8623566782730450
    DFT Exchange-Correlation Energy =     -30.5291919394616720
    Empirical Dispersion Energy =           0.0000000000000000
    VV10 Nonlocal Energy =                  0.0000000000000000
    Total Energy =                       -488.6406248721262386

  UHF NO Occupations:
  HONO-2 :    3 B1 1.9991032
  HONO-1 :    7 A1 1.9983378
  HONO-0 :    8 A1 1.0000000
  LUNO+0 :    9 A1 0.0016622
  LUNO+1 :    4 B1 0.0008968
  LUNO+2 :    4 B2 0.0008968
  LUNO+3 :   10 A1 0.0000004


Computation Completed


Properties will be evaluated at   0.000000,   0.000000,   0.000000 [a0]

Properties computed using the SCF density matrix


 Multipole Moments:

 ------------------------------------------------------------------------------------
     Multipole            Electronic (a.u.)      Nuclear  (a.u.)        Total (a.u.)
 ------------------------------------------------------------------------------------

 L = 1.  Multiply by 2.5417464519 to convert [e a0] to [Debye]
 Dipole X            :          0.0000000            0.0000000            0.0000000
 Dipole Y            :          0.0000000            0.0000000            0.0000000
 Dipole Z            :          0.0343684           -0.0029712            0.0313972
 Magnitude           :                                                    0.0313972

 ------------------------------------------------------------------------------------

*** tstop() called on Joses-MacBook-Pro-2.local at Thu Jul 17 11:24:46 2025
Module time:
	user time   =       6.54 seconds =       0.11 minutes
	system time =       2.60 seconds =       0.04 minutes
	total time  =          1 seconds =       0.02 minutes
Total time:
	user time   =      35.65 seconds =       0.59 minutes
	system time =      13.81 seconds =       0.23 minutes
	total time  =          5 seconds =       0.08 minutes

*** tstart() called on Joses-MacBook-Pro-2.local
*** at Thu Jul 17 11:24:46 2025


         ------------------------------------------------------------
                                   SCF GRAD                          
                          Rob Parrish, Justin Turney,                
                       Andy Simmonett, and Alex Sokolov              
         ------------------------------------------------------------

  ==> Geometry <==

    Molecular point group: c2v
    Full point group: C_inf_v

    Geometry (in Angstrom), charge = -1, multiplicity = 2:

       Center              X                  Y                   Z               Mass       
    ------------   -----------------  -----------------  -----------------  -----------------
         MG           0.000000000000     0.000000000000     0.651999094824    23.985041697000
         SI           0.000000000000     0.000000000000    -0.558968672145    27.976926534650

  Nuclear repulsion =   73.413821422422942

  ==> Basis Set <==

  Basis Set: CC-PVDZ
    Blend: CC-PVDZ
    Number of shells: 16
    Number of basis functions: 36
    Number of Cartesian functions: 38
    Spherical Harmonics?: true
    Max angular momentum: 2

  ==> DFJKGrad: Density-Fitted SCF Gradients <==

    Gradient:                    1
    J tasked:                  Yes
    K tasked:                  Yes
    wK tasked:                  No
    OpenMP threads:              1
    Integrals threads:           1
    Memory [MiB]:              375
    Schwarz Cutoff:          1E-12
    Fitting Condition:       1E-10

   => Auxiliary Basis Set <=

  Basis Set: (CC-PVDZ AUX)
    Blend: CC-PVDZ-JKFIT + DEF2-UNIVERSAL-JKFIT
    Number of shells: 70
    Number of basis functions: 224
    Number of Cartesian functions: 267
    Spherical Harmonics?: true
    Max angular momentum: 4

  ==> DFT Potential <==

   => LibXC <=

    Version 6.2.2
    S. Lehtola, C. Steigemann, M. J.T. Oliveira, and M. A.L. Marques.,  SoftwareX 7, 1–5 (2018) (10.1016/j.softx.2017.11.002)

   => Composite Functional: B3LYP <= 

    B3LYP Hyb-GGA Exchange-Correlation Functional

    P. J. Stephens, F. J. Devlin, C. F. Chabalowski, and M. J. Frisch.,  J. Phys. Chem. 98, 11623 (1994) (10.1021/j100096a001)

    Deriv               =              1
    GGA                 =           TRUE
    Meta                =          FALSE

    Exchange Hybrid     =           TRUE
    MP2 Hybrid          =          FALSE

   => Exchange Functionals <=

    0.0800   Slater exchange
    0.7200         Becke 88

   => Exact (HF) Exchange <=

    0.2000               HF 

   => Correlation Functionals <=

    0.1900   Vosko, Wilk & Nusair (VWN5_RPA)
    0.8100   Lee, Yang & Parr

   => LibXC Density Thresholds  <==

    XC_HYB_GGA_XC_B3LYP:  1.00E-15 

   => Molecular Quadrature <=

    Radial Scheme          =       TREUTLER
    Pruning Scheme         =           NONE
    Nuclear Scheme         =       TREUTLER

    Blocking Scheme        =         OCTREE
    BS radius alpha        =              1
    Pruning alpha          =              1
    Radial Points          =             75
    Spherical Points       =            302
    Total Points           =          42813
    Total Blocks           =            418
    Max Points             =            254
    Max Functions          =             36
    Weights Tolerance      =       1.00E-15


  -Total Gradient:
     Atom            X                  Y                   Z
    ------   -----------------  -----------------  -----------------
       1        0.000000000000    -0.000000000000    -1.459793409236
       2       -0.000000000000     0.000000000000     1.459931287003


*** tstop() called on Joses-MacBook-Pro-2.local at Thu Jul 17 11:24:46 2025
Module time:
	user time   =       2.29 seconds =       0.04 minutes
	system time =       1.42 seconds =       0.02 minutes
	total time  =          0 seconds =       0.00 minutes
Total time:
	user time   =      37.94 seconds =       0.63 minutes
	system time =      15.23 seconds =       0.25 minutes
	total time  =          5 seconds =       0.08 minutes

    			-----------------------------------------

    			 OPTKING 3.0: for geometry optimizations 

    			     By R.A. King, Bethel University     

    			        with contributions from          

    			    A.V. Copan, J. Cayton, A. Heide      

    			-----------------------------------------

    
	                            ===> Fragment 1 <== 

	 Z (Atomic Numbers)          Masses                          Geom                  
	      12.000000            23.985042          0.00000000  0.00000000  1.23209972   
	      14.000000            27.976927          0.00000000  0.00000000 -1.05629770   

	 - Coordinate -           - BOHR/RAD -       - ANG/DEG -
	 R(1,2)           =         2.288397           1.210968


	        --- Internal Coordinate Step in ANG or DEG, aJ/ANG or AJ/DEG ---
	-------------------------------------------------------------------------------
	           Coordinate      Previous         Force          Change          New 
	           ----------      --------        ------          ------        ------
	               R(1,2)       1.21097       12.02740        0.02829       1.23926
	-------------------------------------------------------------------------------

	                                 ==> Convergence Check <==                                  
    
	Measures of convergence in internal coordinates in au.
    
	Criteria marked as inactive (o), active & met (*), and active & unmet ( ).

	----------------------------------------------------------------------------------------------
	   Step    Total Energy     Delta E     Max Force     RMS Force      Max Disp      RMS Disp   
	----------------------------------------------------------------------------------------------
	  Convergence Criteria     1.00e-06 *    3.00e-04 *             o    1.20e-03 *             o
	----------------------------------------------------------------------------------------------
	     3    -488.64062487   -2.03e-02      1.46e+00      1.46e+00 o    5.35e-02      5.35e-02 o  ~
	----------------------------------------------------------------------------------------------

Next Geometry in Ang 
	Fragment 1 (Ang)

	   Mg   0.0000000000   0.0000000000   0.6661449128
	   Si   0.0000000000   0.0000000000  -0.5731144901


    Structure for next step:
    Molecular point group: c2v
    Full point group: C_inf_v

    Geometry (in Angstrom), charge = -1, multiplicity = 2:

    MG           0.000000000000     0.000000000000     0.667231639877
    SI           0.000000000000     0.000000000000    -0.572027763099


Scratch directory: /tmp/
gradient() will perform analytic gradient computation.
   => Libint2 <=

    Primary   basis highest AM E, G, H:  6, 6, 3
    Auxiliary basis highest AM E, G, H:  7, 7, 4
    Onebody   basis highest AM E, G, H:  -, -, -
    Solid Harmonics ordering:            Gaussian

*** tstart() called on Joses-MacBook-Pro-2.local
*** at Thu Jul 17 11:24:46 2025

   => Loading Basis Set <=

    Name: CC-PVDZ
    Role: ORBITAL
    Keyword: BASIS
    atoms 1 entry MG         line   353 file /Users/joseantoniorodriguesromero/anaconda3/share/psi4/basis/cc-pvdz.gbs 
    atoms 2 entry SI         line   478 file /Users/joseantoniorodriguesromero/anaconda3/share/psi4/basis/cc-pvdz.gbs 


         ---------------------------------------------------------
                                   SCF
               by Justin Turney, Rob Parrish, Andy Simmonett
                          and Daniel G. A. Smith
                              UKS Reference
                        1 Threads,    500 MiB Core
         ---------------------------------------------------------

  ==> Geometry <==

    Molecular point group: c2v
    Full point group: C_inf_v

    Geometry (in Angstrom), charge = -1, multiplicity = 2:

       Center              X                  Y                   Z               Mass       
    ------------   -----------------  -----------------  -----------------  -----------------
         MG           0.000000000000     0.000000000000     0.667231639877    23.985041697000
         SI           0.000000000000     0.000000000000    -0.572027763099    27.976926534650

  Running in c2v symmetry.

  Rotational constants: A = ************  B =      0.85000  C =      0.85000 [cm^-1]
  Rotational constants: A = ************  B =  25482.25554  C =  25482.25554 [MHz]
  Nuclear repulsion =   71.737822750507533

  Charge       = -1
  Multiplicity = 2
  Electrons    = 27
  Nalpha       = 14
  Nbeta        = 13

  ==> Algorithm <==

  SCF Algorithm Type is DF.
  DIIS enabled.
  MOM disabled.
  Fractional occupation disabled.
  Guess Type is READ.
  Energy threshold   = 1.00e-08
  Density threshold  = 1.00e-08
  Integral threshold = 1.00e-12

  ==> Primary Basis <==

  Basis Set: CC-PVDZ
    Blend: CC-PVDZ
    Number of shells: 16
    Number of basis functions: 36
    Number of Cartesian functions: 38
    Spherical Harmonics?: true
    Max angular momentum: 2

  ==> DFT Potential <==

   => LibXC <=

    Version 6.2.2
    S. Lehtola, C. Steigemann, M. J.T. Oliveira, and M. A.L. Marques.,  SoftwareX 7, 1–5 (2018) (10.1016/j.softx.2017.11.002)

   => Composite Functional: B3LYP <= 

    B3LYP Hyb-GGA Exchange-Correlation Functional

    P. J. Stephens, F. J. Devlin, C. F. Chabalowski, and M. J. Frisch.,  J. Phys. Chem. 98, 11623 (1994) (10.1021/j100096a001)

    Deriv               =              1
    GGA                 =           TRUE
    Meta                =          FALSE

    Exchange Hybrid     =           TRUE
    MP2 Hybrid          =          FALSE

   => Exchange Functionals <=

    0.0800   Slater exchange
    0.7200         Becke 88

   => Exact (HF) Exchange <=

    0.2000               HF 

   => Correlation Functionals <=

    0.1900   Vosko, Wilk & Nusair (VWN5_RPA)
    0.8100   Lee, Yang & Parr

   => LibXC Density Thresholds  <==

    XC_HYB_GGA_XC_B3LYP:  1.00E-15 

   => Molecular Quadrature <=

    Radial Scheme          =       TREUTLER
    Pruning Scheme         =           NONE
    Nuclear Scheme         =       TREUTLER

    Blocking Scheme        =         OCTREE
    BS radius alpha        =              1
    Pruning alpha          =              1
    Radial Points          =             75
    Spherical Points       =            302
    Total Points           =          42817
    Total Blocks           =            417
    Max Points             =            254
    Max Functions          =             36
    Weights Tolerance      =       1.00E-15

   => Loading Basis Set <=

    Name: (CC-PVDZ AUX)
    Role: JKFIT
    Keyword: DF_BASIS_SCF
    atoms 1 entry MG         line   576 file /Users/joseantoniorodriguesromero/anaconda3/share/psi4/basis/def2-universal-jkfit.gbs 
    atoms 2 entry SI         line   445 file /Users/joseantoniorodriguesromero/anaconda3/share/psi4/basis/cc-pvdz-jkfit.gbs 

   => Loading Basis Set <=

    Name: CC-PVDZ
    Role: ORBITAL
    Keyword: BASIS
    atoms 1 entry MG         line   353 file /Users/joseantoniorodriguesromero/anaconda3/share/psi4/basis/cc-pvdz.gbs 
    atoms 2 entry SI         line   478 file /Users/joseantoniorodriguesromero/anaconda3/share/psi4/basis/cc-pvdz.gbs 

  Reading orbitals from file /tmp/doublet_MgSi.default.73118.180.npy, no projection.

  ==> Integral Setup <==

  DFHelper Memory: AOs need 0.003 GiB; user supplied 0.322 GiB. 
  Using in-core AOs.

  ==> MemDFJK: Density-Fitted J/K Matrices <==

    J tasked:                   Yes
    K tasked:                   Yes
    wK tasked:                   No
    OpenMP threads:               1
    Memory [MiB]:               329
    Algorithm:                 Core
    Schwarz Cutoff:           1E-12
    Mask sparsity (%):       0.0000
    Fitting Condition:        1E-10

   => Auxiliary Basis Set <=

  Basis Set: (CC-PVDZ AUX)
    Blend: CC-PVDZ-JKFIT + DEF2-UNIVERSAL-JKFIT
    Number of shells: 70
    Number of basis functions: 224
    Number of Cartesian functions: 267
    Spherical Harmonics?: true
    Max angular momentum: 4

  Cached 100.0% of DFT collocation blocks in 0.044 [GiB].

  Minimum eigenvalue in the overlap matrix is 6.3677767737E-04.
  Reciprocal condition number of the overlap matrix is 1.8546899172E-04.
    Using symmetric orthogonalization.

  ==> Pre-Iterations <==

  SCF Guess: Orbitals guess was supplied from a previous computation.

   -------------------------------------------------------
    Irrep   Nso     Nmo     Nalpha   Nbeta   Ndocc  Nsocc
   -------------------------------------------------------
     A1        18      18       8       7       7       1
     A2         2       2       0       0       0       0
     B1         8       8       3       3       3       0
     B2         8       8       3       3       3       0
   -------------------------------------------------------
    Total      36      36      14      13      13       1
   -------------------------------------------------------

  ==> Iterations <==

                           Total Energy        Delta E     RMS |[F,P]|

   @DF-UKS iter   0:  -488.71719842253464   -4.88717e+02   5.04039e-03 
   @DF-UKS iter   1:  -488.71487910771157    2.31931e-03   3.78851e-04 ADIIS/DIIS
   @DF-UKS iter   2:  -488.71486251453359    1.65932e-05   3.28426e-04 ADIIS/DIIS/DAMP=1%
   @DF-UKS iter   3:  -488.71577606065244   -9.13546e-04   1.18922e-04 ADIIS/DIIS/DAMP=1%
   @DF-UKS iter   4:  -488.71476069724156    1.01536e-03   2.26574e-05 DIIS/DAMP=1%
   @DF-UKS iter   5:  -488.71489201656181   -1.31319e-04   1.11974e-06 DIIS/DAMP=1%
   @DF-UKS iter   6:  -488.71491372180628   -2.17052e-05   3.45750e-07 DIIS/DAMP=1%
   @DF-UKS iter   7:  -488.71491512056622   -1.39876e-06   5.03006e-08 DIIS/DAMP=1%
   @DF-UKS iter   8:  -488.71491508379705    3.67692e-08   7.76742e-09 DIIS/DAMP=1%
   @DF-UKS iter   9:  -488.71491514125364   -5.74566e-08   1.63473e-09 DIIS/DAMP=1%
   @DF-UKS iter  10:  -488.71491512776322    1.34904e-08   4.71997e-10 DIIS/DAMP=1%
   @DF-UKS iter  11:  -488.71491512947762   -1.71440e-09   1.02633e-10 DIIS/DAMP=1%
  Energy and wave function converged.


  ==> Post-Iterations <==

   Electrons on quadrature grid:
      Nalpha   =   13.9999978714 ; deviation = -2.129e-06
      Nbeta    =   12.9999978500 ; deviation = -2.150e-06
      Ntotal   =   26.9999957214 ; deviation = -4.279e-06 

   @Spin Contamination Metric:   7.072798884E-03
   @S^2 Expected:                7.500000000E-01
   @S^2 Observed:                7.570727989E-01
   @S   Expected:                5.000000000E-01
   @S   Observed:                5.000000000E-01

    Orbital Energies [Eh]
    ---------------------

    Alpha Occupied:                                                       

       1A1   -65.970539     2A1   -46.782024     3A1    -5.165728  
       4A1    -3.563789     1B2    -3.497510     1B1    -3.497510  
       5A1    -3.114593     6A1    -1.888562     2B1    -1.833573  
       2B2    -1.833573     7A1    -0.219161     8A1    -0.006938  
       3B2     0.004278     3B1     0.004278  

    Alpha Virtual:                                                        

       9A1     0.145635     4B1     0.182328     4B2     0.182328  
      10A1     0.198563    11A1     0.269474     5B2     0.305904  
       5B1     0.305904    12A1     0.428616     1A2     0.428618  
       6B1     0.484193     6B2     0.484193    13A1     0.513173  
      14A1     0.568727     7B2     0.644746     7B1     0.644746  
      15A1     0.672255    16A1     0.726075     2A2     0.726078  
       8B2     0.918449     8B1     0.918449    17A1     1.148549  
      18A1     2.842820  

    Beta Occupied:                                                        

       1A1   -65.969883     2A1   -46.780092     3A1    -5.165073  
       4A1    -3.560989     1B2    -3.497381     1B1    -3.497381  
       5A1    -3.111748     6A1    -1.885584     2B1    -1.831208  
       2B2    -1.831208     7A1    -0.207610     3B1     0.007076  
       3B2     0.007076  

    Beta Virtual:                                                         

       8A1     0.068335     9A1     0.169127     4B1     0.190440  
       4B2     0.190440    10A1     0.203899    11A1     0.298005  
       5B2     0.320374     5B1     0.320374    12A1     0.437095  
       1A2     0.437098     6B1     0.498038     6B2     0.498038  
      13A1     0.529427    14A1     0.592608     7B2     0.662371  
       7B1     0.662371    15A1     0.681712    16A1     0.735904  
       2A2     0.735906     8B2     0.932899     8B1     0.932899  
      17A1     1.164010    18A1     2.854696  

    Final Occupation by Irrep:
             A1    A2    B1    B2 
    DOCC [     7,    0,    3,    3 ]
    SOCC [     1,    0,    0,    0 ]
    NA   [     8,    0,    3,    3 ]
    NB   [     7,    0,    3,    3 ]

  @DF-UKS Final Energy:  -488.71491512947762

   => Energetics <=

    Nuclear Repulsion Energy =             71.7378227505075330
    One-Electron Energy =                -824.4608322799264215
    Two-Electron Energy =                 294.5201188903438378
    DFT Exchange-Correlation Energy =     -30.5120244904025810
    Empirical Dispersion Energy =           0.0000000000000000
    VV10 Nonlocal Energy =                  0.0000000000000000
    Total Energy =                       -488.7149151294776175

  UHF NO Occupations:
  HONO-2 :    3 B2 1.9990863
  HONO-1 :    7 A1 1.9982893
  HONO-0 :    8 A1 1.0000000
  LUNO+0 :    9 A1 0.0017107
  LUNO+1 :    4 B2 0.0009137
  LUNO+2 :    4 B1 0.0009137
  LUNO+3 :   10 A1 0.0000004


Computation Completed


Properties will be evaluated at   0.000000,   0.000000,   0.000000 [a0]

Properties computed using the SCF density matrix


 Multipole Moments:

 ------------------------------------------------------------------------------------
     Multipole            Electronic (a.u.)      Nuclear  (a.u.)        Total (a.u.)
 ------------------------------------------------------------------------------------

 L = 1.  Multiply by 2.5417464519 to convert [e a0] to [Debye]
 Dipole X            :          0.0000000            0.0000000            0.0000000
 Dipole Y            :          0.0000000            0.0000000            0.0000000
 Dipole Z            :          0.0411143           -0.0030406            0.0380737
 Magnitude           :                                                    0.0380737

 ------------------------------------------------------------------------------------

*** tstop() called on Joses-MacBook-Pro-2.local at Thu Jul 17 11:24:47 2025
Module time:
	user time   =       9.47 seconds =       0.16 minutes
	system time =       2.29 seconds =       0.04 minutes
	total time  =          1 seconds =       0.02 minutes
Total time:
	user time   =      47.50 seconds =       0.79 minutes
	system time =      17.77 seconds =       0.30 minutes
	total time  =          6 seconds =       0.10 minutes

*** tstart() called on Joses-MacBook-Pro-2.local
*** at Thu Jul 17 11:24:47 2025


         ------------------------------------------------------------
                                   SCF GRAD                          
                          Rob Parrish, Justin Turney,                
                       Andy Simmonett, and Alex Sokolov              
         ------------------------------------------------------------

  ==> Geometry <==

    Molecular point group: c2v
    Full point group: C_inf_v

    Geometry (in Angstrom), charge = -1, multiplicity = 2:

       Center              X                  Y                   Z               Mass       
    ------------   -----------------  -----------------  -----------------  -----------------
         MG           0.000000000000     0.000000000000     0.667231639877    23.985041697000
         SI           0.000000000000     0.000000000000    -0.572027763099    27.976926534650

  Nuclear repulsion =   71.737822750507533

  ==> Basis Set <==

  Basis Set: CC-PVDZ
    Blend: CC-PVDZ
    Number of shells: 16
    Number of basis functions: 36
    Number of Cartesian functions: 38
    Spherical Harmonics?: true
    Max angular momentum: 2

  ==> DFJKGrad: Density-Fitted SCF Gradients <==

    Gradient:                    1
    J tasked:                  Yes
    K tasked:                  Yes
    wK tasked:                  No
    OpenMP threads:              1
    Integrals threads:           1
    Memory [MiB]:              375
    Schwarz Cutoff:          1E-12
    Fitting Condition:       1E-10

   => Auxiliary Basis Set <=

  Basis Set: (CC-PVDZ AUX)
    Blend: CC-PVDZ-JKFIT + DEF2-UNIVERSAL-JKFIT
    Number of shells: 70
    Number of basis functions: 224
    Number of Cartesian functions: 267
    Spherical Harmonics?: true
    Max angular momentum: 4

  ==> DFT Potential <==

   => LibXC <=

    Version 6.2.2
    S. Lehtola, C. Steigemann, M. J.T. Oliveira, and M. A.L. Marques.,  SoftwareX 7, 1–5 (2018) (10.1016/j.softx.2017.11.002)

   => Composite Functional: B3LYP <= 

    B3LYP Hyb-GGA Exchange-Correlation Functional

    P. J. Stephens, F. J. Devlin, C. F. Chabalowski, and M. J. Frisch.,  J. Phys. Chem. 98, 11623 (1994) (10.1021/j100096a001)

    Deriv               =              1
    GGA                 =           TRUE
    Meta                =          FALSE

    Exchange Hybrid     =           TRUE
    MP2 Hybrid          =          FALSE

   => Exchange Functionals <=

    0.0800   Slater exchange
    0.7200         Becke 88

   => Exact (HF) Exchange <=

    0.2000               HF 

   => Correlation Functionals <=

    0.1900   Vosko, Wilk & Nusair (VWN5_RPA)
    0.8100   Lee, Yang & Parr

   => LibXC Density Thresholds  <==

    XC_HYB_GGA_XC_B3LYP:  1.00E-15 

   => Molecular Quadrature <=

    Radial Scheme          =       TREUTLER
    Pruning Scheme         =           NONE
    Nuclear Scheme         =       TREUTLER

    Blocking Scheme        =         OCTREE
    BS radius alpha        =              1
    Pruning alpha          =              1
    Radial Points          =             75
    Spherical Points       =            302
    Total Points           =          42817
    Total Blocks           =            417
    Max Points             =            254
    Max Functions          =             36
    Weights Tolerance      =       1.00E-15


  -Total Gradient:
     Atom            X                  Y                   Z
    ------   -----------------  -----------------  -----------------
       1        0.000000000000    -0.000000000000    -1.322158732803
       2        0.000000000000     0.000000000000     1.322161295114


*** tstop() called on Joses-MacBook-Pro-2.local at Thu Jul 17 11:24:47 2025
Module time:
	user time   =       2.26 seconds =       0.04 minutes
	system time =       1.79 seconds =       0.03 minutes
	total time  =          0 seconds =       0.00 minutes
Total time:
	user time   =      49.76 seconds =       0.83 minutes
	system time =      19.56 seconds =       0.33 minutes
	total time  =          6 seconds =       0.10 minutes

    			-----------------------------------------

    			 OPTKING 3.0: for geometry optimizations 

    			     By R.A. King, Bethel University     

    			        with contributions from          

    			    A.V. Copan, J. Cayton, A. Heide      

    			-----------------------------------------

    
	                            ===> Fragment 1 <== 

	 Z (Atomic Numbers)          Masses                          Geom                  
	      12.000000            23.985042          0.00000000  0.00000000  1.26088506   
	      14.000000            27.976927          0.00000000  0.00000000 -1.08097581   

	 - Coordinate -           - BOHR/RAD -       - ANG/DEG -
	 R(1,2)           =         2.341861           1.239259


	        --- Internal Coordinate Step in ANG or DEG, aJ/ANG or AJ/DEG ---
	-------------------------------------------------------------------------------
	           Coordinate      Previous         Force          Change          New 
	           ----------      --------        ------          ------        ------
	               R(1,2)       1.23926       10.89291        0.18141       1.42067
	-------------------------------------------------------------------------------

	                                 ==> Convergence Check <==                                  
    
	Measures of convergence in internal coordinates in au.
    
	Criteria marked as inactive (o), active & met (*), and active & unmet ( ).

	----------------------------------------------------------------------------------------------
	   Step    Total Energy     Delta E     Max Force     RMS Force      Max Disp      RMS Disp   
	----------------------------------------------------------------------------------------------
	  Convergence Criteria     1.00e-06 *    3.00e-04 *             o    1.20e-03 *             o
	----------------------------------------------------------------------------------------------
	     4    -488.71491513   -7.43e-02      1.32e+00      1.32e+00 o    3.43e-01      3.43e-01 o  ~
	----------------------------------------------------------------------------------------------

Next Geometry in Ang 
	Fragment 1 (Ang)

	   Mg   0.0000000000   0.0000000000   0.7579376012
	   Si   0.0000000000   0.0000000000  -0.6627337244


    Structure for next step:
    Molecular point group: c2v
    Full point group: C_inf_v

    Geometry (in Angstrom), charge = -1, multiplicity = 2:

    MG           0.000000000000     0.000000000000     0.764905923642
    SI           0.000000000000     0.000000000000    -0.655765401897


Scratch directory: /tmp/
gradient() will perform analytic gradient computation.
   => Libint2 <=

    Primary   basis highest AM E, G, H:  6, 6, 3
    Auxiliary basis highest AM E, G, H:  7, 7, 4
    Onebody   basis highest AM E, G, H:  -, -, -
    Solid Harmonics ordering:            Gaussian

*** tstart() called on Joses-MacBook-Pro-2.local
*** at Thu Jul 17 11:24:48 2025

   => Loading Basis Set <=

    Name: CC-PVDZ
    Role: ORBITAL
    Keyword: BASIS
    atoms 1 entry MG         line   353 file /Users/joseantoniorodriguesromero/anaconda3/share/psi4/basis/cc-pvdz.gbs 
    atoms 2 entry SI         line   478 file /Users/joseantoniorodriguesromero/anaconda3/share/psi4/basis/cc-pvdz.gbs 


         ---------------------------------------------------------
                                   SCF
               by Justin Turney, Rob Parrish, Andy Simmonett
                          and Daniel G. A. Smith
                              UKS Reference
                        1 Threads,    500 MiB Core
         ---------------------------------------------------------

  ==> Geometry <==

    Molecular point group: c2v
    Full point group: C_inf_v

    Geometry (in Angstrom), charge = -1, multiplicity = 2:

       Center              X                  Y                   Z               Mass       
    ------------   -----------------  -----------------  -----------------  -----------------
[...]
	    14    -489.53011867   -9.57e-06      2.62e-04 *    2.62e-04 o    3.63e-03      3.63e-03 o  ~
	----------------------------------------------------------------------------------------------

Next Geometry in Ang 
	Fragment 1 (Ang)

	   Mg   0.0000000000   0.0000000000   1.3384724619
	   Si   0.0000000000   0.0000000000  -1.1476297469


    Structure for next step:
    Molecular point group: c2v
    Full point group: C_inf_v

    Geometry (in Angstrom), charge = -1, multiplicity = 2:

    MG           0.000000000000     0.000000000000     1.338546271830
    SI           0.000000000000     0.000000000000    -1.147555936977


Scratch directory: /tmp/
gradient() will perform analytic gradient computation.
   => Libint2 <=

    Primary   basis highest AM E, G, H:  6, 6, 3
    Auxiliary basis highest AM E, G, H:  7, 7, 4
    Onebody   basis highest AM E, G, H:  -, -, -
    Solid Harmonics ordering:            Gaussian

*** tstart() called on Joses-MacBook-Pro-2.local
*** at Thu Jul 17 11:25:10 2025

   => Loading Basis Set <=

    Name: CC-PVDZ
    Role: ORBITAL
    Keyword: BASIS
    atoms 1 entry MG         line   353 file /Users/joseantoniorodriguesromero/anaconda3/share/psi4/basis/cc-pvdz.gbs 
    atoms 2 entry SI         line   478 file /Users/joseantoniorodriguesromero/anaconda3/share/psi4/basis/cc-pvdz.gbs 


         ---------------------------------------------------------
                                   SCF
               by Justin Turney, Rob Parrish, Andy Simmonett
                          and Daniel G. A. Smith
                              UKS Reference
                        1 Threads,    500 MiB Core
         ---------------------------------------------------------

  ==> Geometry <==

    Molecular point group: c2v
    Full point group: C_inf_v

    Geometry (in Angstrom), charge = -1, multiplicity = 2:

       Center              X                  Y                   Z               Mass       
    ------------   -----------------  -----------------  -----------------  -----------------
         MG           0.000000000000     0.000000000000     1.338546271830    23.985041697000
         SI           0.000000000000     0.000000000000    -1.147555936977    27.976926534650

  Running in c2v symmetry.

  Rotational constants: A = ************  B =      0.21120  C =      0.21120 [cm^-1]
  Rotational constants: A = ************  B =   6331.75866  C =   6331.75866 [MHz]
  Nuclear repulsion =   35.759499781480329

  Charge       = -1
  Multiplicity = 2
  Electrons    = 27
  Nalpha       = 14
  Nbeta        = 13

  ==> Algorithm <==

  SCF Algorithm Type is DF.
  DIIS enabled.
  MOM disabled.
  Fractional occupation disabled.
  Guess Type is READ.
  Energy threshold   = 1.00e-08
  Density threshold  = 1.00e-08
  Integral threshold = 1.00e-12

  ==> Primary Basis <==

  Basis Set: CC-PVDZ
    Blend: CC-PVDZ
    Number of shells: 16
    Number of basis functions: 36
    Number of Cartesian functions: 38
    Spherical Harmonics?: true
    Max angular momentum: 2

  ==> DFT Potential <==

   => LibXC <=

    Version 6.2.2
    S. Lehtola, C. Steigemann, M. J.T. Oliveira, and M. A.L. Marques.,  SoftwareX 7, 1–5 (2018) (10.1016/j.softx.2017.11.002)

   => Composite Functional: B3LYP <= 

    B3LYP Hyb-GGA Exchange-Correlation Functional

    P. J. Stephens, F. J. Devlin, C. F. Chabalowski, and M. J. Frisch.,  J. Phys. Chem. 98, 11623 (1994) (10.1021/j100096a001)

    Deriv               =              1
    GGA                 =           TRUE
    Meta                =          FALSE

    Exchange Hybrid     =           TRUE
    MP2 Hybrid          =          FALSE

   => Exchange Functionals <=

    0.0800   Slater exchange
    0.7200         Becke 88

   => Exact (HF) Exchange <=

    0.2000               HF 

   => Correlation Functionals <=

    0.1900   Vosko, Wilk & Nusair (VWN5_RPA)
    0.8100   Lee, Yang & Parr

   => LibXC Density Thresholds  <==

    XC_HYB_GGA_XC_B3LYP:  1.00E-15 

   => Molecular Quadrature <=

    Radial Scheme          =       TREUTLER
    Pruning Scheme         =           NONE
    Nuclear Scheme         =       TREUTLER

    Blocking Scheme        =         OCTREE
    BS radius alpha        =              1
    Pruning alpha          =              1
    Radial Points          =             75
    Spherical Points       =            302
    Total Points           =          42939
    Total Blocks           =            419
    Max Points             =            255
    Max Functions          =             36
    Weights Tolerance      =       1.00E-15

   => Loading Basis Set <=

    Name: (CC-PVDZ AUX)
    Role: JKFIT
    Keyword: DF_BASIS_SCF
    atoms 1 entry MG         line   576 file /Users/joseantoniorodriguesromero/anaconda3/share/psi4/basis/def2-universal-jkfit.gbs 
    atoms 2 entry SI         line   445 file /Users/joseantoniorodriguesromero/anaconda3/share/psi4/basis/cc-pvdz-jkfit.gbs 

   => Loading Basis Set <=

    Name: CC-PVDZ
    Role: ORBITAL
    Keyword: BASIS
    atoms 1 entry MG         line   353 file /Users/joseantoniorodriguesromero/anaconda3/share/psi4/basis/cc-pvdz.gbs 
    atoms 2 entry SI         line   478 file /Users/joseantoniorodriguesromero/anaconda3/share/psi4/basis/cc-pvdz.gbs 

  Reading orbitals from file /tmp/doublet_MgSi.default.73118.180.npy, no projection.

  ==> Integral Setup <==

  DFHelper Memory: AOs need 0.003 GiB; user supplied 0.322 GiB. 
  Using in-core AOs.

  ==> MemDFJK: Density-Fitted J/K Matrices <==

    J tasked:                   Yes
    K tasked:                   Yes
    wK tasked:                   No
    OpenMP threads:               1
    Memory [MiB]:               329
    Algorithm:                 Core
    Schwarz Cutoff:           1E-12
    Mask sparsity (%):       0.0000
    Fitting Condition:        1E-10

   => Auxiliary Basis Set <=

  Basis Set: (CC-PVDZ AUX)
    Blend: CC-PVDZ-JKFIT + DEF2-UNIVERSAL-JKFIT
    Number of shells: 70
    Number of basis functions: 224
    Number of Cartesian functions: 267
    Spherical Harmonics?: true
    Max angular momentum: 4

  Cached 100.0% of DFT collocation blocks in 0.044 [GiB].

  Minimum eigenvalue in the overlap matrix is 1.6946609368E-02.
  Reciprocal condition number of the overlap matrix is 5.1892912530E-03.
    Using symmetric orthogonalization.

  ==> Pre-Iterations <==

  SCF Guess: Orbitals guess was supplied from a previous computation.

   -------------------------------------------------------
    Irrep   Nso     Nmo     Nalpha   Nbeta   Ndocc  Nsocc
   -------------------------------------------------------
     A1        18      18       8       8       8       0
     A2         2       2       0       0       0       0
     B1         8       8       3       2       2       1
     B2         8       8       3       3       3       0
   -------------------------------------------------------
    Total      36      36      14      13      13       1
   -------------------------------------------------------

  ==> Iterations <==

                           Total Energy        Delta E     RMS |[F,P]|

   @DF-UKS iter   0:  -489.53008287803527   -4.89530e+02   7.45126e-05 
   @DF-UKS iter   1:  -489.53011907457147   -3.61965e-05   1.64209e-05 DIIS
   @DF-UKS iter   2:  -489.53011774542290    1.32915e-06   4.74833e-05 DIIS/DAMP=1%
   @DF-UKS iter   3:  -489.53006076030005    5.69851e-05   5.87891e-06 DIIS/DAMP=1%
   @DF-UKS iter   4:  -489.53011815593254   -5.73956e-05   7.54287e-07 DIIS/DAMP=1%
   @DF-UKS iter   5:  -489.53011835169514   -1.95763e-07   1.75997e-07 DIIS/DAMP=1%
   @DF-UKS iter   6:  -489.53011919434175   -8.42647e-07   1.01022e-07 DIIS/DAMP=1%
   @DF-UKS iter   7:  -489.53011930417557   -1.09834e-07   5.08915e-08 DIIS/DAMP=1%
   @DF-UKS iter   8:  -489.53011924165071    6.25249e-08   1.66777e-08 DIIS/DAMP=1%
   @DF-UKS iter   9:  -489.53011926963148   -2.79808e-08   1.05904e-08 DIIS/DAMP=1%
   @DF-UKS iter  10:  -489.53011925836063    1.12709e-08   7.87604e-09 DIIS/DAMP=1%
   @DF-UKS iter  11:  -489.53011927343653   -1.50759e-08   2.53470e-09 DIIS/DAMP=1%
   @DF-UKS iter  12:  -489.53011926335375    1.00828e-08   2.31821e-10 DIIS/DAMP=1%
   @DF-UKS iter  13:  -489.53011926669870   -3.34495e-09   6.00223e-11 DIIS/DAMP=1%
  Energy and wave function converged.


  ==> Post-Iterations <==

   Electrons on quadrature grid:
      Nalpha   =   14.0000015409 ; deviation = 1.541e-06
      Nbeta    =   13.0000012090 ; deviation = 1.209e-06
      Ntotal   =   27.0000027500 ; deviation = 2.750e-06 

   @Spin Contamination Metric:   5.597425659E-02
   @S^2 Expected:                7.500000000E-01
   @S^2 Observed:                8.059742566E-01
   @S   Expected:                5.000000000E-01
   @S   Observed:                5.000000000E-01

    Orbital Energies [Eh]
    ---------------------

    Alpha Occupied:                                                       

       1A1   -65.931066     2A1   -46.647878     3A1    -5.073086  
       4A1    -3.433966     1B1    -3.433878     1B2    -3.426956  
       5A1    -2.930302     6A1    -1.674640     2B1    -1.674624  
       2B2    -1.672361     7A1    -0.237480     8A1    -0.038545  
       3B1     0.010424     3B2     0.033291  

    Alpha Virtual:                                                        

       9A1     0.069587     4B1     0.134181     4B2     0.143419  
      10A1     0.178595    11A1     0.245486     5B1     0.303846  
       5B2     0.311529    12A1     0.345951    13A1     0.440769  
       6B1     0.450135     6B2     0.462790     1A2     0.478596  
      14A1     0.478856     7B1     0.520611     7B2     0.538853  
      15A1     0.562563     2A2     0.593961    16A1     0.595468  
      17A1     0.691476     8B1     0.722356     8B2     0.738784  
      18A1     0.971860  

    Beta Occupied:                                                        

       1A1   -65.928298     2A1   -46.647980     3A1    -5.069953  
       4A1    -3.431165     1B1    -3.425717     1B2    -3.424295  
       5A1    -2.930538     6A1    -1.674864     2B1    -1.674126  
       2B2    -1.672911     7A1    -0.203475     8A1    -0.033390  
       3B2     0.044315  

    Beta Virtual:                                                         

       9A1     0.076517     3B1     0.090688     4B2     0.143267  
       4B1     0.153046    10A1     0.181845    11A1     0.243704  
       5B2     0.308249     5B1     0.310323    12A1     0.354474  
      13A1     0.446107     6B2     0.463865     6B1     0.467979  
       1A2     0.482407    14A1     0.483293     7B2     0.546909  
       7B1     0.551896    15A1     0.577662     2A2     0.625791  
      16A1     0.628063    17A1     0.701719     8B2     0.745062  
       8B1     0.748655    18A1     0.982872  

    Final Occupation by Irrep:
             A1    A2    B1    B2 
    DOCC [     8,    0,    2,    3 ]
    SOCC [     0,    0,    1,    0 ]
    NA   [     8,    0,    3,    3 ]
    NB   [     8,    0,    2,    3 ]

  @DF-UKS Final Energy:  -489.53011926669870

   => Energetics <=

    Nuclear Repulsion Energy =             35.7594997814803293
    One-Electron Energy =                -756.8282449070745770
    Two-Electron Energy =                 261.7468527799831577
    DFT Exchange-Correlation Energy =     -30.2082269210876362
    Empirical Dispersion Energy =           0.0000000000000000
    VV10 Nonlocal Energy =                  0.0000000000000000
    Total Energy =                       -489.5301192666987049

  UHF NO Occupations:
  HONO-2 :    3 B2 1.9913221
  HONO-1 :    8 A1 1.9812206
  HONO-0 :    3 B1 1.0000000
  LUNO+0 :    9 A1 0.0187794
  LUNO+1 :    4 B2 0.0086779
  LUNO+2 :   10 A1 0.0007439
  LUNO+3 :    4 B1 0.0000001


Computation Completed


Properties will be evaluated at   0.000000,   0.000000,   0.000000 [a0]

Properties computed using the SCF density matrix


 Multipole Moments:

 ------------------------------------------------------------------------------------
     Multipole            Electronic (a.u.)      Nuclear  (a.u.)        Total (a.u.)
 ------------------------------------------------------------------------------------

 L = 1.  Multiply by 2.5417464519 to convert [e a0] to [Debye]
 Dipole X            :          0.0000000            0.0000000            0.0000000
 Dipole Y            :          0.0000000            0.0000000            0.0000000
 Dipole Z            :          0.2817360           -0.0060998            0.2756362
 Magnitude           :                                                    0.2756362

 ------------------------------------------------------------------------------------

*** tstop() called on Joses-MacBook-Pro-2.local at Thu Jul 17 11:25:14 2025
Module time:
	user time   =      30.82 seconds =       0.51 minutes
	system time =       3.99 seconds =       0.07 minutes
	total time  =          4 seconds =       0.07 minutes
Total time:
	user time   =     266.63 seconds =       4.44 minutes
	system time =      72.11 seconds =       1.20 minutes
	total time  =         33 seconds =       0.55 minutes

*** tstart() called on Joses-MacBook-Pro-2.local
*** at Thu Jul 17 11:25:14 2025


         ------------------------------------------------------------
                                   SCF GRAD                          
                          Rob Parrish, Justin Turney,                
                       Andy Simmonett, and Alex Sokolov              
         ------------------------------------------------------------

  ==> Geometry <==

    Molecular point group: c2v
    Full point group: C_inf_v

    Geometry (in Angstrom), charge = -1, multiplicity = 2:

       Center              X                  Y                   Z               Mass       
    ------------   -----------------  -----------------  -----------------  -----------------
         MG           0.000000000000     0.000000000000     1.338546271830    23.985041697000
         SI           0.000000000000     0.000000000000    -1.147555936977    27.976926534650

  Nuclear repulsion =   35.759499781480329

  ==> Basis Set <==

  Basis Set: CC-PVDZ
    Blend: CC-PVDZ
    Number of shells: 16
    Number of basis functions: 36
    Number of Cartesian functions: 38
    Spherical Harmonics?: true
    Max angular momentum: 2

  ==> DFJKGrad: Density-Fitted SCF Gradients <==

    Gradient:                    1
    J tasked:                  Yes
    K tasked:                  Yes
    wK tasked:                  No
    OpenMP threads:              1
    Integrals threads:           1
    Memory [MiB]:              375
    Schwarz Cutoff:          1E-12
    Fitting Condition:       1E-10

   => Auxiliary Basis Set <=

  Basis Set: (CC-PVDZ AUX)
    Blend: CC-PVDZ-JKFIT + DEF2-UNIVERSAL-JKFIT
    Number of shells: 70
    Number of basis functions: 224
    Number of Cartesian functions: 267
    Spherical Harmonics?: true
    Max angular momentum: 4

  ==> DFT Potential <==

   => LibXC <=

    Version 6.2.2
    S. Lehtola, C. Steigemann, M. J.T. Oliveira, and M. A.L. Marques.,  SoftwareX 7, 1–5 (2018) (10.1016/j.softx.2017.11.002)

   => Composite Functional: B3LYP <= 

    B3LYP Hyb-GGA Exchange-Correlation Functional

    P. J. Stephens, F. J. Devlin, C. F. Chabalowski, and M. J. Frisch.,  J. Phys. Chem. 98, 11623 (1994) (10.1021/j100096a001)

    Deriv               =              1
    GGA                 =           TRUE
    Meta                =          FALSE

    Exchange Hybrid     =           TRUE
    MP2 Hybrid          =          FALSE

   => Exchange Functionals <=

    0.0800   Slater exchange
    0.7200         Becke 88

   => Exact (HF) Exchange <=

    0.2000               HF 

   => Correlation Functionals <=

    0.1900   Vosko, Wilk & Nusair (VWN5_RPA)
    0.8100   Lee, Yang & Parr

   => LibXC Density Thresholds  <==

    XC_HYB_GGA_XC_B3LYP:  1.00E-15 

   => Molecular Quadrature <=

    Radial Scheme          =       TREUTLER
    Pruning Scheme         =           NONE
    Nuclear Scheme         =       TREUTLER

    Blocking Scheme        =         OCTREE
    BS radius alpha        =              1
    Pruning alpha          =              1
    Radial Points          =             75
    Spherical Points       =            302
    Total Points           =          42939
    Total Blocks           =            419
    Max Points             =            255
    Max Functions          =             36
    Weights Tolerance      =       1.00E-15


  -Total Gradient:
     Atom            X                  Y                   Z
    ------   -----------------  -----------------  -----------------
       1        0.000000000000     0.000000000000    -0.000057074647
       2        0.000000000000     0.000000000000     0.000074096506


*** tstop() called on Joses-MacBook-Pro-2.local at Thu Jul 17 11:25:14 2025
Module time:
	user time   =       5.13 seconds =       0.09 minutes
	system time =       2.34 seconds =       0.04 minutes
	total time  =          0 seconds =       0.00 minutes
Total time:
	user time   =     271.76 seconds =       4.53 minutes
	system time =      74.46 seconds =       1.24 minutes
	total time  =         33 seconds =       0.55 minutes

    			-----------------------------------------

    			 OPTKING 3.0: for geometry optimizations 

    			     By R.A. King, Bethel University     

    			        with contributions from          

    			    A.V. Copan, J. Cayton, A. Heide      

    			-----------------------------------------

    
	                            ===> Fragment 1 <== 

	 Z (Atomic Numbers)          Masses                          Geom                  
	      12.000000            23.985042          0.00000000  0.00000000  2.52948586   
	      14.000000            27.976927          0.00000000  0.00000000 -2.16856643   

	 - Coordinate -           - BOHR/RAD -       - ANG/DEG -
	 R(1,2)           =         4.698052           2.486102


	        --- Internal Coordinate Step in ANG or DEG, aJ/ANG or AJ/DEG ---
	-------------------------------------------------------------------------------
	           Coordinate      Previous         Force          Change          New 
	           ----------      --------        ------          ------        ------
	               R(1,2)       2.48610        0.00054        0.00057       2.48668
	-------------------------------------------------------------------------------

	                                 ==> Convergence Check <==                                  
    
	Measures of convergence in internal coordinates in au.
    
	Criteria marked as inactive (o), active & met (*), and active & unmet ( ).

	----------------------------------------------------------------------------------------------
	   Step    Total Energy     Delta E     Max Force     RMS Force      Max Disp      RMS Disp   
	----------------------------------------------------------------------------------------------
	  Convergence Criteria     1.00e-06 *    3.00e-04 *             o    1.20e-03 *             o
	----------------------------------------------------------------------------------------------
	    15    -489.53011927   -5.92e-07 *    6.56e-05 *    6.56e-05 o    1.09e-03 *    1.09e-03 o  ~
	----------------------------------------------------------------------------------------------

Next Geometry in Ang 
	Fragment 1 (Ang)

	   Mg   0.0000000000   0.0000000000   1.3388337381
	   Si   0.0000000000   0.0000000000  -1.1478434033


    Final optimized geometry and variables:
    Molecular point group: c2v
    Full point group: C_inf_v

    Geometry (in Angstrom), charge = -1, multiplicity = 2:

    MG           0.000000000000     0.000000000000     1.338546271830
    SI           0.000000000000     0.000000000000    -1.147555936977


    Psi4 stopped on: Thursday, 17 July 2025 11:25AM
    Psi4 wall time for execution: 0:00:34.45

*** Psi4 exiting successfully. Buy a developer a beer!
