
    -----------------------------------------------------------------------
          Psi4: An Open-Source Ab Initio Electronic Structure Package
                               Psi4 1.9.1 release

                         Git: Rev {} zzzzzzz 


    D. G. A. Smith, L. A. Burns, A. C. Simmonett, R. M. Parrish,
    M. C. Schieber, R. Galvelis, P. Kraus, H. Kruse, R. Di Remigio,
    A. Alenaizan, A. M. James, S. Lehtola, J. P. Misiewicz, M. Scheurer,
    R. A. Shaw, J. B. Schriber, Y. Xie, Z. L. Glick, D. A. Sirianni,
    J. S. O'Brien, J. M. Waldrop, A. Kumar, E. G. Hohenstein,
    B. P. Pritchard, B. R. Brooks, H. F. Schaefer III, A. Yu. Sokolov,
    K. Patkowski, A. E. DePrince III, U. Bozkaya, R. A. King,
    F. A. Evangelista, J. M. Turney, T. D. Crawford, C. D. Sherrill,
    J. Chem. Phys. 152(18) 184108 (2020). https://doi.org/10.1063/5.0006002

                            Additional Code Authors
    E. T. Seidl, C. L. Janssen, E. F. Valeev, M. L. Leininger,
    J. F. Gonthier, R. M. Richard, H. R. McAlexander, M. Saitow, X. Wang,
    P. Verma, M. H. Lechner, A. Jiang, S. Behnle, A. G. Heide,
    M. F. Herbst, and D. L. Poole

             Previous Authors, Complete List of Code Contributors,
                       and Citations for Specific Modules
    https://github.com/psi4/psi4/blob/master/codemeta.json
    https://github.com/psi4/psi4/graphs/contributors
    http://psicode.org/psi4manual/master/introduction.html#citing-psifour

    -----------------------------------------------------------------------


    Psi4 started on: Thursday, 17 July 2025 09:39AM

    Process ID: 72049
    Host:       Joses-MacBook-Pro-2.local
    PSIDATADIR: /Users/joseantoniorodriguesromero/anaconda3/share/psi4
    Memory:     500.0 MiB
    Threads:    1
    
  ==> Input File <==

--------------------------------------------------------------------------
molecule { 
-1 2
Be   0.00000        0.60000        0.00000
C   0.00000       -0.60000        0.00000
}

set { 
basis              cc-pvdz
reference          uks
maxiter            500
geom_maxiter       500
DAMPING_PERCENTAGE 1
guess              SAP
}

optimize('b3lyp')
--------------------------------------------------------------------------

Scratch directory: /tmp/
gradient() will perform analytic gradient computation.
   => Libint2 <=

    Primary   basis highest AM E, G, H:  6, 6, 3
    Auxiliary basis highest AM E, G, H:  7, 7, 4
    Onebody   basis highest AM E, G, H:  -, -, -
    Solid Harmonics ordering:            Gaussian

*** tstart() called on Joses-MacBook-Pro-2.local
*** at Thu Jul 17 09:39:35 2025

   => Loading Basis Set <=

    Name: CC-PVDZ
    Role: ORBITAL
    Keyword: BASIS
    atoms 1 entry BE         line    75 file /Users/joseantoniorodriguesromero/anaconda3/share/psi4/basis/cc-pvdz.gbs 
    atoms 2 entry C          line   138 file /Users/joseantoniorodriguesromero/anaconda3/share/psi4/basis/cc-pvdz.gbs 


         ---------------------------------------------------------
                                   SCF
               by Justin Turney, Rob Parrish, Andy Simmonett
                          and Daniel G. A. Smith
                              UKS Reference
                        1 Threads,    500 MiB Core
         ---------------------------------------------------------

  ==> Geometry <==

    Molecular point group: c2v
    Full point group: C_inf_v

    Geometry (in Angstrom), charge = -1, multiplicity = 2:

       Center              X                  Y                   Z               Mass       
    ------------   -----------------  -----------------  -----------------  -----------------
         BE           0.000000000000     0.000000000000     0.685316702004     9.012183065000
         C            0.000000000000     0.000000000000    -0.514683297996    12.000000000000

  Running in c2v symmetry.

  Rotational constants: A = ************  B =      2.27454  C =      2.27454 [cm^-1]
  Rotational constants: A = ************  B =  68189.04876  C =  68189.04876 [MHz]
  Nuclear repulsion =   10.583544213400003

  Charge       = -1
  Multiplicity = 2
  Electrons    = 11
  Nalpha       = 6
  Nbeta        = 5

  ==> Algorithm <==

  SCF Algorithm Type is DF.
  DIIS enabled.
  MOM disabled.
  Fractional occupation disabled.
  Guess Type is SAP.
  Energy threshold   = 1.00e-08
  Density threshold  = 1.00e-08
  Integral threshold = 1.00e-12

  ==> Primary Basis <==

  Basis Set: CC-PVDZ
    Blend: CC-PVDZ
    Number of shells: 12
    Number of basis functions: 28
    Number of Cartesian functions: 30
    Spherical Harmonics?: true
    Max angular momentum: 2

  ==> DFT Potential <==

   => LibXC <=

    Version 6.2.2
    S. Lehtola, C. Steigemann, M. J.T. Oliveira, and M. A.L. Marques.,  SoftwareX 7, 1–5 (2018) (10.1016/j.softx.2017.11.002)

   => Composite Functional: B3LYP <= 

    B3LYP Hyb-GGA Exchange-Correlation Functional

    P. J. Stephens, F. J. Devlin, C. F. Chabalowski, and M. J. Frisch.,  J. Phys. Chem. 98, 11623 (1994) (10.1021/j100096a001)

    Deriv               =              1
    GGA                 =           TRUE
    Meta                =          FALSE

    Exchange Hybrid     =           TRUE
    MP2 Hybrid          =          FALSE

   => Exchange Functionals <=

    0.0800   Slater exchange
    0.7200         Becke 88

   => Exact (HF) Exchange <=

    0.2000               HF 

   => Correlation Functionals <=

    0.1900   Vosko, Wilk & Nusair (VWN5_RPA)
    0.8100   Lee, Yang & Parr

   => LibXC Density Thresholds  <==

    XC_HYB_GGA_XC_B3LYP:  1.00E-15 

   => Molecular Quadrature <=

    Radial Scheme          =       TREUTLER
    Pruning Scheme         =           NONE
    Nuclear Scheme         =       TREUTLER

    Blocking Scheme        =         OCTREE
    BS radius alpha        =              1
    Pruning alpha          =              1
    Radial Points          =             75
    Spherical Points       =            302
    Total Points           =          43321
    Total Blocks           =            403
    Max Points             =            255
    Max Functions          =             28
    Weights Tolerance      =       1.00E-15

   => Loading Basis Set <=

    Name: (CC-PVDZ AUX)
    Role: JKFIT
    Keyword: DF_BASIS_SCF
    atoms 1 entry BE         line    96 file /Users/joseantoniorodriguesromero/anaconda3/share/psi4/basis/def2-universal-jkfit.gbs 
    atoms 2 entry C          line   121 file /Users/joseantoniorodriguesromero/anaconda3/share/psi4/basis/cc-pvdz-jkfit.gbs 

  ==> Integral Setup <==

  DFHelper Memory: AOs need 0.001 GiB; user supplied 0.331 GiB. 
  Using in-core AOs.

  ==> MemDFJK: Density-Fitted J/K Matrices <==

    J tasked:                   Yes
    K tasked:                   Yes
    wK tasked:                   No
    OpenMP threads:               1
    Memory [MiB]:               339
    Algorithm:                 Core
    Schwarz Cutoff:           1E-12
    Mask sparsity (%):       0.0000
    Fitting Condition:        1E-10

   => Auxiliary Basis Set <=

  Basis Set: (CC-PVDZ AUX)
    Blend: CC-PVDZ-JKFIT + DEF2-UNIVERSAL-JKFIT
    Number of shells: 41
    Number of basis functions: 121
    Number of Cartesian functions: 141
    Spherical Harmonics?: true
    Max angular momentum: 3

  Cached 100.0% of DFT collocation blocks in 0.035 [GiB].

  Minimum eigenvalue in the overlap matrix is 3.2815213193E-03.
  Reciprocal condition number of the overlap matrix is 9.7943972925E-04.
    Using symmetric orthogonalization.

  ==> Pre-Iterations <==

  SCF Guess: Superposition of Atomic Potentials (doi:10.1021/acs.jctc.8b01089).

  ==> SAP guess <==

   => Molecular Quadrature <=

    Radial Scheme          =       TREUTLER
    Pruning Scheme         =           NONE
    Nuclear Scheme         =       TREUTLER

    Blocking Scheme        =         OCTREE
    BS radius alpha        =              1
    Pruning alpha          =              1
    Radial Points          =             75
    Spherical Points       =            302
    Total Points           =          43321
    Total Blocks           =            403
    Max Points             =            255
    Max Functions          =             28
    Weights Tolerance      =       1.00E-15

   -------------------------------------------------------
    Irrep   Nso     Nmo     Nalpha   Nbeta   Ndocc  Nsocc
   -------------------------------------------------------
     A1        14      14       4       3       3       1
     A2         2       2       0       0       0       0
     B1         6       6       1       1       1       0
     B2         6       6       1       1       1       0
   -------------------------------------------------------
    Total      28      28       6       5       5       1
   -------------------------------------------------------

  ==> Iterations <==

                           Total Energy        Delta E     RMS |[F,P]|

   @DF-UKS iter   1:   -51.74228017843961   -5.17423e+01   6.08704e-02 ADIIS/DIIS
   @DF-UKS iter   2:   -48.74121697298213    3.00106e+00   7.94515e-02 ADIIS/DIIS/DAMP=1%
   @DF-UKS iter   3:   -52.38024886395525   -3.63903e+00   1.43637e-02 ADIIS/DIIS/DAMP=1%
   @DF-UKS iter   4:   -52.47716686957807   -9.69180e-02   7.58138e-03 ADIIS/DIIS/DAMP=1%
   @DF-UKS iter   5:   -52.48850484725214   -1.13380e-02   4.20569e-03 ADIIS/DIIS/DAMP=1%
   @DF-UKS iter   6:   -52.49037878189858   -1.87393e-03   1.93225e-03 ADIIS/DIIS/DAMP=1%
   @DF-UKS iter   7:   -52.49120619945560   -8.27418e-04   8.01441e-04 ADIIS/DIIS/DAMP=1%
   @DF-UKS iter   8:   -52.49284057937300   -1.63438e-03   2.10756e-04 ADIIS/DIIS/DAMP=1%
   @DF-UKS iter   9:   -52.49261898372462    2.21596e-04   1.07287e-04 ADIIS/DIIS/DAMP=1%
   @DF-UKS iter  10:   -52.49262937251687   -1.03888e-05   7.81303e-06 DIIS/DAMP=1%
   @DF-UKS iter  11:   -52.49258323701860    4.61355e-05   5.62455e-06 DIIS/DAMP=1%
   @DF-UKS iter  12:   -52.49258986966518   -6.63265e-06   1.63574e-06 DIIS/DAMP=1%
   @DF-UKS iter  13:   -52.49258631880165    3.55086e-06   2.28650e-07 DIIS/DAMP=1%
   @DF-UKS iter  14:   -52.49258727824430   -9.59443e-07   2.58662e-08 DIIS/DAMP=1%
   @DF-UKS iter  15:   -52.49258715447208    1.23772e-07   3.06264e-09 DIIS/DAMP=1%
   @DF-UKS iter  16:   -52.49258716283528   -8.36319e-09   7.55182e-10 DIIS/DAMP=1%
  Energy and wave function converged.


  ==> Post-Iterations <==

   Electrons on quadrature grid:
      Nalpha   =    5.9999997861 ; deviation = -2.139e-07
      Nbeta    =    4.9999997879 ; deviation = -2.121e-07
      Ntotal   =   10.9999995740 ; deviation = -4.260e-07 

   @Spin Contamination Metric:   6.443590930E-03
   @S^2 Expected:                7.500000000E-01
   @S^2 Observed:                7.564435909E-01
   @S   Expected:                5.000000000E-01
   @S   Observed:                5.000000000E-01

    Orbital Energies [Eh]
    ---------------------

    Alpha Occupied:                                                       

       1A1    -9.900401     2A1    -3.764734     3A1    -0.287653  
       4A1     0.008678     1B1     0.040752     1B2     0.040752  

    Alpha Virtual:                                                        

       5A1     0.101539     2B1     0.259340     2B2     0.259340  
       6A1     0.285436     7A1     0.391139     3B2     0.456112  
       3B1     0.456112     8A1     0.710709     1A2     0.729482  
       9A1     0.729482     4B2     0.760896     4B1     0.760896  
      10A1     0.823454     5B2     0.977428     5B1     0.977428  
      11A1     1.205973     2A2     1.579256    12A1     1.579256  
      13A1     1.756343     6B2     1.880017     6B1     1.880017  
      14A1     2.601900  

    Beta Occupied:                                                        

       1A1    -9.887942     2A1    -3.755295     3A1    -0.246338  
       1B1     0.055686     1B2     0.055686  

    Beta Virtual:                                                         

       4A1     0.099082     5A1     0.177657     2B1     0.267506  
       2B2     0.267506     6A1     0.297268     7A1     0.397036  
       3B2     0.469656     3B1     0.469656     1A2     0.735371  
       8A1     0.735372     9A1     0.741771     4B2     0.773845  
       4B1     0.773845    10A1     0.857188     5B2     0.995012  
       5B1     0.995012    11A1     1.252208     2A2     1.593559  
      12A1     1.593559    13A1     1.784892     6B2     1.925983  
       6B1     1.925983    14A1     2.634194  

    Final Occupation by Irrep:
             A1    A2    B1    B2 
    DOCC [     3,    0,    1,    1 ]
    SOCC [     1,    0,    0,    0 ]
    NA   [     4,    0,    1,    1 ]
    NB   [     3,    0,    1,    1 ]

  @DF-UKS Final Energy:   -52.49258716283528

   => Energetics <=

    Nuclear Repulsion Energy =             10.5835442134000033
    One-Electron Energy =                 -93.5616483559124532
    Two-Electron Energy =                  37.3461273777640415
    DFT Exchange-Correlation Energy =      -6.8606103980868722
    Empirical Dispersion Energy =           0.0000000000000000
    VV10 Nonlocal Energy =                  0.0000000000000000
    Total Energy =                        -52.4925871628352780

  UHF NO Occupations:
  HONO-2 :    1 B2 1.9987940
  HONO-1 :    1 B1 1.9987940
  HONO-0 :    4 A1 1.0000000
  LUNO+0 :    2 B2 0.0012060
  LUNO+1 :    2 B1 0.0012060
  LUNO+2 :    5 A1 0.0008110
  LUNO+3 :    6 A1 0.0000003


Computation Completed


Properties will be evaluated at   0.000000,   0.000000,   0.000000 [a0]

Properties computed using the SCF density matrix


 Multipole Moments:

 ------------------------------------------------------------------------------------
     Multipole            Electronic (a.u.)      Nuclear  (a.u.)        Total (a.u.)
 ------------------------------------------------------------------------------------

 L = 1.  Multiply by 2.5417464519 to convert [e a0] to [Debye]
 Dipole X            :          0.0000000            0.0000000            0.0000000
 Dipole Y            :          0.0000000            0.0000000            0.0000000
 Dipole Z            :          1.2185731           -0.6554193            0.5631538
 Magnitude           :                                                    0.5631538

 ------------------------------------------------------------------------------------

*** tstop() called on Joses-MacBook-Pro-2.local at Thu Jul 17 09:39:36 2025
Module time:
	user time   =       5.36 seconds =       0.09 minutes
	system time =       4.94 seconds =       0.08 minutes
	total time  =          1 seconds =       0.02 minutes
Total time:
	user time   =       5.36 seconds =       0.09 minutes
	system time =       4.94 seconds =       0.08 minutes
	total time  =          1 seconds =       0.02 minutes

*** tstart() called on Joses-MacBook-Pro-2.local
*** at Thu Jul 17 09:39:36 2025


         ------------------------------------------------------------
                                   SCF GRAD                          
                          Rob Parrish, Justin Turney,                
                       Andy Simmonett, and Alex Sokolov              
         ------------------------------------------------------------

  ==> Geometry <==

    Molecular point group: c2v
    Full point group: C_inf_v

    Geometry (in Angstrom), charge = -1, multiplicity = 2:

       Center              X                  Y                   Z               Mass       
    ------------   -----------------  -----------------  -----------------  -----------------
         BE           0.000000000000     0.000000000000     0.685316702004     9.012183065000
         C            0.000000000000     0.000000000000    -0.514683297996    12.000000000000

  Nuclear repulsion =   10.583544213400003

  ==> Basis Set <==

  Basis Set: CC-PVDZ
    Blend: CC-PVDZ
    Number of shells: 12
    Number of basis functions: 28
    Number of Cartesian functions: 30
    Spherical Harmonics?: true
    Max angular momentum: 2

  ==> DFJKGrad: Density-Fitted SCF Gradients <==

    Gradient:                    1
    J tasked:                  Yes
    K tasked:                  Yes
    wK tasked:                  No
    OpenMP threads:              1
    Integrals threads:           1
    Memory [MiB]:              375
    Schwarz Cutoff:          1E-12
    Fitting Condition:       1E-10

   => Auxiliary Basis Set <=

  Basis Set: (CC-PVDZ AUX)
    Blend: CC-PVDZ-JKFIT + DEF2-UNIVERSAL-JKFIT
    Number of shells: 41
    Number of basis functions: 121
    Number of Cartesian functions: 141
    Spherical Harmonics?: true
    Max angular momentum: 3

  ==> DFT Potential <==

   => LibXC <=

    Version 6.2.2
    S. Lehtola, C. Steigemann, M. J.T. Oliveira, and M. A.L. Marques.,  SoftwareX 7, 1–5 (2018) (10.1016/j.softx.2017.11.002)

   => Composite Functional: B3LYP <= 

    B3LYP Hyb-GGA Exchange-Correlation Functional

    P. J. Stephens, F. J. Devlin, C. F. Chabalowski, and M. J. Frisch.,  J. Phys. Chem. 98, 11623 (1994) (10.1021/j100096a001)

    Deriv               =              1
    GGA                 =           TRUE
    Meta                =          FALSE

    Exchange Hybrid     =           TRUE
    MP2 Hybrid          =          FALSE

   => Exchange Functionals <=

    0.0800   Slater exchange
    0.7200         Becke 88

   => Exact (HF) Exchange <=

    0.2000               HF 

   => Correlation Functionals <=

    0.1900   Vosko, Wilk & Nusair (VWN5_RPA)
    0.8100   Lee, Yang & Parr

   => LibXC Density Thresholds  <==

    XC_HYB_GGA_XC_B3LYP:  1.00E-15 

   => Molecular Quadrature <=

    Radial Scheme          =       TREUTLER
    Pruning Scheme         =           NONE
    Nuclear Scheme         =       TREUTLER

    Blocking Scheme        =         OCTREE
    BS radius alpha        =              1
    Pruning alpha          =              1
    Radial Points          =             75
    Spherical Points       =            302
    Total Points           =          43321
    Total Blocks           =            403
    Max Points             =            255
    Max Functions          =             28
    Weights Tolerance      =       1.00E-15


  -Total Gradient:
     Atom            X                  Y                   Z
    ------   -----------------  -----------------  -----------------
       1       -0.000000000000     0.000000000000    -0.360262358687
       2        0.000000000000    -0.000000000000     0.360278317111


*** tstop() called on Joses-MacBook-Pro-2.local at Thu Jul 17 09:39:37 2025
Module time:
	user time   =       0.72 seconds =       0.01 minutes
	system time =       1.40 seconds =       0.02 minutes
	total time  =          1 seconds =       0.02 minutes
Total time:
	user time   =       6.09 seconds =       0.10 minutes
	system time =       6.34 seconds =       0.11 minutes
	total time  =          2 seconds =       0.03 minutes

    			-----------------------------------------

    			 OPTKING 3.0: for geometry optimizations 

    			     By R.A. King, Bethel University     

    			        with contributions from          

    			    A.V. Copan, J. Cayton, A. Heide      

    			-----------------------------------------

    
	                            ===> Fragment 1 <== 

	 Z (Atomic Numbers)          Masses                          Geom                  
	       4.000000             9.012183          0.00000000  0.00000000  1.29506088   
	       6.000000            12.000000          0.00000000  0.00000000 -0.97261047   

	 - Coordinate -           - BOHR/RAD -       - ANG/DEG -
	 R(1,2)           =         2.267671           1.200000


	        --- Internal Coordinate Step in ANG or DEG, aJ/ANG or AJ/DEG ---
	-------------------------------------------------------------------------------
	           Coordinate      Previous         Force          Change          New 
	           ----------      --------        ------          ------        ------
	               R(1,2)       1.20000        2.96817        0.16433       1.36433
	-------------------------------------------------------------------------------

	                                 ==> Convergence Check <==                                  
    
	Measures of convergence in internal coordinates in au.
    
	Criteria marked as inactive (o), active & met (*), and active & unmet ( ).

	----------------------------------------------------------------------------------------------
	   Step    Total Energy     Delta E     Max Force     RMS Force      Max Disp      RMS Disp   
	----------------------------------------------------------------------------------------------
	  Convergence Criteria     1.00e-06 *    3.00e-04 *             o    1.20e-03 *             o
	----------------------------------------------------------------------------------------------
	     1     -52.49258716   -5.25e+01      3.60e-01      3.60e-01 o    3.11e-01      3.11e-01 o  ~
	----------------------------------------------------------------------------------------------

Next Geometry in Ang 
	Fragment 1 (Ang)

	   Be   0.0000000000   0.0000000000   0.7674841446
	    C   0.0000000000   0.0000000000  -0.5968507406


    Structure for next step:
    Molecular point group: c2v
    Full point group: C_inf_v

    Geometry (in Angstrom), charge = -1, multiplicity = 2:

    BE           0.000000000000     0.000000000000     0.779167903283
    C            0.000000000000     0.000000000000    -0.585166981896


Scratch directory: /tmp/
gradient() will perform analytic gradient computation.
   => Libint2 <=

    Primary   basis highest AM E, G, H:  6, 6, 3
    Auxiliary basis highest AM E, G, H:  7, 7, 4
    Onebody   basis highest AM E, G, H:  -, -, -
    Solid Harmonics ordering:            Gaussian

*** tstart() called on Joses-MacBook-Pro-2.local
*** at Thu Jul 17 09:39:37 2025

   => Loading Basis Set <=

    Name: CC-PVDZ
    Role: ORBITAL
    Keyword: BASIS
    atoms 1 entry BE         line    75 file /Users/joseantoniorodriguesromero/anaconda3/share/psi4/basis/cc-pvdz.gbs 
    atoms 2 entry C          line   138 file /Users/joseantoniorodriguesromero/anaconda3/share/psi4/basis/cc-pvdz.gbs 


         ---------------------------------------------------------
                                   SCF
               by Justin Turney, Rob Parrish, Andy Simmonett
                          and Daniel G. A. Smith
                              UKS Reference
                        1 Threads,    500 MiB Core
         ---------------------------------------------------------

  ==> Geometry <==

    Molecular point group: c2v
    Full point group: C_inf_v

    Geometry (in Angstrom), charge = -1, multiplicity = 2:

       Center              X                  Y                   Z               Mass       
    ------------   -----------------  -----------------  -----------------  -----------------
         BE           0.000000000000     0.000000000000     0.779167903283     9.012183065000
         C            0.000000000000     0.000000000000    -0.585166981896    12.000000000000

  Running in c2v symmetry.

  Rotational constants: A = ************  B =      1.75960  C =      1.75960 [cm^-1]
  Rotational constants: A = ************  B =  52751.54166  C =  52751.54166 [MHz]
  Nuclear repulsion =    9.308750508430954

  Charge       = -1
  Multiplicity = 2
  Electrons    = 11
  Nalpha       = 6
  Nbeta        = 5

  ==> Algorithm <==

  SCF Algorithm Type is DF.
  DIIS enabled.
  MOM disabled.
  Fractional occupation disabled.
  Guess Type is READ.
  Energy threshold   = 1.00e-08
  Density threshold  = 1.00e-08
  Integral threshold = 1.00e-12

  ==> Primary Basis <==

  Basis Set: CC-PVDZ
    Blend: CC-PVDZ
    Number of shells: 12
    Number of basis functions: 28
    Number of Cartesian functions: 30
    Spherical Harmonics?: true
    Max angular momentum: 2

  ==> DFT Potential <==

   => LibXC <=

    Version 6.2.2
    S. Lehtola, C. Steigemann, M. J.T. Oliveira, and M. A.L. Marques.,  SoftwareX 7, 1–5 (2018) (10.1016/j.softx.2017.11.002)

   => Composite Functional: B3LYP <= 

    B3LYP Hyb-GGA Exchange-Correlation Functional

    P. J. Stephens, F. J. Devlin, C. F. Chabalowski, and M. J. Frisch.,  J. Phys. Chem. 98, 11623 (1994) (10.1021/j100096a001)

    Deriv               =              1
    GGA                 =           TRUE
    Meta                =          FALSE

    Exchange Hybrid     =           TRUE
    MP2 Hybrid          =          FALSE

   => Exchange Functionals <=

    0.0800   Slater exchange
    0.7200         Becke 88

   => Exact (HF) Exchange <=

    0.2000               HF 

   => Correlation Functionals <=

    0.1900   Vosko, Wilk & Nusair (VWN5_RPA)
    0.8100   Lee, Yang & Parr

   => LibXC Density Thresholds  <==

    XC_HYB_GGA_XC_B3LYP:  1.00E-15 

   => Molecular Quadrature <=

    Radial Scheme          =       TREUTLER
    Pruning Scheme         =           NONE
    Nuclear Scheme         =       TREUTLER

    Blocking Scheme        =         OCTREE
    BS radius alpha        =              1
    Pruning alpha          =              1
    Radial Points          =             75
    Spherical Points       =            302
    Total Points           =          43341
    Total Blocks           =            407
    Max Points             =            253
    Max Functions          =             28
    Weights Tolerance      =       1.00E-15

   => Loading Basis Set <=

    Name: (CC-PVDZ AUX)
    Role: JKFIT
    Keyword: DF_BASIS_SCF
    atoms 1 entry BE         line    96 file /Users/joseantoniorodriguesromero/anaconda3/share/psi4/basis/def2-universal-jkfit.gbs 
    atoms 2 entry C          line   121 file /Users/joseantoniorodriguesromero/anaconda3/share/psi4/basis/cc-pvdz-jkfit.gbs 

   => Loading Basis Set <=

    Name: CC-PVDZ
    Role: ORBITAL
    Keyword: BASIS
    atoms 1 entry BE         line    75 file /Users/joseantoniorodriguesromero/anaconda3/share/psi4/basis/cc-pvdz.gbs 
    atoms 2 entry C          line   138 file /Users/joseantoniorodriguesromero/anaconda3/share/psi4/basis/cc-pvdz.gbs 

  Reading orbitals from file /tmp/doublet_BeC.default.72049.180.npy, no projection.

  ==> Integral Setup <==

  DFHelper Memory: AOs need 0.001 GiB; user supplied 0.331 GiB. 
  Using in-core AOs.

  ==> MemDFJK: Density-Fitted J/K Matrices <==

    J tasked:                   Yes
    K tasked:                   Yes
    wK tasked:                   No
    OpenMP threads:               1
    Memory [MiB]:               339
    Algorithm:                 Core
    Schwarz Cutoff:           1E-12
    Mask sparsity (%):       0.0000
    Fitting Condition:        1E-10

   => Auxiliary Basis Set <=

  Basis Set: (CC-PVDZ AUX)
    Blend: CC-PVDZ-JKFIT + DEF2-UNIVERSAL-JKFIT
    Number of shells: 41
    Number of basis functions: 121
    Number of Cartesian functions: 141
    Spherical Harmonics?: true
    Max angular momentum: 3

  Cached 100.0% of DFT collocation blocks in 0.035 [GiB].

  Minimum eigenvalue in the overlap matrix is 5.1816611304E-03.
  Reciprocal condition number of the overlap matrix is 1.5572755847E-03.
    Using symmetric orthogonalization.

  ==> Pre-Iterations <==

  SCF Guess: Orbitals guess was supplied from a previous computation.

   -------------------------------------------------------
    Irrep   Nso     Nmo     Nalpha   Nbeta   Ndocc  Nsocc
   -------------------------------------------------------
     A1        14      14       4       3       3       1
     A2         2       2       0       0       0       0
     B1         6       6       1       1       1       0
     B2         6       6       1       1       1       0
   -------------------------------------------------------
    Total      28      28       6       5       5       1
   -------------------------------------------------------

  ==> Iterations <==

                           Total Energy        Delta E     RMS |[F,P]|

   @DF-UKS iter   0:   -52.54094030061934   -5.25409e+01   1.75170e-02 
    Occupation by irrep:
             A1    A2    B1    B2 
    DOCC [     4,    0,    0,    1 ]
    SOCC [     0,    0,    1,    0 ]
    NA   [     4,    0,    1,    1 ]
    NB   [     4,    0,    0,    1 ]

   @DF-UKS iter   1:   -52.54755157033416   -6.61127e-03   7.26646e-03 ADIIS/DIIS
    Occupation by irrep:
             A1    A2    B1    B2 
    DOCC [     3,    0,    1,    1 ]
    SOCC [     1,    0,    0,    0 ]
    NA   [     4,    0,    1,    1 ]
    NB   [     3,    0,    1,    1 ]

   @DF-UKS iter   2:   -52.21314026506896    3.34411e-01   3.79508e-02 ADIIS/DIIS/DAMP=1%
   @DF-UKS iter   3:   -52.54009027089704   -3.26950e-01   3.25640e-03 ADIIS/DIIS/DAMP=1%
   @DF-UKS iter   4:   -52.55861106460154   -1.85208e-02   9.10485e-04 ADIIS/DIIS/DAMP=1%
   @DF-UKS iter   5:   -52.55937143598844   -7.60371e-04   3.20030e-04 ADIIS/DIIS/DAMP=1%
   @DF-UKS iter   6:   -52.55964929974927   -2.77864e-04   9.95944e-05 DIIS/DAMP=1%
   @DF-UKS iter   7:   -52.55966555087431   -1.62511e-05   2.07601e-05 DIIS/DAMP=1%
   @DF-UKS iter   8:   -52.55971968423970   -5.41334e-05   1.27535e-05 DIIS/DAMP=1%
   @DF-UKS iter   9:   -52.55972068800693   -1.00377e-06   5.69813e-06 DIIS/DAMP=1%
   @DF-UKS iter  10:   -52.55971927176022    1.41625e-06   8.23075e-07 DIIS/DAMP=1%
   @DF-UKS iter  11:   -52.55971691187614    2.35988e-06   1.14865e-07 DIIS/DAMP=1%
   @DF-UKS iter  12:   -52.55971680786273    1.04013e-07   2.67999e-08 DIIS/DAMP=1%
   @DF-UKS iter  13:   -52.55971686382529   -5.59626e-08   6.75268e-09 DIIS/DAMP=1%
   @DF-UKS iter  14:   -52.55971684938953    1.44358e-08   1.66680e-09 DIIS/DAMP=1%
   @DF-UKS iter  15:   -52.55971685047915   -1.08962e-09   4.87417e-10 DIIS/DAMP=1%
  Energy and wave function converged.


  ==> Post-Iterations <==

   Electrons on quadrature grid:
      Nalpha   =    5.9999998804 ; deviation = -1.196e-07
      Nbeta    =    4.9999998859 ; deviation = -1.141e-07
      Ntotal   =   10.9999997664 ; deviation = -2.336e-07 

   @Spin Contamination Metric:   8.870170244E-03
   @S^2 Expected:                7.500000000E-01
   @S^2 Observed:                7.588701702E-01
   @S   Expected:                5.000000000E-01
   @S   Observed:                5.000000000E-01

    Orbital Energies [Eh]
    ---------------------

    Alpha Occupied:                                                       

       1A1    -9.929428     2A1    -3.790249     3A1    -0.295360  
       4A1    -0.013478     1B1     0.044989     1B2     0.044989  

    Alpha Virtual:                                                        

       5A1     0.088927     2B1     0.245504     2B2     0.245504  
       6A1     0.279434     7A1     0.380576     3B2     0.426369  
       3B1     0.426369     8A1     0.675765     1A2     0.718737  
       9A1     0.718737     4B1     0.767531     4B2     0.767531  
      10A1     0.777523     5B1     0.901477     5B2     0.901477  
      11A1     1.146439    12A1     1.496195     2A2     1.538767  
      13A1     1.538767     6B1     1.804989     6B2     1.804989  
      14A1     2.218039  

    Beta Occupied:                                                        

       1A1    -9.917073     2A1    -3.782366     3A1    -0.253961  
       1B2     0.060601     1B1     0.060601  

    Beta Virtual:                                                         

       4A1     0.082021     5A1     0.157980     2B2     0.256204  
       2B1     0.256204     6A1     0.287396     7A1     0.387746  
       3B1     0.438565     3B2     0.438565     8A1     0.707564  
       1A2     0.725541     9A1     0.725542     4B2     0.780640  
       4B1     0.780640    10A1     0.808952     5B2     0.919014  
       5B1     0.919014    11A1     1.191437    12A1     1.520031  
       2A2     1.554158    13A1     1.554158     6B2     1.850148  
       6B1     1.850148    14A1     2.260941  

    Final Occupation by Irrep:
             A1    A2    B1    B2 
    DOCC [     3,    0,    1,    1 ]
    SOCC [     1,    0,    0,    0 ]
    NA   [     4,    0,    1,    1 ]
    NB   [     3,    0,    1,    1 ]

  @DF-UKS Final Energy:   -52.55971685047915

   => Energetics <=

    Nuclear Repulsion Energy =              9.3087505084309541
    One-Electron Energy =                 -91.0740768109859573
    Two-Electron Energy =                  35.9838952072428384
    DFT Exchange-Correlation Energy =      -6.7782857551669933
    Empirical Dispersion Energy =           0.0000000000000000
    VV10 Nonlocal Energy =                  0.0000000000000000
    Total Energy =                        -52.5597168504791483

  UHF NO Occupations:
  HONO-2 :    1 B2 1.9982771
  HONO-1 :    1 B1 1.9982771
  HONO-0 :    4 A1 1.0000000
  LUNO+0 :    2 B1 0.0017229
  LUNO+1 :    2 B2 0.0017229
  LUNO+2 :    5 A1 0.0009924
  LUNO+3 :    6 A1 0.0000002


Computation Completed


Properties will be evaluated at   0.000000,   0.000000,   0.000000 [a0]

Properties computed using the SCF density matrix


 Multipole Moments:

 ------------------------------------------------------------------------------------
     Multipole            Electronic (a.u.)      Nuclear  (a.u.)        Total (a.u.)
 ------------------------------------------------------------------------------------

 L = 1.  Multiply by 2.5417464519 to convert [e a0] to [Debye]
 Dipole X            :          0.0000000            0.0000000            0.0000000
 Dipole Y            :          0.0000000            0.0000000            0.0000000
 Dipole Z            :          1.3226295           -0.7451762            0.5774533
 Magnitude           :                                                    0.5774533

 ------------------------------------------------------------------------------------

*** tstop() called on Joses-MacBook-Pro-2.local at Thu Jul 17 09:39:38 2025
Module time:
	user time   =       5.34 seconds =       0.09 minutes
	system time =       5.10 seconds =       0.09 minutes
	total time  =          1 seconds =       0.02 minutes
Total time:
	user time   =      11.47 seconds =       0.19 minutes
	system time =      11.66 seconds =       0.19 minutes
	total time  =          3 seconds =       0.05 minutes

*** tstart() called on Joses-MacBook-Pro-2.local
*** at Thu Jul 17 09:39:38 2025


         ------------------------------------------------------------
                                   SCF GRAD                          
                          Rob Parrish, Justin Turney,                
                       Andy Simmonett, and Alex Sokolov              
         ------------------------------------------------------------

  ==> Geometry <==

    Molecular point group: c2v
    Full point group: C_inf_v

    Geometry (in Angstrom), charge = -1, multiplicity = 2:

       Center              X                  Y                   Z               Mass       
    ------------   -----------------  -----------------  -----------------  -----------------
         BE           0.000000000000     0.000000000000     0.779167903283     9.012183065000
         C            0.000000000000     0.000000000000    -0.585166981896    12.000000000000

  Nuclear repulsion =    9.308750508430954

  ==> Basis Set <==

  Basis Set: CC-PVDZ
    Blend: CC-PVDZ
    Number of shells: 12
    Number of basis functions: 28
    Number of Cartesian functions: 30
    Spherical Harmonics?: true
    Max angular momentum: 2

  ==> DFJKGrad: Density-Fitted SCF Gradients <==

    Gradient:                    1
    J tasked:                  Yes
    K tasked:                  Yes
    wK tasked:                  No
    OpenMP threads:              1
    Integrals threads:           1
    Memory [MiB]:              375
    Schwarz Cutoff:          1E-12
    Fitting Condition:       1E-10

   => Auxiliary Basis Set <=

  Basis Set: (CC-PVDZ AUX)
    Blend: CC-PVDZ-JKFIT + DEF2-UNIVERSAL-JKFIT
    Number of shells: 41
    Number of basis functions: 121
    Number of Cartesian functions: 141
    Spherical Harmonics?: true
    Max angular momentum: 3

  ==> DFT Potential <==

   => LibXC <=

    Version 6.2.2
    S. Lehtola, C. Steigemann, M. J.T. Oliveira, and M. A.L. Marques.,  SoftwareX 7, 1–5 (2018) (10.1016/j.softx.2017.11.002)

   => Composite Functional: B3LYP <= 

    B3LYP Hyb-GGA Exchange-Correlation Functional

    P. J. Stephens, F. J. Devlin, C. F. Chabalowski, and M. J. Frisch.,  J. Phys. Chem. 98, 11623 (1994) (10.1021/j100096a001)

    Deriv               =              1
    GGA                 =           TRUE
    Meta                =          FALSE

    Exchange Hybrid     =           TRUE
    MP2 Hybrid          =          FALSE

   => Exchange Functionals <=

    0.0800   Slater exchange
    0.7200         Becke 88

   => Exact (HF) Exchange <=

    0.2000               HF 

   => Correlation Functionals <=

    0.1900   Vosko, Wilk & Nusair (VWN5_RPA)
    0.8100   Lee, Yang & Parr

   => LibXC Density Thresholds  <==

    XC_HYB_GGA_XC_B3LYP:  1.00E-15 

   => Molecular Quadrature <=

    Radial Scheme          =       TREUTLER
    Pruning Scheme         =           NONE
    Nuclear Scheme         =       TREUTLER

    Blocking Scheme        =         OCTREE
    BS radius alpha        =              1
    Pruning alpha          =              1
    Radial Points          =             75
    Spherical Points       =            302
    Total Points           =          43341
    Total Blocks           =            407
    Max Points             =            253
    Max Functions          =             28
    Weights Tolerance      =       1.00E-15


  -Total Gradient:
     Atom            X                  Y                   Z
    ------   -----------------  -----------------  -----------------
       1        0.000000000000     0.000000000000    -0.101994587620
       2        0.000000000000     0.000000000000     0.102007602457


*** tstop() called on Joses-MacBook-Pro-2.local at Thu Jul 17 09:39:38 2025
Module time:
	user time   =       0.65 seconds =       0.01 minutes
	system time =       1.19 seconds =       0.02 minutes
	total time  =          0 seconds =       0.00 minutes
Total time:
	user time   =      12.13 seconds =       0.20 minutes
	system time =      12.85 seconds =       0.21 minutes
	total time  =          3 seconds =       0.05 minutes

    			-----------------------------------------

    			 OPTKING 3.0: for geometry optimizations 

    			     By R.A. King, Bethel University     

    			        with contributions from          

    			    A.V. Copan, J. Cayton, A. Heide      

    			-----------------------------------------

    
	                            ===> Fragment 1 <== 

	 Z (Atomic Numbers)          Masses                          Geom                  
	       4.000000             9.012183          0.00000000  0.00000000  1.47241394   
	       6.000000            12.000000          0.00000000  0.00000000 -1.10580533   

	 - Coordinate -           - BOHR/RAD -       - ANG/DEG -
	 R(1,2)           =         2.578219           1.364335


	        --- Internal Coordinate Step in ANG or DEG, aJ/ANG or AJ/DEG ---
	-------------------------------------------------------------------------------
	           Coordinate      Previous         Force          Change          New 
	           ----------      --------        ------          ------        ------
	               R(1,2)       1.36433        0.84036        0.06395       1.42829
	-------------------------------------------------------------------------------

	                                 ==> Convergence Check <==                                  
    
	Measures of convergence in internal coordinates in au.
    
	Criteria marked as inactive (o), active & met (*), and active & unmet ( ).

	----------------------------------------------------------------------------------------------
	   Step    Total Energy     Delta E     Max Force     RMS Force      Max Disp      RMS Disp   
	----------------------------------------------------------------------------------------------
	  Convergence Criteria     1.00e-06 *    3.00e-04 *             o    1.20e-03 *             o
	----------------------------------------------------------------------------------------------
	     2     -52.55971685   -6.71e-02      1.02e-01      1.02e-01 o    1.21e-01      1.21e-01 o  ~
	----------------------------------------------------------------------------------------------

Next Geometry in Ang 
	Fragment 1 (Ang)

	   Be   0.0000000000   0.0000000000   0.8111451953
	    C   0.0000000000   0.0000000000  -0.6171442739


    Structure for next step:
    Molecular point group: c2v
    Full point group: C_inf_v

    Geometry (in Angstrom), charge = -1, multiplicity = 2:

    BE           0.000000000000     0.000000000000     0.815692190479
    C            0.000000000000     0.000000000000    -0.612597278774


Scratch directory: /tmp/
gradient() will perform analytic gradient computation.
   => Libint2 <=

    Primary   basis highest AM E, G, H:  6, 6, 3
    Auxiliary basis highest AM E, G, H:  7, 7, 4
    Onebody   basis highest AM E, G, H:  -, -, -
    Solid Harmonics ordering:            Gaussian

*** tstart() called on Joses-MacBook-Pro-2.local
*** at Thu Jul 17 09:39:38 2025

   => Loading Basis Set <=

    Name: CC-PVDZ
    Role: ORBITAL
    Keyword: BASIS
    atoms 1 entry BE         line    75 file /Users/joseantoniorodriguesromero/anaconda3/share/psi4/basis/cc-pvdz.gbs 
    atoms 2 entry C          line   138 file /Users/joseantoniorodriguesromero/anaconda3/share/psi4/basis/cc-pvdz.gbs 


         ---------------------------------------------------------
                                   SCF
               by Justin Turney, Rob Parrish, Andy Simmonett
                          and Daniel G. A. Smith
                              UKS Reference
                        1 Threads,    500 MiB Core
         ---------------------------------------------------------

  ==> Geometry <==

    Molecular point group: c2v
    Full point group: C_inf_v

    Geometry (in Angstrom), charge = -1, multiplicity = 2:

       Center              X                  Y                   Z               Mass       
    ------------   -----------------  -----------------  -----------------  -----------------
         BE           0.000000000000     0.000000000000     0.815692190479     9.012183065000
         C            0.000000000000     0.000000000000    -0.612597278774    12.000000000000

  Running in c2v symmetry.

  Rotational constants: A = ************  B =      1.60555  C =      1.60555 [cm^-1]
  Rotational constants: A = ************  B =  48133.19117  C =  48133.19117 [MHz]
  Nuclear repulsion =    8.891932153442472

  Charge       = -1
  Multiplicity = 2
  Electrons    = 11
  Nalpha       = 6
  Nbeta        = 5

  ==> Algorithm <==

  SCF Algorithm Type is DF.
  DIIS enabled.
  MOM disabled.
  Fractional occupation disabled.
  Guess Type is READ.
  Energy threshold   = 1.00e-08
  Density threshold  = 1.00e-08
  Integral threshold = 1.00e-12

  ==> Primary Basis <==

  Basis Set: CC-PVDZ
    Blend: CC-PVDZ
    Number of shells: 12
    Number of basis functions: 28
    Number of Cartesian functions: 30
    Spherical Harmonics?: true
    Max angular momentum: 2

  ==> DFT Potential <==

   => LibXC <=

    Version 6.2.2
    S. Lehtola, C. Steigemann, M. J.T. Oliveira, and M. A.L. Marques.,  SoftwareX 7, 1–5 (2018) (10.1016/j.softx.2017.11.002)

   => Composite Functional: B3LYP <= 

    B3LYP Hyb-GGA Exchange-Correlation Functional

    P. J. Stephens, F. J. Devlin, C. F. Chabalowski, and M. J. Frisch.,  J. Phys. Chem. 98, 11623 (1994) (10.1021/j100096a001)

    Deriv               =              1
    GGA                 =           TRUE
    Meta                =          FALSE

    Exchange Hybrid     =           TRUE
    MP2 Hybrid          =          FALSE

   => Exchange Functionals <=

    0.0800   Slater exchange
    0.7200         Becke 88

   => Exact (HF) Exchange <=

    0.2000               HF 

   => Correlation Functionals <=

    0.1900   Vosko, Wilk & Nusair (VWN5_RPA)
    0.8100   Lee, Yang & Parr

   => LibXC Density Thresholds  <==

    XC_HYB_GGA_XC_B3LYP:  1.00E-15 

   => Molecular Quadrature <=

    Radial Scheme          =       TREUTLER
    Pruning Scheme         =           NONE
    Nuclear Scheme         =       TREUTLER

    Blocking Scheme        =         OCTREE
    BS radius alpha        =              1
    Pruning alpha          =              1
    Radial Points          =             75
    Spherical Points       =            302
    Total Points           =          43341
    Total Blocks           =            405
    Max Points             =            252
    Max Functions          =             28
    Weights Tolerance      =       1.00E-15

   => Loading Basis Set <=

    Name: (CC-PVDZ AUX)
    Role: JKFIT
    Keyword: DF_BASIS_SCF
    atoms 1 entry BE         line    96 file /Users/joseantoniorodriguesromero/anaconda3/share/psi4/basis/def2-universal-jkfit.gbs 
    atoms 2 entry C          line   121 file /Users/joseantoniorodriguesromero/anaconda3/share/psi4/basis/cc-pvdz-jkfit.gbs 

   => Loading Basis Set <=

    Name: CC-PVDZ
    Role: ORBITAL
    Keyword: BASIS
    atoms 1 entry BE         line    75 file /Users/joseantoniorodriguesromero/anaconda3/share/psi4/basis/cc-pvdz.gbs 
    atoms 2 entry C          line   138 file /Users/joseantoniorodriguesromero/anaconda3/share/psi4/basis/cc-pvdz.gbs 

  Reading orbitals from file /tmp/doublet_BeC.default.72049.180.npy, no projection.

  ==> Integral Setup <==

  DFHelper Memory: AOs need 0.001 GiB; user supplied 0.331 GiB. 
  Using in-core AOs.

  ==> MemDFJK: Density-Fitted J/K Matrices <==

    J tasked:                   Yes
    K tasked:                   Yes
    wK tasked:                   No
    OpenMP threads:               1
    Memory [MiB]:               339
    Algorithm:                 Core
    Schwarz Cutoff:           1E-12
    Mask sparsity (%):       0.0000
    Fitting Condition:        1E-10

   => Auxiliary Basis Set <=

  Basis Set: (CC-PVDZ AUX)
    Blend: CC-PVDZ-JKFIT + DEF2-UNIVERSAL-JKFIT
    Number of shells: 41
    Number of basis functions: 121
    Number of Cartesian functions: 141
    Spherical Harmonics?: true
    Max angular momentum: 3

  Cached 100.0% of DFT collocation blocks in 0.035 [GiB].

  Minimum eigenvalue in the overlap matrix is 6.2737225235E-03.
  Reciprocal condition number of the overlap matrix is 1.8922439473E-03.
    Using symmetric orthogonalization.

  ==> Pre-Iterations <==

  SCF Guess: Orbitals guess was supplied from a previous computation.

   -------------------------------------------------------
    Irrep   Nso     Nmo     Nalpha   Nbeta   Ndocc  Nsocc
   -------------------------------------------------------
     A1        14      14       4       3       3       1
     A2         2       2       0       0       0       0
     B1         6       6       1       1       1       0
     B2         6       6       1       1       1       0
   -------------------------------------------------------
    Total      28      28       6       5       5       1
   -------------------------------------------------------

  ==> Iterations <==

                           Total Energy        Delta E     RMS |[F,P]|

   @DF-UKS iter   0:   -52.56109012625078   -5.25611e+01   5.63515e-03 
    Occupation by irrep:
             A1    A2    B1    B2 
    DOCC [     4,    0,    0,    1 ]
    SOCC [     0,    0,    1,    0 ]
    NA   [     4,    0,    1,    1 ]
    NB   [     4,    0,    0,    1 ]

   @DF-UKS iter   1:   -52.56549181408769   -4.40169e-03   3.48794e-03 ADIIS/DIIS
    Occupation by irrep:
             A1    A2    B1    B2 
    DOCC [     3,    0,    1,    1 ]
    SOCC [     1,    0,    0,    0 ]
    NA   [     4,    0,    1,    1 ]
    NB   [     3,    0,    1,    1 ]

   @DF-UKS iter   2:   -52.44859729126890    1.16895e-01   2.51950e-02 ADIIS/DIIS/DAMP=1%
   @DF-UKS iter   3:   -52.55644160177352   -1.07844e-01   9.31074e-04 ADIIS/DIIS/DAMP=1%
   @DF-UKS iter   4:   -52.56799472298557   -1.15531e-02   4.15856e-04 ADIIS/DIIS/DAMP=1%
   @DF-UKS iter   5:   -52.56810768689974   -1.12964e-04   9.72058e-05 DIIS/DAMP=1%
   @DF-UKS iter   6:   -52.56823876660461   -1.31080e-04   4.69400e-05 DIIS/DAMP=1%
   @DF-UKS iter   7:   -52.56826455816737   -2.57916e-05   3.93352e-05 DIIS/DAMP=1%
   @DF-UKS iter   8:   -52.56828921134272   -2.46532e-05   2.17010e-05 DIIS/DAMP=1%
   @DF-UKS iter   9:   -52.56828458868946    4.62265e-06   7.45676e-06 DIIS/DAMP=1%
   @DF-UKS iter  10:   -52.56828042681385    4.16188e-06   2.04840e-06 DIIS/DAMP=1%
   @DF-UKS iter  11:   -52.56827889699097    1.52982e-06   2.03615e-07 DIIS/DAMP=1%
   @DF-UKS iter  12:   -52.56827823087518    6.66116e-07   3.31330e-08 DIIS/DAMP=1%
   @DF-UKS iter  13:   -52.56827808742121    1.43454e-07   8.88247e-09 DIIS/DAMP=1%
   @DF-UKS iter  14:   -52.56827810810363   -2.06824e-08   1.19154e-09 DIIS/DAMP=1%
   @DF-UKS iter  15:   -52.56827810373338    4.37025e-09   7.25794e-10 DIIS/DAMP=1%
  Energy and wave function converged.


  ==> Post-Iterations <==

   Electrons on quadrature grid:
      Nalpha   =    6.0000000977 ; deviation = 9.770e-08
      Nbeta    =    5.0000000910 ; deviation = 9.097e-08
      Ntotal   =   11.0000001887 ; deviation = 1.887e-07 

   @Spin Contamination Metric:   8.446879307E-03
   @S^2 Expected:                7.500000000E-01
   @S^2 Observed:                7.584468793E-01
   @S   Expected:                5.000000000E-01
   @S   Observed:                5.000000000E-01

    Orbital Energies [Eh]
    ---------------------

    Alpha Occupied:                                                       

       1A1    -9.941550     2A1    -3.803176     3A1    -0.296183  
       4A1    -0.019320     1B1     0.045672     1B2     0.045672  

    Alpha Virtual:                                                        

       5A1     0.084294     2B1     0.239005     2B2     0.239005  
       6A1     0.277134     7A1     0.376540     3B2     0.416809  
       3B1     0.416809     8A1     0.660556     1A2     0.714288  
       9A1     0.714288    10A1     0.755188     4B1     0.769772  
       4B2     0.769772     5B1     0.875709     5B2     0.875709  
      11A1     1.125006    12A1     1.411175    13A1     1.525375  
       2A2     1.525375     6B1     1.775888     6B2     1.775888  
      14A1     2.136837  

    Beta Occupied:                                                        

       1A1    -9.929794     2A1    -3.795420     3A1    -0.256300  
       1B2     0.061121     1B1     0.061121  

    Beta Virtual:                                                         

       4A1     0.076481     5A1     0.150853     2B2     0.250498  
       2B1     0.250498     6A1     0.284076     7A1     0.385298  
       3B1     0.429215     3B2     0.429215     8A1     0.693320  
       1A2     0.722465     9A1     0.722465     4B2     0.782724  
       4B1     0.782724    10A1     0.785578     5B2     0.893382  
       5B1     0.893382    11A1     1.168720    12A1     1.432738  
      13A1     1.540029     2A2     1.540029     6B2     1.819275  
       6B1     1.819275    14A1     2.181053  

    Final Occupation by Irrep:
             A1    A2    B1    B2 
    DOCC [     3,    0,    1,    1 ]
    SOCC [     1,    0,    0,    0 ]
    NA   [     4,    0,    1,    1 ]
    NB   [     3,    0,    1,    1 ]

  @DF-UKS Final Energy:   -52.56827810373338

   => Energetics <=

    Nuclear Repulsion Energy =              8.8919321534424718
    One-Electron Energy =                 -90.2196973275202083
    Two-Electron Energy =                  35.5097912189361722
    DFT Exchange-Correlation Energy =      -6.7503041485918125
    Empirical Dispersion Energy =           0.0000000000000000
    VV10 Nonlocal Energy =                  0.0000000000000000
    Total Energy =                        -52.5682781037333768

  UHF NO Occupations:
  HONO-2 :    1 B2 1.9984837
  HONO-1 :    1 B1 1.9984837
  HONO-0 :    4 A1 1.0000000
  LUNO+0 :    2 B1 0.0015163
  LUNO+1 :    2 B2 0.0015163
  LUNO+2 :    5 A1 0.0011936
  LUNO+3 :    6 A1 0.0000001


Computation Completed


Properties will be evaluated at   0.000000,   0.000000,   0.000000 [a0]

Properties computed using the SCF density matrix


 Multipole Moments:

 ------------------------------------------------------------------------------------
     Multipole            Electronic (a.u.)      Nuclear  (a.u.)        Total (a.u.)
 ------------------------------------------------------------------------------------

 L = 1.  Multiply by 2.5417464519 to convert [e a0] to [Debye]
 Dipole X            :          0.0000000            0.0000000            0.0000000
 Dipole Y            :          0.0000000            0.0000000            0.0000000
 Dipole Z            :          1.3310039           -0.7801071            0.5508968
 Magnitude           :                                                    0.5508968

 ------------------------------------------------------------------------------------

*** tstop() called on Joses-MacBook-Pro-2.local at Thu Jul 17 09:39:39 2025
Module time:
	user time   =       5.56 seconds =       0.09 minutes
	system time =       4.36 seconds =       0.07 minutes
	total time  =          1 seconds =       0.02 minutes
Total time:
	user time   =      17.72 seconds =       0.30 minutes
	system time =      17.43 seconds =       0.29 minutes
	total time  =          4 seconds =       0.07 minutes

*** tstart() called on Joses-MacBook-Pro-2.local
*** at Thu Jul 17 09:39:39 2025


         ------------------------------------------------------------
                                   SCF GRAD                          
                          Rob Parrish, Justin Turney,                
                       Andy Simmonett, and Alex Sokolov              
         ------------------------------------------------------------

  ==> Geometry <==

    Molecular point group: c2v
    Full point group: C_inf_v

    Geometry (in Angstrom), charge = -1, multiplicity = 2:

       Center              X                  Y                   Z               Mass       
    ------------   -----------------  -----------------  -----------------  -----------------
         BE           0.000000000000     0.000000000000     0.815692190479     9.012183065000
         C            0.000000000000     0.000000000000    -0.612597278774    12.000000000000

  Nuclear repulsion =    8.891932153442472

  ==> Basis Set <==

  Basis Set: CC-PVDZ
    Blend: CC-PVDZ
    Number of shells: 12
    Number of basis functions: 28
    Number of Cartesian functions: 30
    Spherical Harmonics?: true
    Max angular momentum: 2

  ==> DFJKGrad: Density-Fitted SCF Gradients <==

    Gradient:                    1
    J tasked:                  Yes
    K tasked:                  Yes
    wK tasked:                  No
    OpenMP threads:              1
    Integrals threads:           1
    Memory [MiB]:              375
    Schwarz Cutoff:          1E-12
    Fitting Condition:       1E-10

   => Auxiliary Basis Set <=

  Basis Set: (CC-PVDZ AUX)
    Blend: CC-PVDZ-JKFIT + DEF2-UNIVERSAL-JKFIT
    Number of shells: 41
    Number of basis functions: 121
    Number of Cartesian functions: 141
    Spherical Harmonics?: true
    Max angular momentum: 3

  ==> DFT Potential <==

   => LibXC <=

    Version 6.2.2
    S. Lehtola, C. Steigemann, M. J.T. Oliveira, and M. A.L. Marques.,  SoftwareX 7, 1–5 (2018) (10.1016/j.softx.2017.11.002)

   => Composite Functional: B3LYP <= 

    B3LYP Hyb-GGA Exchange-Correlation Functional

    P. J. Stephens, F. J. Devlin, C. F. Chabalowski, and M. J. Frisch.,  J. Phys. Chem. 98, 11623 (1994) (10.1021/j100096a001)

    Deriv               =              1
    GGA                 =           TRUE
    Meta                =          FALSE

    Exchange Hybrid     =           TRUE
    MP2 Hybrid          =          FALSE

   => Exchange Functionals <=

    0.0800   Slater exchange
    0.7200         Becke 88

   => Exact (HF) Exchange <=

    0.2000               HF 

   => Correlation Functionals <=

    0.1900   Vosko, Wilk & Nusair (VWN5_RPA)
    0.8100   Lee, Yang & Parr

   => LibXC Density Thresholds  <==

    XC_HYB_GGA_XC_B3LYP:  1.00E-15 

   => Molecular Quadrature <=

    Radial Scheme          =       TREUTLER
    Pruning Scheme         =           NONE
    Nuclear Scheme         =       TREUTLER

    Blocking Scheme        =         OCTREE
    BS radius alpha        =              1
    Pruning alpha          =              1
    Radial Points          =             75
    Spherical Points       =            302
    Total Points           =          43341
    Total Blocks           =            405
    Max Points             =            252
    Max Functions          =             28
    Weights Tolerance      =       1.00E-15


  -Total Gradient:
     Atom            X                  Y                   Z
    ------   -----------------  -----------------  -----------------
       1        0.000000000000     0.000000000000    -0.042669323213
       2        0.000000000000     0.000000000000     0.042681942460


*** tstop() called on Joses-MacBook-Pro-2.local at Thu Jul 17 09:39:39 2025
Module time:
	user time   =       0.60 seconds =       0.01 minutes
	system time =       1.18 seconds =       0.02 minutes
	total time  =          0 seconds =       0.00 minutes
Total time:
	user time   =      18.33 seconds =       0.31 minutes
	system time =      18.61 seconds =       0.31 minutes
	total time  =          4 seconds =       0.07 minutes

    			-----------------------------------------

    			 OPTKING 3.0: for geometry optimizations 

    			     By R.A. King, Bethel University     

    			        with contributions from          

    			    A.V. Copan, J. Cayton, A. Heide      

    			-----------------------------------------

    
	                            ===> Fragment 1 <== 

	 Z (Atomic Numbers)          Masses                          Geom                  
	       4.000000             9.012183          0.00000000  0.00000000  1.54143484   
	       6.000000            12.000000          0.00000000  0.00000000 -1.15764108   

	 - Coordinate -           - BOHR/RAD -       - ANG/DEG -
	 R(1,2)           =         2.699076           1.428289


	        --- Internal Coordinate Step in ANG or DEG, aJ/ANG or AJ/DEG ---
	-------------------------------------------------------------------------------
	           Coordinate      Previous         Force          Change          New 
	           ----------      --------        ------          ------        ------
	               R(1,2)       1.42829        0.35159        0.03057       1.45886
	-------------------------------------------------------------------------------

	                                 ==> Convergence Check <==                                  
    
	Measures of convergence in internal coordinates in au.
    
	Criteria marked as inactive (o), active & met (*), and active & unmet ( ).

	----------------------------------------------------------------------------------------------
	   Step    Total Energy     Delta E     Max Force     RMS Force      Max Disp      RMS Disp   
	----------------------------------------------------------------------------------------------
	  Convergence Criteria     1.00e-06 *    3.00e-04 *             o    1.20e-03 *             o
	----------------------------------------------------------------------------------------------
	     3     -52.56827810   -8.56e-03      4.27e-02      4.27e-02 o    5.78e-02      5.78e-02 o  ~
	----------------------------------------------------------------------------------------------

Next Geometry in Ang 
	Fragment 1 (Ang)

	   Be   0.0000000000   0.0000000000   0.8309787772
	    C   0.0000000000   0.0000000000  -0.6278838655


    Structure for next step:
    Molecular point group: c2v
    Full point group: C_inf_v

    Geometry (in Angstrom), charge = -1, multiplicity = 2:

    BE           0.000000000000     0.000000000000     0.833152445827
    C            0.000000000000     0.000000000000    -0.625710196903


Scratch directory: /tmp/
gradient() will perform analytic gradient computation.
   => Libint2 <=

    Primary   basis highest AM E, G, H:  6, 6, 3
    Auxiliary basis highest AM E, G, H:  7, 7, 4
    Onebody   basis highest AM E, G, H:  -, -, -
    Solid Harmonics ordering:            Gaussian

*** tstart() called on Joses-MacBook-Pro-2.local
*** at Thu Jul 17 09:39:39 2025

   => Loading Basis Set <=

    Name: CC-PVDZ
    Role: ORBITAL
    Keyword: BASIS
    atoms 1 entry BE         line    75 file /Users/joseantoniorodriguesromero/anaconda3/share/psi4/basis/cc-pvdz.gbs 
    atoms 2 entry C          line   138 file /Users/joseantoniorodriguesromero/anaconda3/share/psi4/basis/cc-pvdz.gbs 


         ---------------------------------------------------------
                                   SCF
               by Justin Turney, Rob Parrish, Andy Simmonett
                          and Daniel G. A. Smith
                              UKS Reference
                        1 Threads,    500 MiB Core
         ---------------------------------------------------------

  ==> Geometry <==

    Molecular point group: c2v
    Full point group: C_inf_v

    Geometry (in Angstrom), charge = -1, multiplicity = 2:

       Center              X                  Y                   Z               Mass       
    ------------   -----------------  -----------------  -----------------  -----------------
         BE           0.000000000000     0.000000000000     0.833152445827     9.012183065000
         C            0.000000000000     0.000000000000    -0.625710196903    12.000000000000

  Running in c2v symmetry.

  Rotational constants: A = ************  B =      1.53896  C =      1.53896 [cm^-1]
  Rotational constants: A = ************  B =  46136.89012  C =  46136.89012 [MHz]
  Nuclear repulsion =    8.705585216928275

  Charge       = -1
  Multiplicity = 2
  Electrons    = 11
  Nalpha       = 6
  Nbeta        = 5

  ==> Algorithm <==

  SCF Algorithm Type is DF.
  DIIS enabled.
  MOM disabled.
  Fractional occupation disabled.
  Guess Type is READ.
  Energy threshold   = 1.00e-08
  Density threshold  = 1.00e-08
  Integral threshold = 1.00e-12

  ==> Primary Basis <==

  Basis Set: CC-PVDZ
    Blend: CC-PVDZ
    Number of shells: 12
    Number of basis functions: 28
    Number of Cartesian functions: 30
    Spherical Harmonics?: true
    Max angular momentum: 2

  ==> DFT Potential <==

   => LibXC <=

    Version 6.2.2
    S. Lehtola, C. Steigemann, M. J.T. Oliveira, and M. A.L. Marques.,  SoftwareX 7, 1–5 (2018) (10.1016/j.softx.2017.11.002)

   => Composite Functional: B3LYP <= 

    B3LYP Hyb-GGA Exchange-Correlation Functional

    P. J. Stephens, F. J. Devlin, C. F. Chabalowski, and M. J. Frisch.,  J. Phys. Chem. 98, 11623 (1994) (10.1021/j100096a001)

    Deriv               =              1
    GGA                 =           TRUE
    Meta                =          FALSE

    Exchange Hybrid     =           TRUE
    MP2 Hybrid          =          FALSE

   => Exchange Functionals <=

    0.0800   Slater exchange
    0.7200         Becke 88

   => Exact (HF) Exchange <=

    0.2000               HF 

   => Correlation Functionals <=

    0.1900   Vosko, Wilk & Nusair (VWN5_RPA)
    0.8100   Lee, Yang & Parr

   => LibXC Density Thresholds  <==

    XC_HYB_GGA_XC_B3LYP:  1.00E-15 

   => Molecular Quadrature <=

    Radial Scheme          =       TREUTLER
    Pruning Scheme         =           NONE
    Nuclear Scheme         =       TREUTLER

    Blocking Scheme        =         OCTREE
    BS radius alpha        =              1
    Pruning alpha          =              1
    Radial Points          =             75
    Spherical Points       =            302
    Total Points           =          43345
    Total Blocks           =            404
    Max Points             =            253
    Max Functions          =             28
    Weights Tolerance      =       1.00E-15

   => Loading Basis Set <=

    Name: (CC-PVDZ AUX)
    Role: JKFIT
    Keyword: DF_BASIS_SCF
    atoms 1 entry BE         line    96 file /Users/joseantoniorodriguesromero/anaconda3/share/psi4/basis/def2-universal-jkfit.gbs 
    atoms 2 entry C          line   121 file /Users/joseantoniorodriguesromero/anaconda3/share/psi4/basis/cc-pvdz-jkfit.gbs 

   => Loading Basis Set <=

    Name: CC-PVDZ
    Role: ORBITAL
    Keyword: BASIS
    atoms 1 entry BE         line    75 file /Users/joseantoniorodriguesromero/anaconda3/share/psi4/basis/cc-pvdz.gbs 
    atoms 2 entry C          line   138 file /Users/joseantoniorodriguesromero/anaconda3/share/psi4/basis/cc-pvdz.gbs 

  Reading orbitals from file /tmp/doublet_BeC.default.72049.180.npy, no projection.

  ==> Integral Setup <==

  DFHelper Memory: AOs need 0.001 GiB; user supplied 0.331 GiB. 
  Using in-core AOs.

  ==> MemDFJK: Density-Fitted J/K Matrices <==

    J tasked:                   Yes
    K tasked:                   Yes
    wK tasked:                   No
    OpenMP threads:               1
    Memory [MiB]:               339
    Algorithm:                 Core
    Schwarz Cutoff:           1E-12
    Mask sparsity (%):       0.0000
    Fitting Condition:        1E-10

   => Auxiliary Basis Set <=

  Basis Set: (CC-PVDZ AUX)
    Blend: CC-PVDZ-JKFIT + DEF2-UNIVERSAL-JKFIT
    Number of shells: 41
    Number of basis functions: 121
    Number of Cartesian functions: 141
    Spherical Harmonics?: true
    Max angular momentum: 3

  Cached 100.0% of DFT collocation blocks in 0.035 [GiB].

  Minimum eigenvalue in the overlap matrix is 6.8836889673E-03.
  Reciprocal condition number of the overlap matrix is 2.0801623819E-03.
    Using symmetric orthogonalization.

  ==> Pre-Iterations <==

  SCF Guess: Orbitals guess was supplied from a previous computation.

   -------------------------------------------------------
    Irrep   Nso     Nmo     Nalpha   Nbeta   Ndocc  Nsocc
   -------------------------------------------------------
     A1        14      14       4       3       3       1
     A2         2       2       0       0       0       0
     B1         6       6       1       1       1       0
     B2         6       6       1       1       1       0
   -------------------------------------------------------
    Total      28      28       6       5       5       1
   -------------------------------------------------------

  ==> Iterations <==

                           Total Energy        Delta E     RMS |[F,P]|

   @DF-UKS iter   0:   -52.56678805672298   -5.25668e+01   2.49546e-03 
   @DF-UKS iter   1:   -52.56931408281404   -2.52603e-03   1.82860e-03 ADIIS/DIIS
   @DF-UKS iter   2:   -52.55804838438890    1.12657e-02   7.62603e-03 ADIIS/DIIS/DAMP=1%
   @DF-UKS iter   3:   -52.56699631291353   -8.94793e-03   3.96574e-04 ADIIS/DIIS/DAMP=1%
   @DF-UKS iter   4:   -52.56991423567954   -2.91792e-03   1.54785e-04 ADIIS/DIIS/DAMP=1%
   @DF-UKS iter   5:   -52.57004186483056   -1.27629e-04   5.43525e-05 DIIS/DAMP=1%
   @DF-UKS iter   6:   -52.57004479988045   -2.93505e-06   2.73155e-05 DIIS/DAMP=1%
   @DF-UKS iter   7:   -52.57009231078425   -4.75109e-05   1.05935e-05 DIIS/DAMP=1%
   @DF-UKS iter   8:   -52.57007702029863    1.52905e-05   4.01943e-06 DIIS/DAMP=1%
   @DF-UKS iter   9:   -52.57007516703509    1.85326e-06   1.82446e-06 DIIS/DAMP=1%
   @DF-UKS iter  10:   -52.57007780282409   -2.63579e-06   1.92698e-07 DIIS/DAMP=1%
   @DF-UKS iter  11:   -52.57007717450342    6.28321e-07   9.58048e-08 DIIS/DAMP=1%
   @DF-UKS iter  12:   -52.57007711600347    5.84999e-08   4.40725e-09 DIIS/DAMP=1%
   @DF-UKS iter  13:   -52.57007714454417   -2.85407e-08   3.24235e-09 DIIS/DAMP=1%
   @DF-UKS iter  14:   -52.57007714983418   -5.29000e-09   1.12811e-10 DIIS/DAMP=1%
  Energy and wave function converged.


  ==> Post-Iterations <==

   Electrons on quadrature grid:
      Nalpha   =    6.0000001431 ; deviation = 1.431e-07
      Nbeta    =    5.0000001291 ; deviation = 1.291e-07
      Ntotal   =   11.0000002722 ; deviation = 2.722e-07 

   @Spin Contamination Metric:   7.879119011E-03
   @S^2 Expected:                7.500000000E-01
   @S^2 Observed:                7.578791190E-01
   @S   Expected:                5.000000000E-01
   @S   Observed:                5.000000000E-01

    Orbital Energies [Eh]
    ---------------------

    Alpha Occupied:                                                       

       1A1    -9.947210     2A1    -3.809463     3A1    -0.296234  
       4A1    -0.021700     1B2     0.045921     1B1     0.045921  

    Alpha Virtual:                                                        

       5A1     0.082170     2B2     0.235756     2B1     0.235756  
       6A1     0.276061     7A1     0.374642     3B1     0.412608  
       3B2     0.412608     8A1     0.653014     1A2     0.712088  
       9A1     0.712088    10A1     0.744116     4B2     0.770765  
       4B1     0.770765     5B2     0.864095     5B1     0.864095  
      11A1     1.115353    12A1     1.374403    13A1     1.519507  
       2A2     1.519508     6B2     1.762203     6B1     1.762203  
      14A1     2.106604  

    Beta Occupied:                                                        

       1A1    -9.935866     2A1    -3.801674     3A1    -0.257461  
       1B1     0.061142     1B2     0.061142  

    Beta Virtual:                                                         

       4A1     0.074080     5A1     0.147524     2B2     0.247560  
       2B1     0.247560     6A1     0.282621     7A1     0.384408  
       3B2     0.425308     3B1     0.425308     8A1     0.686334  
       1A2     0.721181     9A1     0.721181    10A1     0.773982  
       4B2     0.783597     4B1     0.783597     5B2     0.881811  
       5B1     0.881811    11A1     1.158310    12A1     1.394854  
      13A1     1.533477     2A2     1.533477     6B2     1.804428  
       6B1     1.804428    14A1     2.150758  

    Final Occupation by Irrep:
             A1    A2    B1    B2 
    DOCC [     3,    0,    1,    1 ]
    SOCC [     1,    0,    0,    0 ]
    NA   [     4,    0,    1,    1 ]
    NB   [     3,    0,    1,    1 ]

  @DF-UKS Final Energy:   -52.57007714983418

   => Energetics <=

    Nuclear Repulsion Energy =              8.7055852169282755
    One-Electron Energy =                 -89.8319952833237778
    Two-Electron Energy =                  35.2941389376502954
    DFT Exchange-Correlation Energy =      -6.7378060210889616
    Empirical Dispersion Energy =           0.0000000000000000
    VV10 Nonlocal Energy =                  0.0000000000000000
    Total Energy =                        -52.5700771498341766

  UHF NO Occupations:
  HONO-2 :    1 B2 1.9986923
  HONO-1 :    3 A1 1.9986735
  HONO-0 :    4 A1 1.0000000
  LUNO+0 :    5 A1 0.0013265
  LUNO+1 :    2 B2 0.0013077
  LUNO+2 :    2 B1 0.0013077
  LUNO+3 :    6 A1 0.0000001


Computation Completed


Properties will be evaluated at   0.000000,   0.000000,   0.000000 [a0]

Properties computed using the SCF density matrix


 Multipole Moments:

 ------------------------------------------------------------------------------------
     Multipole            Electronic (a.u.)      Nuclear  (a.u.)        Total (a.u.)
 ------------------------------------------------------------------------------------

 L = 1.  Multiply by 2.5417464519 to convert [e a0] to [Debye]
 Dipole X            :          0.0000000            0.0000000            0.0000000
 Dipole Y            :          0.0000000            0.0000000            0.0000000
 Dipole Z            :          1.3298120           -0.7968057            0.5330064
 Magnitude           :                                                    0.5330064

 ------------------------------------------------------------------------------------

*** tstop() called on Joses-MacBook-Pro-2.local at Thu Jul 17 09:39:40 2025
Module time:
	user time   =       4.72 seconds =       0.08 minutes
	system time =       4.60 seconds =       0.08 minutes
	total time  =          1 seconds =       0.02 minutes
Total time:
	user time   =      23.09 seconds =       0.38 minutes
	system time =      23.47 seconds =       0.39 minutes
	total time  =          5 seconds =       0.08 minutes

*** tstart() called on Joses-MacBook-Pro-2.local
*** at Thu Jul 17 09:39:40 2025


         ------------------------------------------------------------
                                   SCF GRAD                          
                          Rob Parrish, Justin Turney,                
                       Andy Simmonett, and Alex Sokolov              
         ------------------------------------------------------------

  ==> Geometry <==

    Molecular point group: c2v
    Full point group: C_inf_v

    Geometry (in Angstrom), charge = -1, multiplicity = 2:

       Center              X                  Y                   Z               Mass       
    ------------   -----------------  -----------------  -----------------  -----------------
         BE           0.000000000000     0.000000000000     0.833152445827     9.012183065000
         C            0.000000000000     0.000000000000    -0.625710196903    12.000000000000

  Nuclear repulsion =    8.705585216928275

  ==> Basis Set <==

  Basis Set: CC-PVDZ
    Blend: CC-PVDZ
    Number of shells: 12
    Number of basis functions: 28
    Number of Cartesian functions: 30
    Spherical Harmonics?: true
    Max angular momentum: 2

  ==> DFJKGrad: Density-Fitted SCF Gradients <==

    Gradient:                    1
    J tasked:                  Yes
    K tasked:                  Yes
    wK tasked:                  No
    OpenMP threads:              1
    Integrals threads:           1
    Memory [MiB]:              375
    Schwarz Cutoff:          1E-12
    Fitting Condition:       1E-10

   => Auxiliary Basis Set <=

  Basis Set: (CC-PVDZ AUX)
    Blend: CC-PVDZ-JKFIT + DEF2-UNIVERSAL-JKFIT
    Number of shells: 41
    Number of basis functions: 121
    Number of Cartesian functions: 141
    Spherical Harmonics?: true
    Max angular momentum: 3

  ==> DFT Potential <==

   => LibXC <=

    Version 6.2.2
    S. Lehtola, C. Steigemann, M. J.T. Oliveira, and M. A.L. Marques.,  SoftwareX 7, 1–5 (2018) (10.1016/j.softx.2017.11.002)

   => Composite Functional: B3LYP <= 

    B3LYP Hyb-GGA Exchange-Correlation Functional

    P. J. Stephens, F. J. Devlin, C. F. Chabalowski, and M. J. Frisch.,  J. Phys. Chem. 98, 11623 (1994) (10.1021/j100096a001)

    Deriv               =              1
    GGA                 =           TRUE
    Meta                =          FALSE

    Exchange Hybrid     =           TRUE
    MP2 Hybrid          =          FALSE

   => Exchange Functionals <=

    0.0800   Slater exchange
    0.7200         Becke 88

   => Exact (HF) Exchange <=

    0.2000               HF 

   => Correlation Functionals <=

    0.1900   Vosko, Wilk & Nusair (VWN5_RPA)
    0.8100   Lee, Yang & Parr

   => LibXC Density Thresholds  <==

    XC_HYB_GGA_XC_B3LYP:  1.00E-15 

   => Molecular Quadrature <=

    Radial Scheme          =       TREUTLER
    Pruning Scheme         =           NONE
    Nuclear Scheme         =       TREUTLER

    Blocking Scheme        =         OCTREE
    BS radius alpha        =              1
    Pruning alpha          =              1
    Radial Points          =             75
    Spherical Points       =            302
    Total Points           =          43345
    Total Blocks           =            404
    Max Points             =            253
    Max Functions          =             28
    Weights Tolerance      =       1.00E-15


  -Total Gradient:
     Atom            X                  Y                   Z
    ------   -----------------  -----------------  -----------------
       1        0.000000000000    -0.000000000000    -0.020176938877
       2        0.000000000000    -0.000000000000     0.020192109639


*** tstop() called on Joses-MacBook-Pro-2.local at Thu Jul 17 09:39:40 2025
Module time:
	user time   =       0.47 seconds =       0.01 minutes
	system time =       1.10 seconds =       0.02 minutes
	total time  =          0 seconds =       0.00 minutes
Total time:
	user time   =      23.56 seconds =       0.39 minutes
	system time =      24.58 seconds =       0.41 minutes
	total time  =          5 seconds =       0.08 minutes

    			-----------------------------------------

    			 OPTKING 3.0: for geometry optimizations 

    			     By R.A. King, Bethel University     

    			        with contributions from          

    			    A.V. Copan, J. Cayton, A. Heide      

    			-----------------------------------------

    
	                            ===> Fragment 1 <== 

	 Z (Atomic Numbers)          Masses                          Geom                  
	       4.000000             9.012183          0.00000000  0.00000000  1.57442994   
	       6.000000            12.000000          0.00000000  0.00000000 -1.18242091   

	 - Coordinate -           - BOHR/RAD -       - ANG/DEG -
	 R(1,2)           =         2.756851           1.458863


	        --- Internal Coordinate Step in ANG or DEG, aJ/ANG or AJ/DEG ---
	-------------------------------------------------------------------------------
	           Coordinate      Previous         Force          Change          New 
	           ----------      --------        ------          ------        ------
	               R(1,2)       1.45886        0.16629        0.01535       1.47421
	-------------------------------------------------------------------------------

	                                 ==> Convergence Check <==                                  
    
	Measures of convergence in internal coordinates in au.
    
	Criteria marked as inactive (o), active & met (*), and active & unmet ( ).

	----------------------------------------------------------------------------------------------
	   Step    Total Energy     Delta E     Max Force     RMS Force      Max Disp      RMS Disp   
	----------------------------------------------------------------------------------------------
	  Convergence Criteria     1.00e-06 *    3.00e-04 *             o    1.20e-03 *             o
	----------------------------------------------------------------------------------------------
	     4     -52.57007715   -1.80e-03      2.02e-02      2.02e-02 o    2.90e-02      2.90e-02 o  ~
	----------------------------------------------------------------------------------------------

Next Geometry in Ang 
	Fragment 1 (Ang)

	   Be   0.0000000000   0.0000000000   0.8408278944
	    C   0.0000000000   0.0000000000  -0.6333856454


    Structure for next step:
    Molecular point group: c2v
    Full point group: C_inf_v

    Geometry (in Angstrom), charge = -1, multiplicity = 2:

    BE           0.000000000000     0.000000000000     0.841919300962
    C            0.000000000000     0.000000000000    -0.632294238852


Scratch directory: /tmp/
gradient() will perform analytic gradient computation.
   => Libint2 <=

    Primary   basis highest AM E, G, H:  6, 6, 3
    Auxiliary basis highest AM E, G, H:  7, 7, 4
    Onebody   basis highest AM E, G, H:  -, -, -
    Solid Harmonics ordering:            Gaussian

*** tstart() called on Joses-MacBook-Pro-2.local
*** at Thu Jul 17 09:39:40 2025

   => Loading Basis Set <=

    Name: CC-PVDZ
    Role: ORBITAL
    Keyword: BASIS
    atoms 1 entry BE         line    75 file /Users/joseantoniorodriguesromero/anaconda3/share/psi4/basis/cc-pvdz.gbs 
    atoms 2 entry C          line   138 file /Users/joseantoniorodriguesromero/anaconda3/share/psi4/basis/cc-pvdz.gbs 


         ---------------------------------------------------------
                                   SCF
               by Justin Turney, Rob Parrish, Andy Simmonett
                          and Daniel G. A. Smith
                              UKS Reference
[...]
    
	Criteria marked as inactive (o), active & met (*), and active & unmet ( ).

	----------------------------------------------------------------------------------------------
	   Step    Total Energy     Delta E     Max Force     RMS Force      Max Disp      RMS Disp   
	----------------------------------------------------------------------------------------------
	  Convergence Criteria     1.00e-06 *    3.00e-04 *             o    1.20e-03 *             o
	----------------------------------------------------------------------------------------------
	     7     -52.57067287   -1.12e-05      7.74e-04      7.74e-04 o    2.14e-03      2.14e-03 o  ~
	----------------------------------------------------------------------------------------------

Next Geometry in Ang 
	Fragment 1 (Ang)

	   Be   0.0000000000   0.0000000000   0.8513393872
	    C   0.0000000000   0.0000000000  -0.6395101193


    Structure for next step:
    Molecular point group: c2v
    Full point group: C_inf_v

    Geometry (in Angstrom), charge = -1, multiplicity = 2:

    BE           0.000000000000     0.000000000000     0.851420055781
    C            0.000000000000     0.000000000000    -0.639429450659


Scratch directory: /tmp/
gradient() will perform analytic gradient computation.
   => Libint2 <=

    Primary   basis highest AM E, G, H:  6, 6, 3
    Auxiliary basis highest AM E, G, H:  7, 7, 4
    Onebody   basis highest AM E, G, H:  -, -, -
    Solid Harmonics ordering:            Gaussian

*** tstart() called on Joses-MacBook-Pro-2.local
*** at Thu Jul 17 09:39:43 2025

   => Loading Basis Set <=

    Name: CC-PVDZ
    Role: ORBITAL
    Keyword: BASIS
    atoms 1 entry BE         line    75 file /Users/joseantoniorodriguesromero/anaconda3/share/psi4/basis/cc-pvdz.gbs 
    atoms 2 entry C          line   138 file /Users/joseantoniorodriguesromero/anaconda3/share/psi4/basis/cc-pvdz.gbs 


         ---------------------------------------------------------
                                   SCF
               by Justin Turney, Rob Parrish, Andy Simmonett
                          and Daniel G. A. Smith
                              UKS Reference
                        1 Threads,    500 MiB Core
         ---------------------------------------------------------

  ==> Geometry <==

    Molecular point group: c2v
    Full point group: C_inf_v

    Geometry (in Angstrom), charge = -1, multiplicity = 2:

       Center              X                  Y                   Z               Mass       
    ------------   -----------------  -----------------  -----------------  -----------------
         BE           0.000000000000     0.000000000000     0.851420055781     9.012183065000
         C            0.000000000000     0.000000000000    -0.639429450659    12.000000000000

  Running in c2v symmetry.

  Rotational constants: A = ************  B =      1.47363  C =      1.47363 [cm^-1]
  Rotational constants: A = ************  B =  44178.35212  C =  44178.35212 [MHz]
  Nuclear repulsion =    8.518802871261205

  Charge       = -1
  Multiplicity = 2
  Electrons    = 11
  Nalpha       = 6
  Nbeta        = 5

  ==> Algorithm <==

  SCF Algorithm Type is DF.
  DIIS enabled.
  MOM disabled.
  Fractional occupation disabled.
  Guess Type is READ.
  Energy threshold   = 1.00e-08
  Density threshold  = 1.00e-08
  Integral threshold = 1.00e-12

  ==> Primary Basis <==

  Basis Set: CC-PVDZ
    Blend: CC-PVDZ
    Number of shells: 12
    Number of basis functions: 28
    Number of Cartesian functions: 30
    Spherical Harmonics?: true
    Max angular momentum: 2

  ==> DFT Potential <==

   => LibXC <=

    Version 6.2.2
    S. Lehtola, C. Steigemann, M. J.T. Oliveira, and M. A.L. Marques.,  SoftwareX 7, 1–5 (2018) (10.1016/j.softx.2017.11.002)

   => Composite Functional: B3LYP <= 

    B3LYP Hyb-GGA Exchange-Correlation Functional

    P. J. Stephens, F. J. Devlin, C. F. Chabalowski, and M. J. Frisch.,  J. Phys. Chem. 98, 11623 (1994) (10.1021/j100096a001)

    Deriv               =              1
    GGA                 =           TRUE
    Meta                =          FALSE

    Exchange Hybrid     =           TRUE
    MP2 Hybrid          =          FALSE

   => Exchange Functionals <=

    0.0800   Slater exchange
    0.7200         Becke 88

   => Exact (HF) Exchange <=

    0.2000               HF 

   => Correlation Functionals <=

    0.1900   Vosko, Wilk & Nusair (VWN5_RPA)
    0.8100   Lee, Yang & Parr

   => LibXC Density Thresholds  <==

    XC_HYB_GGA_XC_B3LYP:  1.00E-15 

   => Molecular Quadrature <=

    Radial Scheme          =       TREUTLER
    Pruning Scheme         =           NONE
    Nuclear Scheme         =       TREUTLER

    Blocking Scheme        =         OCTREE
    BS radius alpha        =              1
    Pruning alpha          =              1
    Radial Points          =             75
    Spherical Points       =            302
    Total Points           =          43350
    Total Blocks           =            404
    Max Points             =            254
    Max Functions          =             28
    Weights Tolerance      =       1.00E-15

   => Loading Basis Set <=

    Name: (CC-PVDZ AUX)
    Role: JKFIT
    Keyword: DF_BASIS_SCF
    atoms 1 entry BE         line    96 file /Users/joseantoniorodriguesromero/anaconda3/share/psi4/basis/def2-universal-jkfit.gbs 
    atoms 2 entry C          line   121 file /Users/joseantoniorodriguesromero/anaconda3/share/psi4/basis/cc-pvdz-jkfit.gbs 

   => Loading Basis Set <=

    Name: CC-PVDZ
    Role: ORBITAL
    Keyword: BASIS
    atoms 1 entry BE         line    75 file /Users/joseantoniorodriguesromero/anaconda3/share/psi4/basis/cc-pvdz.gbs 
    atoms 2 entry C          line   138 file /Users/joseantoniorodriguesromero/anaconda3/share/psi4/basis/cc-pvdz.gbs 

  Reading orbitals from file /tmp/doublet_BeC.default.72049.180.npy, no projection.

  ==> Integral Setup <==

  DFHelper Memory: AOs need 0.001 GiB; user supplied 0.331 GiB. 
  Using in-core AOs.

  ==> MemDFJK: Density-Fitted J/K Matrices <==

    J tasked:                   Yes
    K tasked:                   Yes
    wK tasked:                   No
    OpenMP threads:               1
    Memory [MiB]:               339
    Algorithm:                 Core
    Schwarz Cutoff:           1E-12
    Mask sparsity (%):       0.0000
    Fitting Condition:        1E-10

   => Auxiliary Basis Set <=

  Basis Set: (CC-PVDZ AUX)
    Blend: CC-PVDZ-JKFIT + DEF2-UNIVERSAL-JKFIT
    Number of shells: 41
    Number of basis functions: 121
    Number of Cartesian functions: 141
    Spherical Harmonics?: true
    Max angular momentum: 3

  Cached 100.0% of DFT collocation blocks in 0.035 [GiB].

  Minimum eigenvalue in the overlap matrix is 7.5889144563E-03.
  Reciprocal condition number of the overlap matrix is 2.2981316707E-03.
    Using symmetric orthogonalization.

  ==> Pre-Iterations <==

  SCF Guess: Orbitals guess was supplied from a previous computation.

   -------------------------------------------------------
    Irrep   Nso     Nmo     Nalpha   Nbeta   Ndocc  Nsocc
   -------------------------------------------------------
     A1        14      14       4       3       3       1
     A2         2       2       0       0       0       0
     B1         6       6       1       1       1       0
     B2         6       6       1       1       1       0
   -------------------------------------------------------
    Total      28      28       6       5       5       1
   -------------------------------------------------------

  ==> Iterations <==

                           Total Energy        Delta E     RMS |[F,P]|

   @DF-UKS iter   0:   -52.57055969371946   -5.25706e+01   8.58303e-05 
   @DF-UKS iter   1:   -52.57067259950698   -1.12906e-04   7.34186e-05 DIIS
   @DF-UKS iter   2:   -52.57065426497057    1.83345e-05   3.09087e-04 ADIIS/DIIS/DAMP=1%
   @DF-UKS iter   3:   -52.57055129911394    1.02966e-04   9.26968e-06 DIIS/DAMP=1%
   @DF-UKS iter   4:   -52.57067028645464   -1.18987e-04   6.11991e-06 DIIS/DAMP=1%
   @DF-UKS iter   5:   -52.57067211056987   -1.82412e-06   1.44269e-06 DIIS/DAMP=1%
   @DF-UKS iter   6:   -52.57067330579896   -1.19523e-06   6.35924e-07 DIIS/DAMP=1%
   @DF-UKS iter   7:   -52.57067432439042   -1.01859e-06   6.30744e-07 DIIS/DAMP=1%
   @DF-UKS iter   8:   -52.57067357417414    7.50216e-07   1.77970e-07 DIIS/DAMP=1%
   @DF-UKS iter   9:   -52.57067389588362   -3.21709e-07   4.03742e-08 DIIS/DAMP=1%
   @DF-UKS iter  10:   -52.57067381900625    7.68774e-08   6.00678e-09 DIIS/DAMP=1%
   @DF-UKS iter  11:   -52.57067382711886   -8.11261e-09   2.26842e-09 DIIS/DAMP=1%
  Energy and wave function converged.


  ==> Post-Iterations <==

   Electrons on quadrature grid:
      Nalpha   =    6.0000002382 ; deviation = 2.382e-07
      Nbeta    =    5.0000002183 ; deviation = 2.183e-07
      Ntotal   =   11.0000004566 ; deviation = 4.566e-07 

   @Spin Contamination Metric:   7.063202128E-03
   @S^2 Expected:                7.500000000E-01
   @S^2 Observed:                7.570632021E-01
   @S   Expected:                5.000000000E-01
   @S   Observed:                5.000000000E-01

    Orbital Energies [Eh]
    ---------------------

    Alpha Occupied:                                                       

       1A1    -9.952989     2A1    -3.816021     3A1    -0.296062  
       4A1    -0.023948     1B1     0.046158     1B2     0.046158  

    Alpha Virtual:                                                        

       5A1     0.080038     2B1     0.232288     2B2     0.232288  
       6A1     0.274956     7A1     0.372676     3B2     0.408443  
       3B1     0.408443     8A1     0.644855     1A2     0.709718  
       9A1     0.709718    10A1     0.732549     4B2     0.771732  
       4B1     0.771732     5B2     0.852430     5B1     0.852430  
      11A1     1.105698    12A1     1.338742    13A1     1.513763  
       2A2     1.513763     6B2     1.748093     6B1     1.748093  
      14A1     2.079222  

    Beta Occupied:                                                        

       1A1    -9.942186     2A1    -3.808129     3A1    -0.258792  
       1B1     0.060988     1B2     0.060988  

    Beta Virtual:                                                         

       4A1     0.071761     5A1     0.144069     2B1     0.244360  
       2B2     0.244360     6A1     0.281197     7A1     0.383701  
       3B2     0.421614     3B1     0.421614     8A1     0.678824  
       1A2     0.719998     9A1     0.719999    10A1     0.761805  
       4B2     0.784408     4B1     0.784408     5B2     0.870137  
       5B1     0.870137    11A1     1.147739    12A1     1.357999  
      13A1     1.526714     2A2     1.526715     6B2     1.788841  
       6B1     1.788841    14A1     2.122818  

    Final Occupation by Irrep:
             A1    A2    B1    B2 
    DOCC [     3,    0,    1,    1 ]
    SOCC [     1,    0,    0,    0 ]
    NA   [     4,    0,    1,    1 ]
    NB   [     3,    0,    1,    1 ]

  @DF-UKS Final Energy:   -52.57067382711886

   => Energetics <=

    Nuclear Repulsion Energy =              8.5188028712612045
    One-Electron Energy =                 -89.4399521746398420
    Two-Electron Energy =                  35.0758237123368986
    DFT Exchange-Correlation Energy =      -6.7253482360771191
    Empirical Dispersion Energy =           0.0000000000000000
    VV10 Nonlocal Energy =                  0.0000000000000000
    Total Energy =                        -52.5706738271188598

  UHF NO Occupations:
  HONO-2 :    1 B1 1.9989807
  HONO-1 :    3 A1 1.9985051
  HONO-0 :    4 A1 1.0000000
  LUNO+0 :    5 A1 0.0014949
  LUNO+1 :    2 B1 0.0010193
  LUNO+2 :    2 B2 0.0010193
  LUNO+3 :    6 A1 0.0000001


Computation Completed


Properties will be evaluated at   0.000000,   0.000000,   0.000000 [a0]

Properties computed using the SCF density matrix


 Multipole Moments:

 ------------------------------------------------------------------------------------
     Multipole            Electronic (a.u.)      Nuclear  (a.u.)        Total (a.u.)
 ------------------------------------------------------------------------------------

 L = 1.  Multiply by 2.5417464519 to convert [e a0] to [Debye]
 Dipole X            :          0.0000000            0.0000000            0.0000000
 Dipole Y            :          0.0000000            0.0000000            0.0000000
 Dipole Z            :          1.3246500           -0.8142763            0.5103737
 Magnitude           :                                                    0.5103737

 ------------------------------------------------------------------------------------

*** tstop() called on Joses-MacBook-Pro-2.local at Thu Jul 17 09:39:44 2025
Module time:
	user time   =       4.15 seconds =       0.07 minutes
	system time =       3.56 seconds =       0.06 minutes
	total time  =          1 seconds =       0.02 minutes
Total time:
	user time   =      43.14 seconds =       0.72 minutes
	system time =      43.64 seconds =       0.73 minutes
	total time  =          9 seconds =       0.15 minutes

*** tstart() called on Joses-MacBook-Pro-2.local
*** at Thu Jul 17 09:39:44 2025


         ------------------------------------------------------------
                                   SCF GRAD                          
                          Rob Parrish, Justin Turney,                
                       Andy Simmonett, and Alex Sokolov              
         ------------------------------------------------------------

  ==> Geometry <==

    Molecular point group: c2v
    Full point group: C_inf_v

    Geometry (in Angstrom), charge = -1, multiplicity = 2:

       Center              X                  Y                   Z               Mass       
    ------------   -----------------  -----------------  -----------------  -----------------
         BE           0.000000000000     0.000000000000     0.851420055781     9.012183065000
         C            0.000000000000     0.000000000000    -0.639429450659    12.000000000000

  Nuclear repulsion =    8.518802871261205

  ==> Basis Set <==

  Basis Set: CC-PVDZ
    Blend: CC-PVDZ
    Number of shells: 12
    Number of basis functions: 28
    Number of Cartesian functions: 30
    Spherical Harmonics?: true
    Max angular momentum: 2

  ==> DFJKGrad: Density-Fitted SCF Gradients <==

    Gradient:                    1
    J tasked:                  Yes
    K tasked:                  Yes
    wK tasked:                  No
    OpenMP threads:              1
    Integrals threads:           1
    Memory [MiB]:              375
    Schwarz Cutoff:          1E-12
    Fitting Condition:       1E-10

   => Auxiliary Basis Set <=

  Basis Set: (CC-PVDZ AUX)
    Blend: CC-PVDZ-JKFIT + DEF2-UNIVERSAL-JKFIT
    Number of shells: 41
    Number of basis functions: 121
    Number of Cartesian functions: 141
    Spherical Harmonics?: true
    Max angular momentum: 3

  ==> DFT Potential <==

   => LibXC <=

    Version 6.2.2
    S. Lehtola, C. Steigemann, M. J.T. Oliveira, and M. A.L. Marques.,  SoftwareX 7, 1–5 (2018) (10.1016/j.softx.2017.11.002)

   => Composite Functional: B3LYP <= 

    B3LYP Hyb-GGA Exchange-Correlation Functional

    P. J. Stephens, F. J. Devlin, C. F. Chabalowski, and M. J. Frisch.,  J. Phys. Chem. 98, 11623 (1994) (10.1021/j100096a001)

    Deriv               =              1
    GGA                 =           TRUE
    Meta                =          FALSE

    Exchange Hybrid     =           TRUE
    MP2 Hybrid          =          FALSE

   => Exchange Functionals <=

    0.0800   Slater exchange
    0.7200         Becke 88

   => Exact (HF) Exchange <=

    0.2000               HF 

   => Correlation Functionals <=

    0.1900   Vosko, Wilk & Nusair (VWN5_RPA)
    0.8100   Lee, Yang & Parr

   => LibXC Density Thresholds  <==

    XC_HYB_GGA_XC_B3LYP:  1.00E-15 

   => Molecular Quadrature <=

    Radial Scheme          =       TREUTLER
    Pruning Scheme         =           NONE
    Nuclear Scheme         =       TREUTLER

    Blocking Scheme        =         OCTREE
    BS radius alpha        =              1
    Pruning alpha          =              1
    Radial Points          =             75
    Spherical Points       =            302
    Total Points           =          43350
    Total Blocks           =            404
    Max Points             =            254
    Max Functions          =             28
    Weights Tolerance      =       1.00E-15


  -Total Gradient:
     Atom            X                  Y                   Z
    ------   -----------------  -----------------  -----------------
       1        0.000000000000    -0.000000000000    -0.000112306837
       2        0.000000000000    -0.000000000000     0.000124588145


*** tstop() called on Joses-MacBook-Pro-2.local at Thu Jul 17 09:39:44 2025
Module time:
	user time   =       0.51 seconds =       0.01 minutes
	system time =       1.27 seconds =       0.02 minutes
	total time  =          0 seconds =       0.00 minutes
Total time:
	user time   =      43.66 seconds =       0.73 minutes
	system time =      44.91 seconds =       0.75 minutes
	total time  =          9 seconds =       0.15 minutes

    			-----------------------------------------

    			 OPTKING 3.0: for geometry optimizations 

    			     By R.A. King, Bethel University     

    			        with contributions from          

    			    A.V. Copan, J. Cayton, A. Heide      

    			-----------------------------------------

    
	                            ===> Fragment 1 <== 

	 Z (Atomic Numbers)          Masses                          Geom                  
	       4.000000             9.012183          0.00000000  0.00000000  1.60895072   
	       6.000000            12.000000          0.00000000  0.00000000 -1.20834654   

	 - Coordinate -           - BOHR/RAD -       - ANG/DEG -
	 R(1,2)           =         2.817297           1.490850


	        --- Internal Coordinate Step in ANG or DEG, aJ/ANG or AJ/DEG ---
	-------------------------------------------------------------------------------
	           Coordinate      Previous         Force          Change          New 
	           ----------      --------        ------          ------        ------
	               R(1,2)       1.49085        0.00098        0.00019       1.49104
	-------------------------------------------------------------------------------

	                                 ==> Convergence Check <==                                  
    
	Measures of convergence in internal coordinates in au.
    
	Criteria marked as inactive (o), active & met (*), and active & unmet ( ).

	----------------------------------------------------------------------------------------------
	   Step    Total Energy     Delta E     Max Force     RMS Force      Max Disp      RMS Disp   
	----------------------------------------------------------------------------------------------
	  Convergence Criteria     1.00e-06 *    3.00e-04 *             o    1.20e-03 *             o
	----------------------------------------------------------------------------------------------
	     8     -52.57067383   -9.56e-07 *    1.18e-04 *    1.18e-04 o    3.57e-04 *    3.57e-04 o  ~
	----------------------------------------------------------------------------------------------

Next Geometry in Ang 
	Fragment 1 (Ang)

	   Be   0.0000000000   0.0000000000   0.8515144630
	    C   0.0000000000   0.0000000000  -0.6395238578


    Final optimized geometry and variables:
    Molecular point group: c2v
    Full point group: C_inf_v

    Geometry (in Angstrom), charge = -1, multiplicity = 2:

    BE           0.000000000000     0.000000000000     0.851420055781
    C            0.000000000000     0.000000000000    -0.639429450659


    Psi4 stopped on: Thursday, 17 July 2025 09:39AM
    Psi4 wall time for execution: 0:00:08.97

*** Psi4 exiting successfully. Buy a developer a beer!
