
    -----------------------------------------------------------------------
          Psi4: An Open-Source Ab Initio Electronic Structure Package
                               Psi4 1.9.1 release

                         Git: Rev {} zzzzzzz 


    D. G. A. Smith, L. A. Burns, A. C. Simmonett, R. M. Parrish,
    M. C. Schieber, R. Galvelis, P. Kraus, H. Kruse, R. Di Remigio,
    A. Alenaizan, A. M. James, S. Lehtola, J. P. Misiewicz, M. Scheurer,
    R. A. Shaw, J. B. Schriber, Y. Xie, Z. L. Glick, D. A. Sirianni,
    J. S. O'Brien, J. M. Waldrop, A. Kumar, E. G. Hohenstein,
    B. P. Pritchard, B. R. Brooks, H. F. Schaefer III, A. Yu. Sokolov,
    K. Patkowski, A. E. DePrince III, U. Bozkaya, R. A. King,
    F. A. Evangelista, J. M. Turney, T. D. Crawford, C. D. Sherrill,
    J. Chem. Phys. 152(18) 184108 (2020). https://doi.org/10.1063/5.0006002

                            Additional Code Authors
    E. T. Seidl, C. L. Janssen, E. F. Valeev, M. L. Leininger,
    J. F. Gonthier, R. M. Richard, H. R. McAlexander, M. Saitow, X. Wang,
    P. Verma, M. H. Lechner, A. Jiang, S. Behnle, A. G. Heide,
    M. F. Herbst, and D. L. Poole

             Previous Authors, Complete List of Code Contributors,
                       and Citations for Specific Modules
    https://github.com/psi4/psi4/blob/master/codemeta.json
    https://github.com/psi4/psi4/graphs/contributors
    http://psicode.org/psi4manual/master/introduction.html#citing-psifour

    -----------------------------------------------------------------------


    Psi4 started on: Thursday, 17 July 2025 11:11AM

    Process ID: 72994
    Host:       Joses-MacBook-Pro-2.local
    PSIDATADIR: /Users/joseantoniorodriguesromero/anaconda3/share/psi4
    Memory:     500.0 MiB
    Threads:    1
    
  ==> Input File <==

--------------------------------------------------------------------------
molecule { 
-1 2
Na   0.00000        0.60000        0.00000
P   0.00000       -0.60000        0.00000
}

set { 
basis              cc-pvdz
reference          uks
maxiter            500
geom_maxiter       500
DAMPING_PERCENTAGE 1
guess              SAP
}

optimize('b3lyp')
--------------------------------------------------------------------------

Scratch directory: /tmp/
gradient() will perform analytic gradient computation.
   => Libint2 <=

    Primary   basis highest AM E, G, H:  6, 6, 3
    Auxiliary basis highest AM E, G, H:  7, 7, 4
    Onebody   basis highest AM E, G, H:  -, -, -
    Solid Harmonics ordering:            Gaussian

*** tstart() called on Joses-MacBook-Pro-2.local
*** at Thu Jul 17 11:11:51 2025

   => Loading Basis Set <=

    Name: CC-PVDZ
    Role: ORBITAL
    Keyword: BASIS
    atoms 1 entry NA         line   288 file /Users/joseantoniorodriguesromero/anaconda3/share/psi4/basis/cc-pvdz.gbs 
    atoms 2 entry P          line   538 file /Users/joseantoniorodriguesromero/anaconda3/share/psi4/basis/cc-pvdz.gbs 


         ---------------------------------------------------------
                                   SCF
               by Justin Turney, Rob Parrish, Andy Simmonett
                          and Daniel G. A. Smith
                              UKS Reference
                        1 Threads,    500 MiB Core
         ---------------------------------------------------------

  ==> Geometry <==

    Molecular point group: c2v
    Full point group: C_inf_v

    Geometry (in Angstrom), charge = -1, multiplicity = 2:

       Center              X                  Y                   Z               Mass       
    ------------   -----------------  -----------------  -----------------  -----------------
         NA           0.000000000000     0.000000000000     0.688770981368    22.989769282000
         P            0.000000000000     0.000000000000    -0.511229018632    30.973761998420

  Running in c2v symmetry.

  Rotational constants: A = ************  B =      0.88717  C =      0.88717 [cm^-1]
  Rotational constants: A = ************  B =  26596.62310  C =  26596.62310 [MHz]
  Nuclear repulsion =   72.761866467125003

  Charge       = -1
  Multiplicity = 2
  Electrons    = 27
  Nalpha       = 14
  Nbeta        = 13

  ==> Algorithm <==

  SCF Algorithm Type is DF.
  DIIS enabled.
  MOM disabled.
  Fractional occupation disabled.
  Guess Type is SAP.
  Energy threshold   = 1.00e-08
  Density threshold  = 1.00e-08
  Integral threshold = 1.00e-12

  ==> Primary Basis <==

  Basis Set: CC-PVDZ
    Blend: CC-PVDZ
    Number of shells: 16
    Number of basis functions: 36
    Number of Cartesian functions: 38
    Spherical Harmonics?: true
    Max angular momentum: 2

  ==> DFT Potential <==

   => LibXC <=

    Version 6.2.2
    S. Lehtola, C. Steigemann, M. J.T. Oliveira, and M. A.L. Marques.,  SoftwareX 7, 1–5 (2018) (10.1016/j.softx.2017.11.002)

   => Composite Functional: B3LYP <= 

    B3LYP Hyb-GGA Exchange-Correlation Functional

    P. J. Stephens, F. J. Devlin, C. F. Chabalowski, and M. J. Frisch.,  J. Phys. Chem. 98, 11623 (1994) (10.1021/j100096a001)

    Deriv               =              1
    GGA                 =           TRUE
    Meta                =          FALSE

    Exchange Hybrid     =           TRUE
    MP2 Hybrid          =          FALSE

   => Exchange Functionals <=

    0.0800   Slater exchange
    0.7200         Becke 88

   => Exact (HF) Exchange <=

    0.2000               HF 

   => Correlation Functionals <=

    0.1900   Vosko, Wilk & Nusair (VWN5_RPA)
    0.8100   Lee, Yang & Parr

   => LibXC Density Thresholds  <==

    XC_HYB_GGA_XC_B3LYP:  1.00E-15 

   => Molecular Quadrature <=

    Radial Scheme          =       TREUTLER
    Pruning Scheme         =           NONE
    Nuclear Scheme         =       TREUTLER

    Blocking Scheme        =         OCTREE
    BS radius alpha        =              1
    Pruning alpha          =              1
    Radial Points          =             75
    Spherical Points       =            302
    Total Points           =          43712
    Total Blocks           =            437
    Max Points             =            256
    Max Functions          =             36
    Weights Tolerance      =       1.00E-15

   => Loading Basis Set <=

    Name: (CC-PVDZ AUX)
    Role: JKFIT
    Keyword: DF_BASIS_SCF
    atoms 1 entry NA         line   498 file /Users/joseantoniorodriguesromero/anaconda3/share/psi4/basis/def2-universal-jkfit.gbs 
    atoms 2 entry P          line   519 file /Users/joseantoniorodriguesromero/anaconda3/share/psi4/basis/cc-pvdz-jkfit.gbs 

  ==> Integral Setup <==

  DFHelper Memory: AOs need 0.003 GiB; user supplied 0.322 GiB. 
  Using in-core AOs.

  ==> MemDFJK: Density-Fitted J/K Matrices <==

    J tasked:                   Yes
    K tasked:                   Yes
    wK tasked:                   No
    OpenMP threads:               1
    Memory [MiB]:               330
    Algorithm:                 Core
    Schwarz Cutoff:           1E-12
    Mask sparsity (%):       0.0000
    Fitting Condition:        1E-10

   => Auxiliary Basis Set <=

  Basis Set: (CC-PVDZ AUX)
    Blend: CC-PVDZ-JKFIT + DEF2-UNIVERSAL-JKFIT
    Number of shells: 70
    Number of basis functions: 224
    Number of Cartesian functions: 267
    Spherical Harmonics?: true
    Max angular momentum: 4

  Cached 100.0% of DFT collocation blocks in 0.044 [GiB].

  Minimum eigenvalue in the overlap matrix is 2.6819789373E-03.
  Reciprocal condition number of the overlap matrix is 8.8834017281E-04.
    Using symmetric orthogonalization.

  ==> Pre-Iterations <==

  SCF Guess: Superposition of Atomic Potentials (doi:10.1021/acs.jctc.8b01089).

  ==> SAP guess <==

   => Molecular Quadrature <=

    Radial Scheme          =       TREUTLER
    Pruning Scheme         =           NONE
    Nuclear Scheme         =       TREUTLER

    Blocking Scheme        =         OCTREE
    BS radius alpha        =              1
    Pruning alpha          =              1
    Radial Points          =             75
    Spherical Points       =            302
    Total Points           =          43712
    Total Blocks           =            437
    Max Points             =            256
    Max Functions          =             36
    Weights Tolerance      =       1.00E-15

   -------------------------------------------------------
    Irrep   Nso     Nmo     Nalpha   Nbeta   Ndocc  Nsocc
   -------------------------------------------------------
     A1        18      18       8       7       7       1
     A2         2       2       0       0       0       0
     B1         8       8       3       3       3       0
     B2         8       8       3       3       3       0
   -------------------------------------------------------
    Total      36      36      14      13      13       1
   -------------------------------------------------------

  ==> Iterations <==

                           Total Energy        Delta E     RMS |[F,P]|

    Occupation by irrep:
             A1    A2    B1    B2 
    DOCC [     8,    0,    2,    3 ]
    SOCC [     0,    0,    1,    0 ]
    NA   [     8,    0,    3,    3 ]
    NB   [     8,    0,    2,    3 ]

   @DF-UKS iter   1:  -502.50619388399713   -5.02506e+02   2.39355e-02 DIIS/ADIIS
    Occupation by irrep:
             A1    A2    B1    B2 
    DOCC [     7,    0,    3,    3 ]
    SOCC [     1,    0,    0,    0 ]
    NA   [     8,    0,    3,    3 ]
    NB   [     7,    0,    3,    3 ]

   @DF-UKS iter   2:  -500.60600745761093    1.90019e+00   4.40008e-02 DIIS/ADIIS/DAMP=1%
   @DF-UKS iter   3:  -502.62629065653039   -2.02028e+00   2.82357e-03 DIIS/ADIIS/DAMP=1%
   @DF-UKS iter   4:  -502.81723048032285   -1.90940e-01   3.42762e-03 DIIS/ADIIS/DAMP=1%
   @DF-UKS iter   5:  -502.80938622737119    7.84425e-03   1.40646e-03 DIIS/ADIIS/DAMP=1%
   @DF-UKS iter   6:  -502.81126022392527   -1.87400e-03   6.52871e-04 DIIS/ADIIS/DAMP=1%
   @DF-UKS iter   7:  -502.81291203186402   -1.65181e-03   4.42711e-05 DIIS/DAMP=1%
   @DF-UKS iter   8:  -502.81394871580517   -1.03668e-03   1.84038e-05 DIIS/DAMP=1%
   @DF-UKS iter   9:  -502.81398042018458   -3.17044e-05   3.20836e-06 DIIS/DAMP=1%
   @DF-UKS iter  10:  -502.81393063261459    4.97876e-05   6.18447e-07 DIIS/DAMP=1%
   @DF-UKS iter  11:  -502.81393361974449   -2.98713e-06   1.72210e-07 DIIS/DAMP=1%
   @DF-UKS iter  12:  -502.81393398700072   -3.67256e-07   2.86551e-08 DIIS/DAMP=1%
   @DF-UKS iter  13:  -502.81393444643146   -4.59431e-07   2.99783e-09 DIIS/DAMP=1%
   @DF-UKS iter  14:  -502.81393438286801    6.35634e-08   4.19336e-10 DIIS/DAMP=1%
   @DF-UKS iter  15:  -502.81393438946384   -6.59583e-09   8.71839e-11 DIIS/DAMP=1%
  Energy and wave function converged.


  ==> Post-Iterations <==

   Electrons on quadrature grid:
      Nalpha   =   13.9999938557 ; deviation = -6.144e-06
      Nbeta    =   12.9999938403 ; deviation = -6.160e-06
      Ntotal   =   26.9999876960 ; deviation = -1.230e-05 

   @Spin Contamination Metric:   1.698019920E-03
   @S^2 Expected:                7.500000000E-01
   @S^2 Observed:                7.516980199E-01
   @S   Expected:                5.000000000E-01
   @S   Observed:                5.000000000E-01

    Orbital Energies [Eh]
    ---------------------

    Alpha Occupied:                                                       

       1A1   -76.924417     2A1   -38.572107     3A1    -6.433756  
       4A1    -4.617462     1B2    -4.572228     1B1    -4.572228  
       5A1    -2.394812     6A1    -1.328159     2B1    -1.253108  
       2B2    -1.253108     7A1    -0.285295     3B2    -0.024975  
       3B1    -0.024975     8A1     0.027135  

    Alpha Virtual:                                                        

       4B1     0.125427     4B2     0.125427     9A1     0.131318  
      10A1     0.134974    11A1     0.209395     5B2     0.234472  
       5B1     0.234472    12A1     0.297845     1A2     0.297845  
      13A1     0.368801     6B1     0.396565     6B2     0.396565  
      14A1     0.442561     7B2     0.619889     7B1     0.619889  
      15A1     0.742164     2A2     0.742167    16A1     0.753707  
       8B2     0.828760     8B1     0.828760    17A1     0.977281  
      18A1     1.112117  

    Beta Occupied:                                                        

       1A1   -76.924081     2A1   -38.570646     3A1    -6.433445  
       4A1    -4.615744     1B1    -4.572245     1B2    -4.572245  
       5A1    -2.392630     6A1    -1.326046     2B1    -1.251230  
       2B2    -1.251230     7A1    -0.277687     3B1    -0.023174  
       3B2    -0.023174  

    Beta Virtual:                                                         

       8A1     0.084853     4B1     0.128513     4B2     0.128513  
       9A1     0.132503    10A1     0.152349    11A1     0.242101  
       5B1     0.253913     5B2     0.253913    12A1     0.306341  
       1A2     0.306341    13A1     0.384693     6B1     0.411704  
       6B2     0.411704    14A1     0.452018     7B1     0.623595  
       7B2     0.623595    15A1     0.743365     2A2     0.743367  
      16A1     0.764732     8B1     0.834290     8B2     0.834290  
      17A1     0.982228    18A1     1.119433  

    Final Occupation by Irrep:
             A1    A2    B1    B2 
    DOCC [     7,    0,    3,    3 ]
    SOCC [     1,    0,    0,    0 ]
    NA   [     8,    0,    3,    3 ]
    NB   [     7,    0,    3,    3 ]

  @DF-UKS Final Energy:  -502.81393438946384

   => Energetics <=

    Nuclear Repulsion Energy =             72.7618664671250031
    One-Electron Energy =                -844.8020142300451880
    Two-Electron Energy =                 299.9293380053778719
    DFT Exchange-Correlation Energy =     -30.7031246319214972
    Empirical Dispersion Energy =           0.0000000000000000
    VV10 Nonlocal Energy =                  0.0000000000000000
    Total Energy =                       -502.8139343894638387

  UHF NO Occupations:
  HONO-2 :    3 B1 1.9997352
  HONO-1 :    7 A1 1.9996809
  HONO-0 :    8 A1 1.0000000
  LUNO+0 :    9 A1 0.0003191
  LUNO+1 :    4 B1 0.0002648
  LUNO+2 :    4 B2 0.0002648
  LUNO+3 :   10 A1 0.0000002


Computation Completed


Properties will be evaluated at   0.000000,   0.000000,   0.000000 [a0]

Properties computed using the SCF density matrix


 Multipole Moments:

 ------------------------------------------------------------------------------------
     Multipole            Electronic (a.u.)      Nuclear  (a.u.)        Total (a.u.)
 ------------------------------------------------------------------------------------

 L = 1.  Multiply by 2.5417464519 to convert [e a0] to [Debye]
 Dipole X            :          0.0000000            0.0000000            0.0000000
 Dipole Y            :          0.0000000            0.0000000            0.0000000
 Dipole Z            :         -0.6631276           -0.1737688           -0.8368964
 Magnitude           :                                                    0.8368964

 ------------------------------------------------------------------------------------

*** tstop() called on Joses-MacBook-Pro-2.local at Thu Jul 17 11:11:53 2025
Module time:
	user time   =      16.54 seconds =       0.28 minutes
	system time =       1.52 seconds =       0.03 minutes
	total time  =          2 seconds =       0.03 minutes
Total time:
	user time   =      16.54 seconds =       0.28 minutes
	system time =       1.52 seconds =       0.03 minutes
	total time  =          2 seconds =       0.03 minutes

*** tstart() called on Joses-MacBook-Pro-2.local
*** at Thu Jul 17 11:11:53 2025


         ------------------------------------------------------------
                                   SCF GRAD                          
                          Rob Parrish, Justin Turney,                
                       Andy Simmonett, and Alex Sokolov              
         ------------------------------------------------------------

  ==> Geometry <==

    Molecular point group: c2v
    Full point group: C_inf_v

    Geometry (in Angstrom), charge = -1, multiplicity = 2:

       Center              X                  Y                   Z               Mass       
    ------------   -----------------  -----------------  -----------------  -----------------
         NA           0.000000000000     0.000000000000     0.688770981368    22.989769282000
         P            0.000000000000     0.000000000000    -0.511229018632    30.973761998420

  Nuclear repulsion =   72.761866467125003

  ==> Basis Set <==

  Basis Set: CC-PVDZ
    Blend: CC-PVDZ
    Number of shells: 16
    Number of basis functions: 36
    Number of Cartesian functions: 38
    Spherical Harmonics?: true
    Max angular momentum: 2

  ==> DFJKGrad: Density-Fitted SCF Gradients <==

    Gradient:                    1
    J tasked:                  Yes
    K tasked:                  Yes
    wK tasked:                  No
    OpenMP threads:              1
    Integrals threads:           1
    Memory [MiB]:              375
    Schwarz Cutoff:          1E-12
    Fitting Condition:       1E-10

   => Auxiliary Basis Set <=

  Basis Set: (CC-PVDZ AUX)
    Blend: CC-PVDZ-JKFIT + DEF2-UNIVERSAL-JKFIT
    Number of shells: 70
    Number of basis functions: 224
    Number of Cartesian functions: 267
    Spherical Harmonics?: true
    Max angular momentum: 4

  ==> DFT Potential <==

   => LibXC <=

    Version 6.2.2
    S. Lehtola, C. Steigemann, M. J.T. Oliveira, and M. A.L. Marques.,  SoftwareX 7, 1–5 (2018) (10.1016/j.softx.2017.11.002)

   => Composite Functional: B3LYP <= 

    B3LYP Hyb-GGA Exchange-Correlation Functional

    P. J. Stephens, F. J. Devlin, C. F. Chabalowski, and M. J. Frisch.,  J. Phys. Chem. 98, 11623 (1994) (10.1021/j100096a001)

    Deriv               =              1
    GGA                 =           TRUE
    Meta                =          FALSE

    Exchange Hybrid     =           TRUE
    MP2 Hybrid          =          FALSE

   => Exchange Functionals <=

    0.0800   Slater exchange
    0.7200         Becke 88

   => Exact (HF) Exchange <=

    0.2000               HF 

   => Correlation Functionals <=

    0.1900   Vosko, Wilk & Nusair (VWN5_RPA)
    0.8100   Lee, Yang & Parr

   => LibXC Density Thresholds  <==

    XC_HYB_GGA_XC_B3LYP:  1.00E-15 

   => Molecular Quadrature <=

    Radial Scheme          =       TREUTLER
    Pruning Scheme         =           NONE
    Nuclear Scheme         =       TREUTLER

    Blocking Scheme        =         OCTREE
    BS radius alpha        =              1
    Pruning alpha          =              1
    Radial Points          =             75
    Spherical Points       =            302
    Total Points           =          43712
    Total Blocks           =            437
    Max Points             =            256
    Max Functions          =             36
    Weights Tolerance      =       1.00E-15


  -Total Gradient:
     Atom            X                  Y                   Z
    ------   -----------------  -----------------  -----------------
       1        0.000000000000     0.000000000000    -1.462076071931
       2        0.000000000000     0.000000000000     1.462109671160


*** tstop() called on Joses-MacBook-Pro-2.local at Thu Jul 17 11:11:53 2025
Module time:
	user time   =       2.93 seconds =       0.05 minutes
	system time =       1.76 seconds =       0.03 minutes
	total time  =          0 seconds =       0.00 minutes
Total time:
	user time   =      19.48 seconds =       0.32 minutes
	system time =       3.28 seconds =       0.05 minutes
	total time  =          2 seconds =       0.03 minutes

    			-----------------------------------------

    			 OPTKING 3.0: for geometry optimizations 

    			     By R.A. King, Bethel University     

    			        with contributions from          

    			    A.V. Copan, J. Cayton, A. Heide      

    			-----------------------------------------

    
	                            ===> Fragment 1 <== 

	 Z (Atomic Numbers)          Masses                          Geom                  
	      11.000000            22.989769          0.00000000  0.00000000  1.30158852   
	      15.000000            30.973762          0.00000000  0.00000000 -0.96608283   

	 - Coordinate -           - BOHR/RAD -       - ANG/DEG -
	 R(1,2)           =         2.267671           1.200000


	        --- Internal Coordinate Step in ANG or DEG, aJ/ANG or AJ/DEG ---
	-------------------------------------------------------------------------------
	           Coordinate      Previous         Force          Change          New 
	           ----------      --------        ------          ------        ------
	               R(1,2)       1.20000       12.04578        0.00355       1.20355
	-------------------------------------------------------------------------------

	                                 ==> Convergence Check <==                                  
    
	Measures of convergence in internal coordinates in au.
    
	Criteria marked as inactive (o), active & met (*), and active & unmet ( ).

	----------------------------------------------------------------------------------------------
	   Step    Total Energy     Delta E     Max Force     RMS Force      Max Disp      RMS Disp   
	----------------------------------------------------------------------------------------------
	  Convergence Criteria     1.00e-06 *    3.00e-04 *             o    1.20e-03 *             o
	----------------------------------------------------------------------------------------------
	     1    -502.81393439   -5.03e+02      1.46e+00      1.46e+00 o    6.71e-03      6.71e-03 o  ~
	----------------------------------------------------------------------------------------------

Next Geometry in Ang 
	Fragment 1 (Ang)

	   Na   0.0000000000   0.0000000000   0.6905469067
	    P   0.0000000000   0.0000000000  -0.5130049440


    Structure for next step:
    Molecular point group: c2v
    Full point group: C_inf_v

    Geometry (in Angstrom), charge = -1, multiplicity = 2:

    NA           0.000000000000     0.000000000000     0.690809657767
    P            0.000000000000     0.000000000000    -0.512742192913


Scratch directory: /tmp/
gradient() will perform analytic gradient computation.
   => Libint2 <=

    Primary   basis highest AM E, G, H:  6, 6, 3
    Auxiliary basis highest AM E, G, H:  7, 7, 4
    Onebody   basis highest AM E, G, H:  -, -, -
    Solid Harmonics ordering:            Gaussian

*** tstart() called on Joses-MacBook-Pro-2.local
*** at Thu Jul 17 11:11:54 2025

   => Loading Basis Set <=

    Name: CC-PVDZ
    Role: ORBITAL
    Keyword: BASIS
    atoms 1 entry NA         line   288 file /Users/joseantoniorodriguesromero/anaconda3/share/psi4/basis/cc-pvdz.gbs 
    atoms 2 entry P          line   538 file /Users/joseantoniorodriguesromero/anaconda3/share/psi4/basis/cc-pvdz.gbs 


         ---------------------------------------------------------
                                   SCF
               by Justin Turney, Rob Parrish, Andy Simmonett
                          and Daniel G. A. Smith
                              UKS Reference
                        1 Threads,    500 MiB Core
         ---------------------------------------------------------

  ==> Geometry <==

    Molecular point group: c2v
    Full point group: C_inf_v

    Geometry (in Angstrom), charge = -1, multiplicity = 2:

       Center              X                  Y                   Z               Mass       
    ------------   -----------------  -----------------  -----------------  -----------------
         NA           0.000000000000     0.000000000000     0.690809657767    22.989769282000
         P            0.000000000000     0.000000000000    -0.512742192913    30.973761998420

  Running in c2v symmetry.

  Rotational constants: A = ************  B =      0.88194  C =      0.88194 [cm^-1]
  Rotational constants: A = ************  B =  26439.87399  C =  26439.87399 [MHz]
  Nuclear repulsion =   72.547135971928455

  Charge       = -1
  Multiplicity = 2
  Electrons    = 27
  Nalpha       = 14
  Nbeta        = 13

  ==> Algorithm <==

  SCF Algorithm Type is DF.
  DIIS enabled.
  MOM disabled.
  Fractional occupation disabled.
  Guess Type is READ.
  Energy threshold   = 1.00e-08
  Density threshold  = 1.00e-08
  Integral threshold = 1.00e-12

  ==> Primary Basis <==

  Basis Set: CC-PVDZ
    Blend: CC-PVDZ
    Number of shells: 16
    Number of basis functions: 36
    Number of Cartesian functions: 38
    Spherical Harmonics?: true
    Max angular momentum: 2

  ==> DFT Potential <==

   => LibXC <=

    Version 6.2.2
    S. Lehtola, C. Steigemann, M. J.T. Oliveira, and M. A.L. Marques.,  SoftwareX 7, 1–5 (2018) (10.1016/j.softx.2017.11.002)

   => Composite Functional: B3LYP <= 

    B3LYP Hyb-GGA Exchange-Correlation Functional

    P. J. Stephens, F. J. Devlin, C. F. Chabalowski, and M. J. Frisch.,  J. Phys. Chem. 98, 11623 (1994) (10.1021/j100096a001)

    Deriv               =              1
    GGA                 =           TRUE
    Meta                =          FALSE

    Exchange Hybrid     =           TRUE
    MP2 Hybrid          =          FALSE

   => Exchange Functionals <=

    0.0800   Slater exchange
    0.7200         Becke 88

   => Exact (HF) Exchange <=

    0.2000               HF 

   => Correlation Functionals <=

    0.1900   Vosko, Wilk & Nusair (VWN5_RPA)
    0.8100   Lee, Yang & Parr

   => LibXC Density Thresholds  <==

    XC_HYB_GGA_XC_B3LYP:  1.00E-15 

   => Molecular Quadrature <=

    Radial Scheme          =       TREUTLER
    Pruning Scheme         =           NONE
    Nuclear Scheme         =       TREUTLER

    Blocking Scheme        =         OCTREE
    BS radius alpha        =              1
    Pruning alpha          =              1
    Radial Points          =             75
    Spherical Points       =            302
    Total Points           =          43715
    Total Blocks           =            437
    Max Points             =            256
    Max Functions          =             36
    Weights Tolerance      =       1.00E-15

   => Loading Basis Set <=

    Name: (CC-PVDZ AUX)
    Role: JKFIT
    Keyword: DF_BASIS_SCF
    atoms 1 entry NA         line   498 file /Users/joseantoniorodriguesromero/anaconda3/share/psi4/basis/def2-universal-jkfit.gbs 
    atoms 2 entry P          line   519 file /Users/joseantoniorodriguesromero/anaconda3/share/psi4/basis/cc-pvdz-jkfit.gbs 

   => Loading Basis Set <=

    Name: CC-PVDZ
    Role: ORBITAL
    Keyword: BASIS
    atoms 1 entry NA         line   288 file /Users/joseantoniorodriguesromero/anaconda3/share/psi4/basis/cc-pvdz.gbs 
    atoms 2 entry P          line   538 file /Users/joseantoniorodriguesromero/anaconda3/share/psi4/basis/cc-pvdz.gbs 

  Reading orbitals from file /tmp/doublet_NaP.default.72994.180.npy, no projection.

  ==> Integral Setup <==

  DFHelper Memory: AOs need 0.003 GiB; user supplied 0.322 GiB. 
  Using in-core AOs.

  ==> MemDFJK: Density-Fitted J/K Matrices <==

    J tasked:                   Yes
    K tasked:                   Yes
    wK tasked:                   No
    OpenMP threads:               1
    Memory [MiB]:               330
    Algorithm:                 Core
    Schwarz Cutoff:           1E-12
    Mask sparsity (%):       0.0000
    Fitting Condition:        1E-10

   => Auxiliary Basis Set <=

  Basis Set: (CC-PVDZ AUX)
    Blend: CC-PVDZ-JKFIT + DEF2-UNIVERSAL-JKFIT
    Number of shells: 70
    Number of basis functions: 224
    Number of Cartesian functions: 267
    Spherical Harmonics?: true
    Max angular momentum: 4

  Cached 100.0% of DFT collocation blocks in 0.044 [GiB].

  Minimum eigenvalue in the overlap matrix is 2.6843112753E-03.
  Reciprocal condition number of the overlap matrix is 8.8907474147E-04.
    Using symmetric orthogonalization.

  ==> Pre-Iterations <==

  SCF Guess: Orbitals guess was supplied from a previous computation.

   -------------------------------------------------------
    Irrep   Nso     Nmo     Nalpha   Nbeta   Ndocc  Nsocc
   -------------------------------------------------------
     A1        18      18       8       7       7       1
     A2         2       2       0       0       0       0
     B1         8       8       3       3       3       0
     B2         8       8       3       3       3       0
   -------------------------------------------------------
    Total      36      36      14      13      13       1
   -------------------------------------------------------

  ==> Iterations <==

                           Total Energy        Delta E     RMS |[F,P]|

   @DF-UKS iter   0:  -502.82357777333613   -5.02824e+02   8.61702e-04 
   @DF-UKS iter   1:  -502.82367278591789   -9.50126e-05   1.04475e-04 DIIS/ADIIS
   @DF-UKS iter   2:  -502.82366812360976    4.66231e-06   1.42167e-04 DIIS/ADIIS/DAMP=1%
   @DF-UKS iter   3:  -502.82399881021757   -3.30687e-04   1.06585e-05 DIIS/DAMP=1%
   @DF-UKS iter   4:  -502.82367799394586    3.20816e-04   2.19520e-06 DIIS/DAMP=1%
   @DF-UKS iter   5:  -502.82367779103231    2.02914e-07   4.44564e-07 DIIS/DAMP=1%
   @DF-UKS iter   6:  -502.82367872177849   -9.30746e-07   1.05658e-07 DIIS/DAMP=1%
   @DF-UKS iter   7:  -502.82367778782168    9.33957e-07   1.37982e-08 DIIS/DAMP=1%
   @DF-UKS iter   8:  -502.82367804773747   -2.59916e-07   2.47748e-09 DIIS/DAMP=1%
   @DF-UKS iter   9:  -502.82367802356828    2.41692e-08   6.78836e-10 DIIS/DAMP=1%
   @DF-UKS iter  10:  -502.82367803034180   -6.77352e-09   1.37170e-10 DIIS/DAMP=1%
  Energy and wave function converged.


  ==> Post-Iterations <==

   Electrons on quadrature grid:
      Nalpha   =   13.9999939073 ; deviation = -6.093e-06
      Nbeta    =   12.9999938922 ; deviation = -6.108e-06
      Ntotal   =   26.9999877995 ; deviation = -1.220e-05 

   @Spin Contamination Metric:   1.699314242E-03
   @S^2 Expected:                7.500000000E-01
   @S^2 Observed:                7.516993142E-01
   @S   Expected:                5.000000000E-01
   @S   Observed:                5.000000000E-01

    Orbital Energies [Eh]
    ---------------------

    Alpha Occupied:                                                       

       1A1   -76.923507     2A1   -38.570315     3A1    -6.432263  
       4A1    -4.615848     1B2    -4.570989     1B1    -4.570989  
       5A1    -2.391685     6A1    -1.326032     2B1    -1.250711  
       2B2    -1.250711     7A1    -0.285375     3B2    -0.024837  
       3B1    -0.024837     8A1     0.027092  

    Alpha Virtual:                                                        

       4B2     0.125435     4B1     0.125435     9A1     0.131221  
      10A1     0.134877    11A1     0.209214     5B2     0.234448  
       5B1     0.234448    12A1     0.297996     1A2     0.297996  
      13A1     0.368224     6B2     0.396663     6B1     0.396663  
      14A1     0.443078     7B1     0.619419     7B2     0.619419  
      15A1     0.742433     2A2     0.742436    16A1     0.752795  
       8B2     0.828868     8B1     0.828868    17A1     0.977735  
      18A1     1.108002  

    Beta Occupied:                                                        

       1A1   -76.923168     2A1   -38.568851     3A1    -6.431948  
       4A1    -4.614118     1B2    -4.571003     1B1    -4.571003  
       5A1    -2.389488     6A1    -1.323933     2B1    -1.248828  
       2B2    -1.248828     7A1    -0.277738     3B2    -0.023027  
       3B1    -0.023027  

    Beta Virtual:                                                         

       8A1     0.084788     4B2     0.128517     4B1     0.128517  
       9A1     0.132490    10A1     0.152212    11A1     0.241863  
       5B2     0.253869     5B1     0.253869    12A1     0.306502  
       1A2     0.306502    13A1     0.384187     6B2     0.411855  
       6B1     0.411855    14A1     0.452515     7B1     0.623127  
       7B2     0.623127    15A1     0.743635     2A2     0.743637  
      16A1     0.763817     8B2     0.834416     8B1     0.834416  
      17A1     0.982627    18A1     1.115447  

    Final Occupation by Irrep:
             A1    A2    B1    B2 
    DOCC [     7,    0,    3,    3 ]
    SOCC [     1,    0,    0,    0 ]
    NA   [     8,    0,    3,    3 ]
    NB   [     7,    0,    3,    3 ]

  @DF-UKS Final Energy:  -502.82367803034180

   => Energetics <=

    Nuclear Repulsion Energy =             72.5471359719284550
    One-Electron Energy =                -844.4306925140990643
    Two-Electron Energy =                 299.7607195633795527
    DFT Exchange-Correlation Energy =     -30.7008410515507713
    Empirical Dispersion Energy =           0.0000000000000000
    VV10 Nonlocal Energy =                  0.0000000000000000
    Total Energy =                       -502.8236780303417959

  UHF NO Occupations:
  HONO-2 :    3 B2 1.9997359
  HONO-1 :    7 A1 1.9996787
  HONO-0 :    8 A1 1.0000000
  LUNO+0 :    9 A1 0.0003213
  LUNO+1 :    4 B1 0.0002641
  LUNO+2 :    4 B2 0.0002641
  LUNO+3 :   10 A1 0.0000002


Computation Completed


Properties will be evaluated at   0.000000,   0.000000,   0.000000 [a0]

Properties computed using the SCF density matrix


 Multipole Moments:

 ------------------------------------------------------------------------------------
     Multipole            Electronic (a.u.)      Nuclear  (a.u.)        Total (a.u.)
 ------------------------------------------------------------------------------------

 L = 1.  Multiply by 2.5417464519 to convert [e a0] to [Debye]
 Dipole X            :          0.0000000            0.0000000            0.0000000
 Dipole Y            :          0.0000000            0.0000000            0.0000000
 Dipole Z            :         -0.6600836           -0.1742831           -0.8343668
 Magnitude           :                                                    0.8343668

 ------------------------------------------------------------------------------------

*** tstop() called on Joses-MacBook-Pro-2.local at Thu Jul 17 11:11:55 2025
Module time:
	user time   =      10.33 seconds =       0.17 minutes
	system time =       2.49 seconds =       0.04 minutes
	total time  =          1 seconds =       0.02 minutes
Total time:
	user time   =      30.01 seconds =       0.50 minutes
	system time =       5.86 seconds =       0.10 minutes
	total time  =          4 seconds =       0.07 minutes

*** tstart() called on Joses-MacBook-Pro-2.local
*** at Thu Jul 17 11:11:55 2025


         ------------------------------------------------------------
                                   SCF GRAD                          
                          Rob Parrish, Justin Turney,                
                       Andy Simmonett, and Alex Sokolov              
         ------------------------------------------------------------

  ==> Geometry <==

    Molecular point group: c2v
    Full point group: C_inf_v

    Geometry (in Angstrom), charge = -1, multiplicity = 2:

       Center              X                  Y                   Z               Mass       
    ------------   -----------------  -----------------  -----------------  -----------------
         NA           0.000000000000     0.000000000000     0.690809657767    22.989769282000
         P            0.000000000000     0.000000000000    -0.512742192913    30.973761998420

  Nuclear repulsion =   72.547135971928455

  ==> Basis Set <==

  Basis Set: CC-PVDZ
    Blend: CC-PVDZ
    Number of shells: 16
    Number of basis functions: 36
    Number of Cartesian functions: 38
    Spherical Harmonics?: true
    Max angular momentum: 2

  ==> DFJKGrad: Density-Fitted SCF Gradients <==

    Gradient:                    1
    J tasked:                  Yes
    K tasked:                  Yes
    wK tasked:                  No
    OpenMP threads:              1
    Integrals threads:           1
    Memory [MiB]:              375
    Schwarz Cutoff:          1E-12
    Fitting Condition:       1E-10

   => Auxiliary Basis Set <=

  Basis Set: (CC-PVDZ AUX)
    Blend: CC-PVDZ-JKFIT + DEF2-UNIVERSAL-JKFIT
    Number of shells: 70
    Number of basis functions: 224
    Number of Cartesian functions: 267
    Spherical Harmonics?: true
    Max angular momentum: 4

  ==> DFT Potential <==

   => LibXC <=

    Version 6.2.2
    S. Lehtola, C. Steigemann, M. J.T. Oliveira, and M. A.L. Marques.,  SoftwareX 7, 1–5 (2018) (10.1016/j.softx.2017.11.002)

   => Composite Functional: B3LYP <= 

    B3LYP Hyb-GGA Exchange-Correlation Functional

    P. J. Stephens, F. J. Devlin, C. F. Chabalowski, and M. J. Frisch.,  J. Phys. Chem. 98, 11623 (1994) (10.1021/j100096a001)

    Deriv               =              1
    GGA                 =           TRUE
    Meta                =          FALSE

    Exchange Hybrid     =           TRUE
    MP2 Hybrid          =          FALSE

   => Exchange Functionals <=

    0.0800   Slater exchange
    0.7200         Becke 88

   => Exact (HF) Exchange <=

    0.2000               HF 

   => Correlation Functionals <=

    0.1900   Vosko, Wilk & Nusair (VWN5_RPA)
    0.8100   Lee, Yang & Parr

   => LibXC Density Thresholds  <==

    XC_HYB_GGA_XC_B3LYP:  1.00E-15 

   => Molecular Quadrature <=

    Radial Scheme          =       TREUTLER
    Pruning Scheme         =           NONE
    Nuclear Scheme         =       TREUTLER

    Blocking Scheme        =         OCTREE
    BS radius alpha        =              1
    Pruning alpha          =              1
    Radial Points          =             75
    Spherical Points       =            302
    Total Points           =          43715
    Total Blocks           =            437
    Max Points             =            256
    Max Functions          =             36
    Weights Tolerance      =       1.00E-15


  -Total Gradient:
     Atom            X                  Y                   Z
    ------   -----------------  -----------------  -----------------
       1        0.000000000000     0.000000000000    -1.441399732305
       2        0.000000000000     0.000000000000     1.441454501818


*** tstop() called on Joses-MacBook-Pro-2.local at Thu Jul 17 11:11:55 2025
Module time:
	user time   =       2.38 seconds =       0.04 minutes
	system time =       1.70 seconds =       0.03 minutes
	total time  =          0 seconds =       0.00 minutes
Total time:
	user time   =      32.40 seconds =       0.54 minutes
	system time =       7.57 seconds =       0.13 minutes
	total time  =          4 seconds =       0.07 minutes

    			-----------------------------------------

    			 OPTKING 3.0: for geometry optimizations 

    			     By R.A. King, Bethel University     

    			        with contributions from          

    			    A.V. Copan, J. Cayton, A. Heide      

    			-----------------------------------------

    
	                            ===> Fragment 1 <== 

	 Z (Atomic Numbers)          Masses                          Geom                  
	      11.000000            22.989769          0.00000000  0.00000000  1.30544106   
	      15.000000            30.973762          0.00000000  0.00000000 -0.96894232   

	 - Coordinate -           - BOHR/RAD -       - ANG/DEG -
	 R(1,2)           =         2.274383           1.203552


	        --- Internal Coordinate Step in ANG or DEG, aJ/ANG or AJ/DEG ---
	-------------------------------------------------------------------------------
	           Coordinate      Previous         Force          Change          New 
	           ----------      --------        ------          ------        ------
	               R(1,2)       1.20355       11.87552        0.00700       1.21055
	-------------------------------------------------------------------------------

	                                 ==> Convergence Check <==                                  
    
	Measures of convergence in internal coordinates in au.
    
	Criteria marked as inactive (o), active & met (*), and active & unmet ( ).

	----------------------------------------------------------------------------------------------
	   Step    Total Energy     Delta E     Max Force     RMS Force      Max Disp      RMS Disp   
	----------------------------------------------------------------------------------------------
	  Convergence Criteria     1.00e-06 *    3.00e-04 *             o    1.20e-03 *             o
	----------------------------------------------------------------------------------------------
	     2    -502.82367803   -9.74e-03      1.44e+00      1.44e+00 o    1.32e-02      1.32e-02 o  ~
	----------------------------------------------------------------------------------------------

Next Geometry in Ang 
	Fragment 1 (Ang)

	   Na   0.0000000000   0.0000000000   0.6943108499
	    P   0.0000000000   0.0000000000  -0.5162433850


    Structure for next step:
    Molecular point group: c2v
    Full point group: C_inf_v

    Geometry (in Angstrom), charge = -1, multiplicity = 2:

    NA           0.000000000000     0.000000000000     0.694828856982
    P            0.000000000000     0.000000000000    -0.515725377929


Scratch directory: /tmp/
gradient() will perform analytic gradient computation.
   => Libint2 <=

    Primary   basis highest AM E, G, H:  6, 6, 3
    Auxiliary basis highest AM E, G, H:  7, 7, 4
    Onebody   basis highest AM E, G, H:  -, -, -
    Solid Harmonics ordering:            Gaussian

*** tstart() called on Joses-MacBook-Pro-2.local
*** at Thu Jul 17 11:11:55 2025

   => Loading Basis Set <=

    Name: CC-PVDZ
    Role: ORBITAL
    Keyword: BASIS
    atoms 1 entry NA         line   288 file /Users/joseantoniorodriguesromero/anaconda3/share/psi4/basis/cc-pvdz.gbs 
    atoms 2 entry P          line   538 file /Users/joseantoniorodriguesromero/anaconda3/share/psi4/basis/cc-pvdz.gbs 


         ---------------------------------------------------------
                                   SCF
               by Justin Turney, Rob Parrish, Andy Simmonett
                          and Daniel G. A. Smith
                              UKS Reference
                        1 Threads,    500 MiB Core
         ---------------------------------------------------------

  ==> Geometry <==

    Molecular point group: c2v
    Full point group: C_inf_v

    Geometry (in Angstrom), charge = -1, multiplicity = 2:

       Center              X                  Y                   Z               Mass       
    ------------   -----------------  -----------------  -----------------  -----------------
         NA           0.000000000000     0.000000000000     0.694828856982    22.989769282000
         P            0.000000000000     0.000000000000    -0.515725377929    30.973761998420

  Running in c2v symmetry.

  Rotational constants: A = ************  B =      0.87177  C =      0.87177 [cm^-1]
  Rotational constants: A = ************  B =  26134.87867  C =  26134.87867 [MHz]
  Nuclear repulsion =   72.127491063603671

  Charge       = -1
  Multiplicity = 2
  Electrons    = 27
  Nalpha       = 14
  Nbeta        = 13

  ==> Algorithm <==

  SCF Algorithm Type is DF.
  DIIS enabled.
  MOM disabled.
  Fractional occupation disabled.
  Guess Type is READ.
  Energy threshold   = 1.00e-08
  Density threshold  = 1.00e-08
  Integral threshold = 1.00e-12

  ==> Primary Basis <==

  Basis Set: CC-PVDZ
    Blend: CC-PVDZ
    Number of shells: 16
    Number of basis functions: 36
    Number of Cartesian functions: 38
    Spherical Harmonics?: true
    Max angular momentum: 2

  ==> DFT Potential <==

   => LibXC <=

    Version 6.2.2
    S. Lehtola, C. Steigemann, M. J.T. Oliveira, and M. A.L. Marques.,  SoftwareX 7, 1–5 (2018) (10.1016/j.softx.2017.11.002)

   => Composite Functional: B3LYP <= 

    B3LYP Hyb-GGA Exchange-Correlation Functional

    P. J. Stephens, F. J. Devlin, C. F. Chabalowski, and M. J. Frisch.,  J. Phys. Chem. 98, 11623 (1994) (10.1021/j100096a001)

    Deriv               =              1
    GGA                 =           TRUE
    Meta                =          FALSE

    Exchange Hybrid     =           TRUE
    MP2 Hybrid          =          FALSE

   => Exchange Functionals <=

    0.0800   Slater exchange
    0.7200         Becke 88

   => Exact (HF) Exchange <=

    0.2000               HF 

   => Correlation Functionals <=

    0.1900   Vosko, Wilk & Nusair (VWN5_RPA)
    0.8100   Lee, Yang & Parr

   => LibXC Density Thresholds  <==

    XC_HYB_GGA_XC_B3LYP:  1.00E-15 

   => Molecular Quadrature <=

    Radial Scheme          =       TREUTLER
    Pruning Scheme         =           NONE
    Nuclear Scheme         =       TREUTLER

    Blocking Scheme        =         OCTREE
    BS radius alpha        =              1
    Pruning alpha          =              1
    Radial Points          =             75
    Spherical Points       =            302
    Total Points           =          43715
    Total Blocks           =            436
    Max Points             =            256
    Max Functions          =             36
    Weights Tolerance      =       1.00E-15

   => Loading Basis Set <=

    Name: (CC-PVDZ AUX)
    Role: JKFIT
    Keyword: DF_BASIS_SCF
    atoms 1 entry NA         line   498 file /Users/joseantoniorodriguesromero/anaconda3/share/psi4/basis/def2-universal-jkfit.gbs 
    atoms 2 entry P          line   519 file /Users/joseantoniorodriguesromero/anaconda3/share/psi4/basis/cc-pvdz-jkfit.gbs 

   => Loading Basis Set <=

    Name: CC-PVDZ
    Role: ORBITAL
    Keyword: BASIS
    atoms 1 entry NA         line   288 file /Users/joseantoniorodriguesromero/anaconda3/share/psi4/basis/cc-pvdz.gbs 
    atoms 2 entry P          line   538 file /Users/joseantoniorodriguesromero/anaconda3/share/psi4/basis/cc-pvdz.gbs 

  Reading orbitals from file /tmp/doublet_NaP.default.72994.180.npy, no projection.

  ==> Integral Setup <==

  DFHelper Memory: AOs need 0.003 GiB; user supplied 0.322 GiB. 
  Using in-core AOs.

  ==> MemDFJK: Density-Fitted J/K Matrices <==

    J tasked:                   Yes
    K tasked:                   Yes
    wK tasked:                   No
    OpenMP threads:               1
    Memory [MiB]:               330
    Algorithm:                 Core
    Schwarz Cutoff:           1E-12
    Mask sparsity (%):       0.0000
    Fitting Condition:        1E-10

   => Auxiliary Basis Set <=

  Basis Set: (CC-PVDZ AUX)
    Blend: CC-PVDZ-JKFIT + DEF2-UNIVERSAL-JKFIT
    Number of shells: 70
    Number of basis functions: 224
    Number of Cartesian functions: 267
    Spherical Harmonics?: true
    Max angular momentum: 4

  Cached 100.0% of DFT collocation blocks in 0.044 [GiB].

  Minimum eigenvalue in the overlap matrix is 2.6888137059E-03.
  Reciprocal condition number of the overlap matrix is 8.9049151098E-04.
    Using symmetric orthogonalization.

  ==> Pre-Iterations <==

  SCF Guess: Orbitals guess was supplied from a previous computation.

   -------------------------------------------------------
    Irrep   Nso     Nmo     Nalpha   Nbeta   Ndocc  Nsocc
   -------------------------------------------------------
     A1        18      18       8       7       7       1
     A2         2       2       0       0       0       0
     B1         8       8       3       3       3       0
     B2         8       8       3       3       3       0
   -------------------------------------------------------
    Total      36      36      14      13      13       1
   -------------------------------------------------------

  ==> Iterations <==

                           Total Energy        Delta E     RMS |[F,P]|

   @DF-UKS iter   0:  -502.84225304437501   -5.02842e+02   1.67445e-03 
   @DF-UKS iter   1:  -502.84246752799345   -2.14484e-04   2.01467e-04 DIIS/ADIIS
   @DF-UKS iter   2:  -502.84244970726246    1.78207e-05   2.76391e-04 DIIS/ADIIS/DAMP=1%
   @DF-UKS iter   3:  -502.84310669521489   -6.56988e-04   2.00245e-05 DIIS/DAMP=1%
   @DF-UKS iter   4:  -502.84248855609849    6.18139e-04   4.20208e-06 DIIS/DAMP=1%
   @DF-UKS iter   5:  -502.84248669704681    1.85905e-06   8.70609e-07 DIIS/DAMP=1%
   @DF-UKS iter   6:  -502.84248852157236   -1.82453e-06   2.07262e-07 DIIS/DAMP=1%
   @DF-UKS iter   7:  -502.84248668542688    1.83615e-06   2.80451e-08 DIIS/DAMP=1%
   @DF-UKS iter   8:  -502.84248720500318   -5.19576e-07   5.69233e-09 DIIS/DAMP=1%
   @DF-UKS iter   9:  -502.84248714822934    5.67738e-08   1.75206e-09 DIIS/DAMP=1%
   @DF-UKS iter  10:  -502.84248716585216   -1.76228e-08   2.43502e-10 DIIS/DAMP=1%
   @DF-UKS iter  11:  -502.84248716092361    4.92855e-09   3.11138e-11 DIIS/DAMP=1%
  Energy and wave function converged.


  ==> Post-Iterations <==

   Electrons on quadrature grid:
      Nalpha   =   13.9999940766 ; deviation = -5.923e-06
      Nbeta    =   12.9999940623 ; deviation = -5.938e-06
      Ntotal   =   26.9999881389 ; deviation = -1.186e-05 

   @Spin Contamination Metric:   1.702019015E-03
   @S^2 Expected:                7.500000000E-01
   @S^2 Observed:                7.517020190E-01
   @S   Expected:                5.000000000E-01
   @S   Observed:                5.000000000E-01

    Orbital Energies [Eh]
    ---------------------

    Alpha Occupied:                                                       

       1A1   -76.921733     2A1   -38.566761     3A1    -6.429370  
       4A1    -4.612723     1B2    -4.568583     1B1    -4.568583  
       5A1    -2.385552     6A1    -1.321820     2B1    -1.246016  
       2B2    -1.246016     7A1    -0.285545     3B1    -0.024557  
       3B2    -0.024557     8A1     0.027003  

    Alpha Virtual:                                                        

       4B1     0.125450     4B2     0.125450     9A1     0.131002  
      10A1     0.134701    11A1     0.208856     5B2     0.234402  
       5B1     0.234402    12A1     0.298294     1A2     0.298294  
      13A1     0.367080     6B1     0.396844     6B2     0.396844  
      14A1     0.444077     7B2     0.618546     7B1     0.618546  
      15A1     0.742956     2A2     0.742958    16A1     0.750972  
       8B2     0.829069     8B1     0.829069    17A1     0.978614  
      18A1     1.100061  

    Beta Occupied:                                                        

       1A1   -76.921388     2A1   -38.565291     3A1    -6.429047  
       4A1    -4.610966     1B2    -4.568592     1B1    -4.568592  
       5A1    -2.383323     6A1    -1.319747     2B1    -1.244122  
       2B2    -1.244122     7A1    -0.277848     3B1    -0.022730  
       3B2    -0.022730  

    Beta Virtual:                                                         

       8A1     0.084657     4B1     0.128525     4B2     0.128525  
       9A1     0.132462    10A1     0.151936    11A1     0.241393  
       5B2     0.253782     5B1     0.253782    12A1     0.306817  
       1A2     0.306817    13A1     0.383178     6B1     0.412140  
       6B2     0.412140    14A1     0.453479     7B2     0.622261  
       7B1     0.622261    15A1     0.744159     2A2     0.744161  
      16A1     0.761991     8B2     0.834654     8B1     0.834654  
      17A1     0.983395    18A1     1.107770  

    Final Occupation by Irrep:
             A1    A2    B1    B2 
    DOCC [     7,    0,    3,    3 ]
    SOCC [     1,    0,    0,    0 ]
    NA   [     8,    0,    3,    3 ]
    NB   [     7,    0,    3,    3 ]

  @DF-UKS Final Energy:  -502.84248716092361

   => Energetics <=

    Nuclear Repulsion Energy =             72.1274910636036708
    One-Electron Energy =                -843.7046590630609444
    Two-Electron Energy =                 299.4311215599999514
    DFT Exchange-Correlation Energy =     -30.6964407214662707
    Empirical Dispersion Energy =           0.0000000000000000
    VV10 Nonlocal Energy =                  0.0000000000000000
    Total Energy =                       -502.8424871609236106

  UHF NO Occupations:
  HONO-2 :    3 B2 1.9997375
  HONO-1 :    7 A1 1.9996743
  HONO-0 :    8 A1 1.0000000
  LUNO+0 :    9 A1 0.0003257
  LUNO+1 :    4 B2 0.0002625
  LUNO+2 :    4 B1 0.0002625
  LUNO+3 :   10 A1 0.0000002


Computation Completed


Properties will be evaluated at   0.000000,   0.000000,   0.000000 [a0]

Properties computed using the SCF density matrix


 Multipole Moments:

 ------------------------------------------------------------------------------------
     Multipole            Electronic (a.u.)      Nuclear  (a.u.)        Total (a.u.)
 ------------------------------------------------------------------------------------

 L = 1.  Multiply by 2.5417464519 to convert [e a0] to [Debye]
 Dipole X            :          0.0000000            0.0000000            0.0000000
 Dipole Y            :          0.0000000            0.0000000            0.0000000
 Dipole Z            :         -0.6537893           -0.1752971           -0.8290864
 Magnitude           :                                                    0.8290864

 ------------------------------------------------------------------------------------

*** tstop() called on Joses-MacBook-Pro-2.local at Thu Jul 17 11:11:57 2025
Module time:
	user time   =      12.72 seconds =       0.21 minutes
	system time =       2.99 seconds =       0.05 minutes
	total time  =          2 seconds =       0.03 minutes
Total time:
	user time   =      45.21 seconds =       0.75 minutes
	system time =      10.76 seconds =       0.18 minutes
	total time  =          6 seconds =       0.10 minutes

*** tstart() called on Joses-MacBook-Pro-2.local
*** at Thu Jul 17 11:11:57 2025


         ------------------------------------------------------------
                                   SCF GRAD                          
                          Rob Parrish, Justin Turney,                
                       Andy Simmonett, and Alex Sokolov              
         ------------------------------------------------------------

  ==> Geometry <==

    Molecular point group: c2v
    Full point group: C_inf_v

    Geometry (in Angstrom), charge = -1, multiplicity = 2:

       Center              X                  Y                   Z               Mass       
    ------------   -----------------  -----------------  -----------------  -----------------
         NA           0.000000000000     0.000000000000     0.694828856982    22.989769282000
         P            0.000000000000     0.000000000000    -0.515725377929    30.973761998420

  Nuclear repulsion =   72.127491063603671

  ==> Basis Set <==

  Basis Set: CC-PVDZ
    Blend: CC-PVDZ
    Number of shells: 16
    Number of basis functions: 36
    Number of Cartesian functions: 38
    Spherical Harmonics?: true
    Max angular momentum: 2

  ==> DFJKGrad: Density-Fitted SCF Gradients <==

    Gradient:                    1
    J tasked:                  Yes
    K tasked:                  Yes
    wK tasked:                  No
    OpenMP threads:              1
    Integrals threads:           1
    Memory [MiB]:              375
    Schwarz Cutoff:          1E-12
    Fitting Condition:       1E-10

   => Auxiliary Basis Set <=

  Basis Set: (CC-PVDZ AUX)
    Blend: CC-PVDZ-JKFIT + DEF2-UNIVERSAL-JKFIT
    Number of shells: 70
    Number of basis functions: 224
    Number of Cartesian functions: 267
    Spherical Harmonics?: true
    Max angular momentum: 4

  ==> DFT Potential <==

   => LibXC <=

    Version 6.2.2
    S. Lehtola, C. Steigemann, M. J.T. Oliveira, and M. A.L. Marques.,  SoftwareX 7, 1–5 (2018) (10.1016/j.softx.2017.11.002)

   => Composite Functional: B3LYP <= 

    B3LYP Hyb-GGA Exchange-Correlation Functional

    P. J. Stephens, F. J. Devlin, C. F. Chabalowski, and M. J. Frisch.,  J. Phys. Chem. 98, 11623 (1994) (10.1021/j100096a001)

    Deriv               =              1
    GGA                 =           TRUE
    Meta                =          FALSE

    Exchange Hybrid     =           TRUE
    MP2 Hybrid          =          FALSE

   => Exchange Functionals <=

    0.0800   Slater exchange
    0.7200         Becke 88

   => Exact (HF) Exchange <=

    0.2000               HF 

   => Correlation Functionals <=

    0.1900   Vosko, Wilk & Nusair (VWN5_RPA)
    0.8100   Lee, Yang & Parr

   => LibXC Density Thresholds  <==

    XC_HYB_GGA_XC_B3LYP:  1.00E-15 

   => Molecular Quadrature <=

    Radial Scheme          =       TREUTLER
    Pruning Scheme         =           NONE
    Nuclear Scheme         =       TREUTLER

    Blocking Scheme        =         OCTREE
    BS radius alpha        =              1
    Pruning alpha          =              1
    Radial Points          =             75
    Spherical Points       =            302
    Total Points           =          43715
    Total Blocks           =            436
    Max Points             =            256
    Max Functions          =             36
    Weights Tolerance      =       1.00E-15


  -Total Gradient:
     Atom            X                  Y                   Z
    ------   -----------------  -----------------  -----------------
       1       -0.000000000000     0.000000000000    -1.401668973214
       2        0.000000000000     0.000000000000     1.401761528226


*** tstop() called on Joses-MacBook-Pro-2.local at Thu Jul 17 11:11:57 2025
Module time:
	user time   =       3.39 seconds =       0.06 minutes
	system time =       1.57 seconds =       0.03 minutes
	total time  =          0 seconds =       0.00 minutes
Total time:
	user time   =      48.60 seconds =       0.81 minutes
	system time =      12.33 seconds =       0.21 minutes
	total time  =          6 seconds =       0.10 minutes

    			-----------------------------------------

    			 OPTKING 3.0: for geometry optimizations 

    			     By R.A. King, Bethel University     

    			        with contributions from          

    			    A.V. Copan, J. Cayton, A. Heide      

    			-----------------------------------------

    
	                            ===> Fragment 1 <== 

	 Z (Atomic Numbers)          Masses                          Geom                  
	      11.000000            22.989769          0.00000000  0.00000000  1.31303624   
	      15.000000            30.973762          0.00000000  0.00000000 -0.97457972   

	 - Coordinate -           - BOHR/RAD -       - ANG/DEG -
	 R(1,2)           =         2.287616           1.210554


	        --- Internal Coordinate Step in ANG or DEG, aJ/ANG or AJ/DEG ---
	-------------------------------------------------------------------------------
	           Coordinate      Previous         Force          Change          New 
	           ----------      --------        ------          ------        ------
	               R(1,2)       1.21055       11.54834        0.02717       1.23773
	-------------------------------------------------------------------------------

	                                 ==> Convergence Check <==                                  
    
	Measures of convergence in internal coordinates in au.
    
	Criteria marked as inactive (o), active & met (*), and active & unmet ( ).

	----------------------------------------------------------------------------------------------
	   Step    Total Energy     Delta E     Max Force     RMS Force      Max Disp      RMS Disp   
	----------------------------------------------------------------------------------------------
	  Convergence Criteria     1.00e-06 *    3.00e-04 *             o    1.20e-03 *             o
	----------------------------------------------------------------------------------------------
	     3    -502.84248716   -1.88e-02      1.40e+00      1.40e+00 o    5.13e-02      5.13e-02 o  ~
	----------------------------------------------------------------------------------------------

Next Geometry in Ang 
	Fragment 1 (Ang)

	   Na   0.0000000000   0.0000000000   0.7084142633
	    P   0.0000000000   0.0000000000  -0.5293107842


    Structure for next step:
    Molecular point group: c2v
    Full point group: C_inf_v

    Geometry (in Angstrom), charge = -1, multiplicity = 2:

    NA           0.000000000000     0.000000000000     0.710424246380
    P            0.000000000000     0.000000000000    -0.527300801157


Scratch directory: /tmp/
gradient() will perform analytic gradient computation.
   => Libint2 <=

    Primary   basis highest AM E, G, H:  6, 6, 3
    Auxiliary basis highest AM E, G, H:  7, 7, 4
    Onebody   basis highest AM E, G, H:  -, -, -
    Solid Harmonics ordering:            Gaussian

*** tstart() called on Joses-MacBook-Pro-2.local
*** at Thu Jul 17 11:11:57 2025

   => Loading Basis Set <=

    Name: CC-PVDZ
    Role: ORBITAL
    Keyword: BASIS
    atoms 1 entry NA         line   288 file /Users/joseantoniorodriguesromero/anaconda3/share/psi4/basis/cc-pvdz.gbs 
    atoms 2 entry P          line   538 file /Users/joseantoniorodriguesromero/anaconda3/share/psi4/basis/cc-pvdz.gbs 


         ---------------------------------------------------------
                                   SCF
               by Justin Turney, Rob Parrish, Andy Simmonett
                          and Daniel G. A. Smith
                              UKS Reference
                        1 Threads,    500 MiB Core
         ---------------------------------------------------------

  ==> Geometry <==

    Molecular point group: c2v
    Full point group: C_inf_v

    Geometry (in Angstrom), charge = -1, multiplicity = 2:

       Center              X                  Y                   Z               Mass       
    ------------   -----------------  -----------------  -----------------  -----------------
         NA           0.000000000000     0.000000000000     0.710424246380    22.989769282000
         P            0.000000000000     0.000000000000    -0.527300801157    30.973761998420

  Running in c2v symmetry.

  Rotational constants: A = ************  B =      0.83391  C =      0.83391 [cm^-1]
  Rotational constants: A = ************  B =  25000.03585  C =  25000.03585 [MHz]
  Nuclear repulsion =   70.544132506845358

  Charge       = -1
  Multiplicity = 2
  Electrons    = 27
  Nalpha       = 14
  Nbeta        = 13

  ==> Algorithm <==

  SCF Algorithm Type is DF.
  DIIS enabled.
  MOM disabled.
  Fractional occupation disabled.
  Guess Type is READ.
  Energy threshold   = 1.00e-08
  Density threshold  = 1.00e-08
  Integral threshold = 1.00e-12

  ==> Primary Basis <==

  Basis Set: CC-PVDZ
    Blend: CC-PVDZ
    Number of shells: 16
    Number of basis functions: 36
    Number of Cartesian functions: 38
    Spherical Harmonics?: true
    Max angular momentum: 2

  ==> DFT Potential <==

   => LibXC <=

    Version 6.2.2
    S. Lehtola, C. Steigemann, M. J.T. Oliveira, and M. A.L. Marques.,  SoftwareX 7, 1–5 (2018) (10.1016/j.softx.2017.11.002)

   => Composite Functional: B3LYP <= 

    B3LYP Hyb-GGA Exchange-Correlation Functional

    P. J. Stephens, F. J. Devlin, C. F. Chabalowski, and M. J. Frisch.,  J. Phys. Chem. 98, 11623 (1994) (10.1021/j100096a001)

    Deriv               =              1
    GGA                 =           TRUE
    Meta                =          FALSE

    Exchange Hybrid     =           TRUE
    MP2 Hybrid          =          FALSE

   => Exchange Functionals <=

    0.0800   Slater exchange
    0.7200         Becke 88

   => Exact (HF) Exchange <=

    0.2000               HF 

   => Correlation Functionals <=

    0.1900   Vosko, Wilk & Nusair (VWN5_RPA)
    0.8100   Lee, Yang & Parr

   => LibXC Density Thresholds  <==

    XC_HYB_GGA_XC_B3LYP:  1.00E-15 

   => Molecular Quadrature <=

    Radial Scheme          =       TREUTLER
    Pruning Scheme         =           NONE
    Nuclear Scheme         =       TREUTLER

    Blocking Scheme        =         OCTREE
    BS radius alpha        =              1
    Pruning alpha          =              1
    Radial Points          =             75
    Spherical Points       =            302
    Total Points           =          43723
    Total Blocks           =            438
    Max Points             =            253
    Max Functions          =             36
    Weights Tolerance      =       1.00E-15

   => Loading Basis Set <=

    Name: (CC-PVDZ AUX)
    Role: JKFIT
    Keyword: DF_BASIS_SCF
    atoms 1 entry NA         line   498 file /Users/joseantoniorodriguesromero/anaconda3/share/psi4/basis/def2-universal-jkfit.gbs 
    atoms 2 entry P          line   519 file /Users/joseantoniorodriguesromero/anaconda3/share/psi4/basis/cc-pvdz-jkfit.gbs 

   => Loading Basis Set <=

    Name: CC-PVDZ
    Role: ORBITAL
    Keyword: BASIS
    atoms 1 entry NA         line   288 file /Users/joseantoniorodriguesromero/anaconda3/share/psi4/basis/cc-pvdz.gbs 
    atoms 2 entry P          line   538 file /Users/joseantoniorodriguesromero/anaconda3/share/psi4/basis/cc-pvdz.gbs 

  Reading orbitals from file /tmp/doublet_NaP.default.72994.180.npy, no projection.

  ==> Integral Setup <==

  DFHelper Memory: AOs need 0.003 GiB; user supplied 0.322 GiB. 
  Using in-core AOs.

  ==> MemDFJK: Density-Fitted J/K Matrices <==

    J tasked:                   Yes
    K tasked:                   Yes
    wK tasked:                   No
    OpenMP threads:               1
    Memory [MiB]:               330
    Algorithm:                 Core
    Schwarz Cutoff:           1E-12
    Mask sparsity (%):       0.0000
    Fitting Condition:        1E-10

   => Auxiliary Basis Set <=

  Basis Set: (CC-PVDZ AUX)
    Blend: CC-PVDZ-JKFIT + DEF2-UNIVERSAL-JKFIT
    Number of shells: 70
    Number of basis functions: 224
    Number of Cartesian functions: 267
    Spherical Harmonics?: true
    Max angular momentum: 4

  Cached 100.0% of DFT collocation blocks in 0.044 [GiB].

  Minimum eigenvalue in the overlap matrix is 2.7049595820E-03.
  Reciprocal condition number of the overlap matrix is 8.9555441869E-04.
    Using symmetric orthogonalization.

  ==> Pre-Iterations <==

  SCF Guess: Orbitals guess was supplied from a previous computation.

   -------------------------------------------------------
    Irrep   Nso     Nmo     Nalpha   Nbeta   Ndocc  Nsocc
   -------------------------------------------------------
     A1        18      18       8       7       7       1
     A2         2       2       0       0       0       0
     B1         8       8       3       3       3       0
     B2         8       8       3       3       3       0
   -------------------------------------------------------
    Total      36      36      14      13      13       1
   -------------------------------------------------------

  ==> Iterations <==

                           Total Energy        Delta E     RMS |[F,P]|

   @DF-UKS iter   0:  -502.91005401305648   -5.02910e+02   6.20087e-03 
   @DF-UKS iter   1:  -502.91046729212809   -4.13279e-04   7.35298e-04 DIIS/ADIIS
   @DF-UKS iter   2:  -502.91020622583198    2.61066e-04   1.03778e-03 DIIS/ADIIS/DAMP=1%
   @DF-UKS iter   3:  -502.91300843069882   -2.80220e-03   6.74264e-05 DIIS/DAMP=1%
   @DF-UKS iter   4:  -502.91075798141611    2.25045e-03   1.52821e-05 DIIS/DAMP=1%
   @DF-UKS iter   5:  -502.91073335372050    2.46277e-05   3.28460e-06 DIIS/DAMP=1%
   @DF-UKS iter   6:  -502.91074006603475   -6.71231e-06   7.63532e-07 DIIS/DAMP=1%
   @DF-UKS iter   7:  -502.91073317400634    6.89203e-06   1.23764e-07 DIIS/DAMP=1%
   @DF-UKS iter   8:  -502.91073519834572   -2.02434e-06   3.51841e-08 DIIS/DAMP=1%
   @DF-UKS iter   9:  -502.91073486105978    3.37286e-07   8.95083e-09 DIIS/DAMP=1%
   @DF-UKS iter  10:  -502.91073497066486   -1.09605e-07   9.07598e-10 DIIS/DAMP=1%
   @DF-UKS iter  11:  -502.91073494706961    2.35952e-08   2.12951e-10 DIIS/DAMP=1%
   @DF-UKS iter  12:  -502.91073494929481   -2.22519e-09   1.43242e-11 DIIS/DAMP=1%
  Energy and wave function converged.


  ==> Post-Iterations <==

   Electrons on quadrature grid:
      Nalpha   =   13.9999951104 ; deviation = -4.890e-06
      Nbeta    =   12.9999951007 ; deviation = -4.899e-06
      Ntotal   =   26.9999902111 ; deviation = -9.789e-06 

   @Spin Contamination Metric:   1.714243637E-03
   @S^2 Expected:                7.500000000E-01
   @S^2 Observed:                7.517142436E-01
   @S   Expected:                5.000000000E-01
   @S   Observed:                5.000000000E-01

    Orbital Energies [Eh]
    ---------------------

    Alpha Occupied:                                                       

       1A1   -76.915084     2A1   -38.552709     3A1    -6.418747  
       4A1    -4.601256     1B1    -4.559688     1B2    -4.559688  
       5A1    -2.362169     6A1    -1.305244     2B2    -1.228173  
       2B1    -1.228173     7A1    -0.286319     3B2    -0.023389  
       3B1    -0.023389     8A1     0.026623  

    Alpha Virtual:                                                        

       4B2     0.125516     4B1     0.125516     9A1     0.129800  
      10A1     0.134224    11A1     0.207464     5B1     0.234231  
       5B2     0.234231    12A1     0.299449     1A2     0.299449  
      13A1     0.362594     6B1     0.397409     6B2     0.397409  
      14A1     0.447703     7B1     0.615822     7B2     0.615822  
      15A1     0.743625     2A2     0.744889    16A1     0.744890  
       8B1     0.829718     8B2     0.829718    17A1     0.981636  
      18A1     1.071650  

    Beta Occupied:                                                        

       1A1   -76.914708     2A1   -38.551211     3A1    -6.418389  
       4A1    -4.599386     1B1    -4.559675     1B2    -4.559675  
       5A1    -2.359818     6A1    -1.303263     2B2    -1.226237  
       2B1    -1.226237     7A1    -0.278363     3B2    -0.021482  
       3B1    -0.021482  

    Beta Virtual:                                                         

       8A1     0.084117     4B2     0.128551     4B1     0.128551  
       9A1     0.132308    10A1     0.150813    11A1     0.239547  
       5B1     0.253448     5B2     0.253448     1A2     0.308032  
      12A1     0.308032    13A1     0.379153     6B1     0.413079  
       6B2     0.413079    14A1     0.457007     7B1     0.619579  
       7B2     0.619579     2A2     0.746105    15A1     0.746107  
      16A1     0.754651     8B1     0.835483     8B2     0.835483  
      17A1     0.985932    18A1     1.080513  

    Final Occupation by Irrep:
             A1    A2    B1    B2 
    DOCC [     7,    0,    3,    3 ]
    SOCC [     1,    0,    0,    0 ]
    NA   [     8,    0,    3,    3 ]
    NB   [     7,    0,    3,    3 ]

  @DF-UKS Final Energy:  -502.91073494929481

   => Energetics <=

    Nuclear Repulsion Energy =             70.5441325068453580
    One-Electron Energy =                -840.9611392401525336
    Two-Electron Energy =                 298.1868635053108392
    DFT Exchange-Correlation Energy =     -30.6805917212984838
    Empirical Dispersion Energy =           0.0000000000000000
    VV10 Nonlocal Energy =                  0.0000000000000000
    Total Energy =                       -502.9107349492948060

  UHF NO Occupations:
  HONO-2 :    3 B1 1.9997437
  HONO-1 :    7 A1 1.9996557
  HONO-0 :    8 A1 1.0000000
  LUNO+0 :    9 A1 0.0003443
  LUNO+1 :    4 B1 0.0002563
  LUNO+2 :    4 B2 0.0002563
  LUNO+3 :   10 A1 0.0000002


Computation Completed


Properties will be evaluated at   0.000000,   0.000000,   0.000000 [a0]

Properties computed using the SCF density matrix


 Multipole Moments:

 ------------------------------------------------------------------------------------
     Multipole            Electronic (a.u.)      Nuclear  (a.u.)        Total (a.u.)
 ------------------------------------------------------------------------------------

 L = 1.  Multiply by 2.5417464519 to convert [e a0] to [Debye]
 Dipole X            :          0.0000000            0.0000000            0.0000000
 Dipole Y            :          0.0000000            0.0000000            0.0000000
 Dipole Z            :         -0.6254930           -0.1792317           -0.8047247
 Magnitude           :                                                    0.8047247

 ------------------------------------------------------------------------------------

*** tstop() called on Joses-MacBook-Pro-2.local at Thu Jul 17 11:11:59 2025
Module time:
	user time   =      12.87 seconds =       0.21 minutes
	system time =       2.10 seconds =       0.04 minutes
	total time  =          2 seconds =       0.03 minutes
Total time:
	user time   =      61.55 seconds =       1.03 minutes
	system time =      14.63 seconds =       0.24 minutes
	total time  =          8 seconds =       0.13 minutes

*** tstart() called on Joses-MacBook-Pro-2.local
*** at Thu Jul 17 11:11:59 2025


         ------------------------------------------------------------
                                   SCF GRAD                          
                          Rob Parrish, Justin Turney,                
                       Andy Simmonett, and Alex Sokolov              
         ------------------------------------------------------------

  ==> Geometry <==

    Molecular point group: c2v
    Full point group: C_inf_v

    Geometry (in Angstrom), charge = -1, multiplicity = 2:

       Center              X                  Y                   Z               Mass       
    ------------   -----------------  -----------------  -----------------  -----------------
         NA           0.000000000000     0.000000000000     0.710424246380    22.989769282000
         P            0.000000000000     0.000000000000    -0.527300801157    30.973761998420

  Nuclear repulsion =   70.544132506845358

  ==> Basis Set <==

  Basis Set: CC-PVDZ
    Blend: CC-PVDZ
    Number of shells: 16
    Number of basis functions: 36
    Number of Cartesian functions: 38
    Spherical Harmonics?: true
    Max angular momentum: 2

  ==> DFJKGrad: Density-Fitted SCF Gradients <==

    Gradient:                    1
    J tasked:                  Yes
    K tasked:                  Yes
    wK tasked:                  No
    OpenMP threads:              1
    Integrals threads:           1
    Memory [MiB]:              375
    Schwarz Cutoff:          1E-12
    Fitting Condition:       1E-10

   => Auxiliary Basis Set <=

  Basis Set: (CC-PVDZ AUX)
    Blend: CC-PVDZ-JKFIT + DEF2-UNIVERSAL-JKFIT
    Number of shells: 70
    Number of basis functions: 224
    Number of Cartesian functions: 267
    Spherical Harmonics?: true
    Max angular momentum: 4

  ==> DFT Potential <==

   => LibXC <=

    Version 6.2.2
    S. Lehtola, C. Steigemann, M. J.T. Oliveira, and M. A.L. Marques.,  SoftwareX 7, 1–5 (2018) (10.1016/j.softx.2017.11.002)

   => Composite Functional: B3LYP <= 

    B3LYP Hyb-GGA Exchange-Correlation Functional

    P. J. Stephens, F. J. Devlin, C. F. Chabalowski, and M. J. Frisch.,  J. Phys. Chem. 98, 11623 (1994) (10.1021/j100096a001)

    Deriv               =              1
    GGA                 =           TRUE
    Meta                =          FALSE

    Exchange Hybrid     =           TRUE
    MP2 Hybrid          =          FALSE

   => Exchange Functionals <=

    0.0800   Slater exchange
    0.7200         Becke 88

   => Exact (HF) Exchange <=

    0.2000               HF 

   => Correlation Functionals <=

    0.1900   Vosko, Wilk & Nusair (VWN5_RPA)
    0.8100   Lee, Yang & Parr

   => LibXC Density Thresholds  <==

    XC_HYB_GGA_XC_B3LYP:  1.00E-15 

   => Molecular Quadrature <=

    Radial Scheme          =       TREUTLER
    Pruning Scheme         =           NONE
    Nuclear Scheme         =       TREUTLER

    Blocking Scheme        =         OCTREE
    BS radius alpha        =              1
    Pruning alpha          =              1
    Radial Points          =             75
    Spherical Points       =            302
    Total Points           =          43723
    Total Blocks           =            438
    Max Points             =            253
    Max Functions          =             36
    Weights Tolerance      =       1.00E-15


  -Total Gradient:
     Atom            X                  Y                   Z
    ------   -----------------  -----------------  -----------------
       1       -0.000000000000     0.000000000000    -1.259672445593
       2        0.000000000000    -0.000000000000     1.259813363115


*** tstop() called on Joses-MacBook-Pro-2.local at Thu Jul 17 11:11:59 2025
Module time:
	user time   =       2.93 seconds =       0.05 minutes
	system time =       1.59 seconds =       0.03 minutes
	total time  =          0 seconds =       0.00 minutes
Total time:
	user time   =      64.48 seconds =       1.07 minutes
	system time =      16.22 seconds =       0.27 minutes
	total time  =          8 seconds =       0.13 minutes

    			-----------------------------------------

    			 OPTKING 3.0: for geometry optimizations 

    			     By R.A. King, Bethel University     

    			        with contributions from          

    			    A.V. Copan, J. Cayton, A. Heide      

    			-----------------------------------------

    
	                            ===> Fragment 1 <== 

	 Z (Atomic Numbers)          Masses                          Geom                  
	      11.000000            22.989769          0.00000000  0.00000000  1.34250726   
	      15.000000            30.973762          0.00000000  0.00000000 -0.99645410   

	 - Coordinate -           - BOHR/RAD -       - ANG/DEG -
	 R(1,2)           =         2.338961           1.237725


	        --- Internal Coordinate Step in ANG or DEG, aJ/ANG or AJ/DEG ---
	-------------------------------------------------------------------------------
	           Coordinate      Previous         Force          Change          New 
	           ----------      --------        ------          ------        ------
	               R(1,2)       1.23773       10.37867        0.17456       1.41228
	-------------------------------------------------------------------------------

	                                 ==> Convergence Check <==                                  
    
	Measures of convergence in internal coordinates in au.
    
	Criteria marked as inactive (o), active & met (*), and active & unmet ( ).

	----------------------------------------------------------------------------------------------
	   Step    Total Energy     Delta E     Max Force     RMS Force      Max Disp      RMS Disp   
	----------------------------------------------------------------------------------------------
	  Convergence Criteria     1.00e-06 *    3.00e-04 *             o    1.20e-03 *             o
	----------------------------------------------------------------------------------------------
	     4    -502.91073495   -6.82e-02      1.26e+00      1.26e+00 o    3.30e-01      3.30e-01 o  ~
	----------------------------------------------------------------------------------------------

Next Geometry in Ang 
	Fragment 1 (Ang)

	   Na   0.0000000000   0.0000000000   0.7977017471
	    P   0.0000000000   0.0000000000  -0.6145783019


    Structure for next step:
    Molecular point group: c2v
    Full point group: C_inf_v

    Geometry (in Angstrom), charge = -1, multiplicity = 2:

    NA           0.000000000000     0.000000000000     0.810614596065
    P            0.000000000000     0.000000000000    -0.601665452879


Scratch directory: /tmp/
gradient() will perform analytic gradient computation.
   => Libint2 <=

    Primary   basis highest AM E, G, H:  6, 6, 3
    Auxiliary basis highest AM E, G, H:  7, 7, 4
    Onebody   basis highest AM E, G, H:  -, -, -
    Solid Harmonics ordering:            Gaussian

*** tstart() called on Joses-MacBook-Pro-2.local
*** at Thu Jul 17 11:11:59 2025

   => Loading Basis Set <=

    Name: CC-PVDZ
    Role: ORBITAL
    Keyword: BASIS
    atoms 1 entry NA         line   288 file /Users/joseantoniorodriguesromero/anaconda3/share/psi4/basis/cc-pvdz.gbs 
    atoms 2 entry P          line   538 file /Users/joseantoniorodriguesromero/anaconda3/share/psi4/basis/cc-pvdz.gbs 


         ---------------------------------------------------------
                                   SCF
               by Justin Turney, Rob Parrish, Andy Simmonett
                          and Daniel G. A. Smith
                              UKS Reference
[...]
	----------------------------------------------------------------------------------------------
	    14    -503.59995717   -3.30e-06      1.68e-04 *    1.68e-04 o    2.42e-03      2.42e-03 o  ~
	----------------------------------------------------------------------------------------------

Next Geometry in Ang 
	Fragment 1 (Ang)

	   Na   0.0000000000   0.0000000000   1.4116933802
	    P   0.0000000000   0.0000000000  -1.0479711117


    Structure for next step:
    Molecular point group: c2v
    Full point group: C_inf_v

    Geometry (in Angstrom), charge = -1, multiplicity = 2:

    NA           0.000000000000     0.000000000000     1.411787938298
    P            0.000000000000     0.000000000000    -1.047876553653


Scratch directory: /tmp/
gradient() will perform analytic gradient computation.
   => Libint2 <=

    Primary   basis highest AM E, G, H:  6, 6, 3
    Auxiliary basis highest AM E, G, H:  7, 7, 4
    Onebody   basis highest AM E, G, H:  -, -, -
    Solid Harmonics ordering:            Gaussian

*** tstart() called on Joses-MacBook-Pro-2.local
*** at Thu Jul 17 11:12:36 2025

   => Loading Basis Set <=

    Name: CC-PVDZ
    Role: ORBITAL
    Keyword: BASIS
    atoms 1 entry NA         line   288 file /Users/joseantoniorodriguesromero/anaconda3/share/psi4/basis/cc-pvdz.gbs 
    atoms 2 entry P          line   538 file /Users/joseantoniorodriguesromero/anaconda3/share/psi4/basis/cc-pvdz.gbs 


         ---------------------------------------------------------
                                   SCF
               by Justin Turney, Rob Parrish, Andy Simmonett
                          and Daniel G. A. Smith
                              UKS Reference
                        1 Threads,    500 MiB Core
         ---------------------------------------------------------

  ==> Geometry <==

    Molecular point group: c2v
    Full point group: C_inf_v

    Geometry (in Angstrom), charge = -1, multiplicity = 2:

       Center              X                  Y                   Z               Mass       
    ------------   -----------------  -----------------  -----------------  -----------------
         NA           0.000000000000     0.000000000000     1.411787938298    22.989769282000
         P            0.000000000000     0.000000000000    -1.047876553653    30.973761998420

  Running in c2v symmetry.

  Rotational constants: A = ************  B =      0.21116  C =      0.21116 [cm^-1]
  Rotational constants: A = ************  B =   6330.48884  C =   6330.48884 [MHz]
  Nuclear repulsion =   35.498434866328118

  Charge       = -1
  Multiplicity = 2
  Electrons    = 27
  Nalpha       = 14
  Nbeta        = 13

  ==> Algorithm <==

  SCF Algorithm Type is DF.
  DIIS enabled.
  MOM disabled.
  Fractional occupation disabled.
  Guess Type is READ.
  Energy threshold   = 1.00e-08
  Density threshold  = 1.00e-08
  Integral threshold = 1.00e-12

  ==> Primary Basis <==

  Basis Set: CC-PVDZ
    Blend: CC-PVDZ
    Number of shells: 16
    Number of basis functions: 36
    Number of Cartesian functions: 38
    Spherical Harmonics?: true
    Max angular momentum: 2

  ==> DFT Potential <==

   => LibXC <=

    Version 6.2.2
    S. Lehtola, C. Steigemann, M. J.T. Oliveira, and M. A.L. Marques.,  SoftwareX 7, 1–5 (2018) (10.1016/j.softx.2017.11.002)

   => Composite Functional: B3LYP <= 

    B3LYP Hyb-GGA Exchange-Correlation Functional

    P. J. Stephens, F. J. Devlin, C. F. Chabalowski, and M. J. Frisch.,  J. Phys. Chem. 98, 11623 (1994) (10.1021/j100096a001)

    Deriv               =              1
    GGA                 =           TRUE
    Meta                =          FALSE

    Exchange Hybrid     =           TRUE
    MP2 Hybrid          =          FALSE

   => Exchange Functionals <=

    0.0800   Slater exchange
    0.7200         Becke 88

   => Exact (HF) Exchange <=

    0.2000               HF 

   => Correlation Functionals <=

    0.1900   Vosko, Wilk & Nusair (VWN5_RPA)
    0.8100   Lee, Yang & Parr

   => LibXC Density Thresholds  <==

    XC_HYB_GGA_XC_B3LYP:  1.00E-15 

   => Molecular Quadrature <=

    Radial Scheme          =       TREUTLER
    Pruning Scheme         =           NONE
    Nuclear Scheme         =       TREUTLER

    Blocking Scheme        =         OCTREE
    BS radius alpha        =              1
    Pruning alpha          =              1
    Radial Points          =             75
    Spherical Points       =            302
    Total Points           =          43840
    Total Blocks           =            442
    Max Points             =            255
    Max Functions          =             36
    Weights Tolerance      =       1.00E-15

   => Loading Basis Set <=

    Name: (CC-PVDZ AUX)
    Role: JKFIT
    Keyword: DF_BASIS_SCF
    atoms 1 entry NA         line   498 file /Users/joseantoniorodriguesromero/anaconda3/share/psi4/basis/def2-universal-jkfit.gbs 
    atoms 2 entry P          line   519 file /Users/joseantoniorodriguesromero/anaconda3/share/psi4/basis/cc-pvdz-jkfit.gbs 

   => Loading Basis Set <=

    Name: CC-PVDZ
    Role: ORBITAL
    Keyword: BASIS
    atoms 1 entry NA         line   288 file /Users/joseantoniorodriguesromero/anaconda3/share/psi4/basis/cc-pvdz.gbs 
    atoms 2 entry P          line   538 file /Users/joseantoniorodriguesromero/anaconda3/share/psi4/basis/cc-pvdz.gbs 

  Reading orbitals from file /tmp/doublet_NaP.default.72994.180.npy, no projection.

  ==> Integral Setup <==

  DFHelper Memory: AOs need 0.003 GiB; user supplied 0.323 GiB. 
  Using in-core AOs.

  ==> MemDFJK: Density-Fitted J/K Matrices <==

    J tasked:                   Yes
    K tasked:                   Yes
    wK tasked:                   No
    OpenMP threads:               1
    Memory [MiB]:               330
    Algorithm:                 Core
    Schwarz Cutoff:           1E-12
    Mask sparsity (%):       0.0000
    Fitting Condition:        1E-10

   => Auxiliary Basis Set <=

  Basis Set: (CC-PVDZ AUX)
    Blend: CC-PVDZ-JKFIT + DEF2-UNIVERSAL-JKFIT
    Number of shells: 70
    Number of basis functions: 224
    Number of Cartesian functions: 267
    Spherical Harmonics?: true
    Max angular momentum: 4

  Cached 100.0% of DFT collocation blocks in 0.044 [GiB].

  Minimum eigenvalue in the overlap matrix is 4.1186829849E-03.
  Reciprocal condition number of the overlap matrix is 1.3864241954E-03.
    Using symmetric orthogonalization.

  ==> Pre-Iterations <==

  SCF Guess: Orbitals guess was supplied from a previous computation.

   -------------------------------------------------------
    Irrep   Nso     Nmo     Nalpha   Nbeta   Ndocc  Nsocc
   -------------------------------------------------------
     A1        18      18       8       7       7       1
     A2         2       2       0       0       0       0
     B1         8       8       3       3       3       0
     B2         8       8       3       3       3       0
   -------------------------------------------------------
    Total      36      36      14      13      13       1
   -------------------------------------------------------

  ==> Iterations <==

                           Total Energy        Delta E     RMS |[F,P]|

   @DF-UKS iter   0:  -503.59986018185373   -5.03600e+02   4.18096e-05 
   @DF-UKS iter   1:  -503.59995708917052   -9.69073e-05   1.49642e-05 DIIS
   @DF-UKS iter   2:  -503.59995508678674    2.00238e-06   6.03500e-05 DIIS/DAMP=1%
   @DF-UKS iter   3:  -503.59984361930827    1.11467e-04   2.57407e-06 DIIS/DAMP=1%
   @DF-UKS iter   4:  -503.59995168571771   -1.08066e-04   4.61658e-07 DIIS/DAMP=1%
   @DF-UKS iter   5:  -503.59995671264750   -5.02693e-06   1.40268e-07 DIIS/DAMP=1%
   @DF-UKS iter   6:  -503.59995687634250   -1.63695e-07   7.27829e-08 DIIS/DAMP=1%
   @DF-UKS iter   7:  -503.59995747440922   -5.98067e-07   4.54485e-08 DIIS/DAMP=1%
   @DF-UKS iter   8:  -503.59995715066106    3.23748e-07   1.36770e-08 DIIS/DAMP=1%
   @DF-UKS iter   9:  -503.59995728730939   -1.36648e-07   7.84871e-09 DIIS/DAMP=1%
   @DF-UKS iter  10:  -503.59995722538969    6.19197e-08   8.76362e-10 DIIS/DAMP=1%
   @DF-UKS iter  11:  -503.59995724189770   -1.65080e-08   5.30720e-10 DIIS/DAMP=1%
   @DF-UKS iter  12:  -503.59995723811375    3.78395e-09   2.24987e-11 DIIS/DAMP=1%
  Energy and wave function converged.


  ==> Post-Iterations <==

   Electrons on quadrature grid:
      Nalpha   =   14.0000041107 ; deviation = 4.111e-06
      Nbeta    =   13.0000041328 ; deviation = 4.133e-06
      Ntotal   =   27.0000082435 ; deviation = 8.244e-06 

   @Spin Contamination Metric:   3.267238279E-02
   @S^2 Expected:                7.500000000E-01
   @S^2 Observed:                7.826723828E-01
   @S   Expected:                5.000000000E-01
   @S   Observed:                5.000000000E-01

    Orbital Energies [Eh]
    ---------------------

    Alpha Occupied:                                                       

       1A1   -76.846937     2A1   -38.335573     3A1    -6.312659  
       4A1    -4.481568     1B2    -4.470481     1B1    -4.470481  
       5A1    -2.084630     6A1    -1.017167     2B2    -1.014929  
       2B1    -1.014929     7A1    -0.311583     8A1    -0.027910  
       3B2     0.019110     3B1     0.019110  

    Alpha Virtual:                                                        

       9A1     0.054612     4B1     0.109504     4B2     0.109504  
      10A1     0.127265    11A1     0.167372     5B2     0.202722  
       5B1     0.202722    12A1     0.268235    13A1     0.305177  
       1A2     0.305177     6B2     0.336479     6B1     0.336479  
      14A1     0.423875    15A1     0.672299     7B2     0.675767  
       7B1     0.675767    16A1     0.696909     2A2     0.744121  
      17A1     0.744122     8B2     0.802504     8B1     0.802504  
      18A1     1.013033  

    Beta Occupied:                                                        

       1A1   -76.843353     2A1   -38.334667     3A1    -6.308789  
       4A1    -4.471343     1B2    -4.467156     1B1    -4.467156  
       5A1    -2.082963     6A1    -1.015432     2B2    -1.013966  
       2B1    -1.013966     7A1    -0.273148     3B2     0.034096  
       3B1     0.034096  

    Beta Virtual:                                                         

       8A1     0.042574     9A1     0.090417     4B1     0.112668  
       4B2     0.112668    10A1     0.130275    11A1     0.174158  
       5B2     0.209136     5B1     0.209136    12A1     0.284275  
      13A1     0.308164     1A2     0.308164     6B2     0.349850  
       6B1     0.349850    14A1     0.435802     7B2     0.687690  
       7B1     0.687690    15A1     0.705782    16A1     0.737866  
       2A2     0.756745    17A1     0.756748     8B2     0.834568  
       8B1     0.834568    18A1     1.028284  

    Final Occupation by Irrep:
             A1    A2    B1    B2 
    DOCC [     7,    0,    3,    3 ]
    SOCC [     1,    0,    0,    0 ]
    NA   [     8,    0,    3,    3 ]
    NB   [     7,    0,    3,    3 ]

  @DF-UKS Final Energy:  -503.59995723811375

   => Energetics <=

    Nuclear Repulsion Energy =             35.4984348663281182
    One-Electron Energy =                -775.8945059261502593
    Two-Electron Energy =                 267.2661996905741830
    DFT Exchange-Correlation Energy =     -30.4700858688657803
    Empirical Dispersion Energy =           0.0000000000000000
    VV10 Nonlocal Energy =                  0.0000000000000000
    Total Energy =                       -503.5999572381137455

  UHF NO Occupations:
  HONO-2 :    3 B2 1.9921528
  HONO-1 :    3 B1 1.9921528
  HONO-0 :    8 A1 1.0000000
  LUNO+0 :    4 B1 0.0078472
  LUNO+1 :    4 B2 0.0078472
  LUNO+2 :    9 A1 0.0007011
  LUNO+3 :   10 A1 0.0000022


Computation Completed


Properties will be evaluated at   0.000000,   0.000000,   0.000000 [a0]

Properties computed using the SCF density matrix


 Multipole Moments:

 ------------------------------------------------------------------------------------
     Multipole            Electronic (a.u.)      Nuclear  (a.u.)        Total (a.u.)
 ------------------------------------------------------------------------------------

 L = 1.  Multiply by 2.5417464519 to convert [e a0] to [Debye]
 Dipole X            :          0.0000000            0.0000000            0.0000000
 Dipole Y            :          0.0000000            0.0000000            0.0000000
 Dipole Z            :          1.9695838           -0.3561774            1.6134064
 Magnitude           :                                                    1.6134064

 ------------------------------------------------------------------------------------

*** tstop() called on Joses-MacBook-Pro-2.local at Thu Jul 17 11:12:39 2025
Module time:
	user time   =      23.95 seconds =       0.40 minutes
	system time =       3.35 seconds =       0.06 minutes
	total time  =          3 seconds =       0.05 minutes
Total time:
	user time   =     361.61 seconds =       6.03 minutes
	system time =      88.28 seconds =       1.47 minutes
	total time  =         48 seconds =       0.80 minutes

*** tstart() called on Joses-MacBook-Pro-2.local
*** at Thu Jul 17 11:12:39 2025


         ------------------------------------------------------------
                                   SCF GRAD                          
                          Rob Parrish, Justin Turney,                
                       Andy Simmonett, and Alex Sokolov              
         ------------------------------------------------------------

  ==> Geometry <==

    Molecular point group: c2v
    Full point group: C_inf_v

    Geometry (in Angstrom), charge = -1, multiplicity = 2:

       Center              X                  Y                   Z               Mass       
    ------------   -----------------  -----------------  -----------------  -----------------
         NA           0.000000000000     0.000000000000     1.411787938298    22.989769282000
         P            0.000000000000     0.000000000000    -1.047876553653    30.973761998420

  Nuclear repulsion =   35.498434866328118

  ==> Basis Set <==

  Basis Set: CC-PVDZ
    Blend: CC-PVDZ
    Number of shells: 16
    Number of basis functions: 36
    Number of Cartesian functions: 38
    Spherical Harmonics?: true
    Max angular momentum: 2

  ==> DFJKGrad: Density-Fitted SCF Gradients <==

    Gradient:                    1
    J tasked:                  Yes
    K tasked:                  Yes
    wK tasked:                  No
    OpenMP threads:              1
    Integrals threads:           1
    Memory [MiB]:              375
    Schwarz Cutoff:          1E-12
    Fitting Condition:       1E-10

   => Auxiliary Basis Set <=

  Basis Set: (CC-PVDZ AUX)
    Blend: CC-PVDZ-JKFIT + DEF2-UNIVERSAL-JKFIT
    Number of shells: 70
    Number of basis functions: 224
    Number of Cartesian functions: 267
    Spherical Harmonics?: true
    Max angular momentum: 4

  ==> DFT Potential <==

   => LibXC <=

    Version 6.2.2
    S. Lehtola, C. Steigemann, M. J.T. Oliveira, and M. A.L. Marques.,  SoftwareX 7, 1–5 (2018) (10.1016/j.softx.2017.11.002)

   => Composite Functional: B3LYP <= 

    B3LYP Hyb-GGA Exchange-Correlation Functional

    P. J. Stephens, F. J. Devlin, C. F. Chabalowski, and M. J. Frisch.,  J. Phys. Chem. 98, 11623 (1994) (10.1021/j100096a001)

    Deriv               =              1
    GGA                 =           TRUE
    Meta                =          FALSE

    Exchange Hybrid     =           TRUE
    MP2 Hybrid          =          FALSE

   => Exchange Functionals <=

    0.0800   Slater exchange
    0.7200         Becke 88

   => Exact (HF) Exchange <=

    0.2000               HF 

   => Correlation Functionals <=

    0.1900   Vosko, Wilk & Nusair (VWN5_RPA)
    0.8100   Lee, Yang & Parr

   => LibXC Density Thresholds  <==

    XC_HYB_GGA_XC_B3LYP:  1.00E-15 

   => Molecular Quadrature <=

    Radial Scheme          =       TREUTLER
    Pruning Scheme         =           NONE
    Nuclear Scheme         =       TREUTLER

    Blocking Scheme        =         OCTREE
    BS radius alpha        =              1
    Pruning alpha          =              1
    Radial Points          =             75
    Spherical Points       =            302
    Total Points           =          43840
    Total Blocks           =            442
    Max Points             =            255
    Max Functions          =             36
    Weights Tolerance      =       1.00E-15


  -Total Gradient:
     Atom            X                  Y                   Z
    ------   -----------------  -----------------  -----------------
       1       -0.000000000000     0.000000000000    -0.000022679115
       2        0.000000000000    -0.000000000000     0.000061788941


*** tstop() called on Joses-MacBook-Pro-2.local at Thu Jul 17 11:12:40 2025
Module time:
	user time   =       4.02 seconds =       0.07 minutes
	system time =       1.95 seconds =       0.03 minutes
	total time  =          1 seconds =       0.02 minutes
Total time:
	user time   =     365.63 seconds =       6.09 minutes
	system time =      90.23 seconds =       1.50 minutes
	total time  =         49 seconds =       0.82 minutes

    			-----------------------------------------

    			 OPTKING 3.0: for geometry optimizations 

    			     By R.A. King, Bethel University     

    			        with contributions from          

    			    A.V. Copan, J. Cayton, A. Heide      

    			-----------------------------------------

    
	                            ===> Fragment 1 <== 

	 Z (Atomic Numbers)          Masses                          Geom                  
	      11.000000            22.989769          0.00000000  0.00000000  2.66789255   
	      15.000000            30.973762          0.00000000  0.00000000 -1.98019970   

	 - Coordinate -           - BOHR/RAD -       - ANG/DEG -
	 R(1,2)           =         4.648092           2.459664


	        --- Internal Coordinate Step in ANG or DEG, aJ/ANG or AJ/DEG ---
	-------------------------------------------------------------------------------
	           Coordinate      Previous         Force          Change          New 
	           ----------      --------        ------          ------        ------
	               R(1,2)       2.45966        0.00035        0.00038       2.46005
	-------------------------------------------------------------------------------

	                                 ==> Convergence Check <==                                  
    
	Measures of convergence in internal coordinates in au.
    
	Criteria marked as inactive (o), active & met (*), and active & unmet ( ).

	----------------------------------------------------------------------------------------------
	   Step    Total Energy     Delta E     Max Force     RMS Force      Max Disp      RMS Disp   
	----------------------------------------------------------------------------------------------
	  Convergence Criteria     1.00e-06 *    3.00e-04 *             o    1.20e-03 *             o
	----------------------------------------------------------------------------------------------
	    15    -503.59995724   -6.82e-08 *    4.22e-05 *    4.22e-05 o    7.24e-04 *    7.24e-04 o  ~
	----------------------------------------------------------------------------------------------

Next Geometry in Ang 
	Fragment 1 (Ang)

	   Na   0.0000000000   0.0000000000   1.4119794502
	    P   0.0000000000   0.0000000000  -1.0480680655


    Final optimized geometry and variables:
    Molecular point group: c2v
    Full point group: C_inf_v

    Geometry (in Angstrom), charge = -1, multiplicity = 2:

    NA           0.000000000000     0.000000000000     1.411787938298
    P            0.000000000000     0.000000000000    -1.047876553653


    Psi4 stopped on: Thursday, 17 July 2025 11:12AM
    Psi4 wall time for execution: 0:00:49.16

*** Psi4 exiting successfully. Buy a developer a beer!
