
    -----------------------------------------------------------------------
          Psi4: An Open-Source Ab Initio Electronic Structure Package
                               Psi4 1.9.1 release

                         Git: Rev {} zzzzzzz 


    D. G. A. Smith, L. A. Burns, A. C. Simmonett, R. M. Parrish,
    M. C. Schieber, R. Galvelis, P. Kraus, H. Kruse, R. Di Remigio,
    A. Alenaizan, A. M. James, S. Lehtola, J. P. Misiewicz, M. Scheurer,
    R. A. Shaw, J. B. Schriber, Y. Xie, Z. L. Glick, D. A. Sirianni,
    J. S. O'Brien, J. M. Waldrop, A. Kumar, E. G. Hohenstein,
    B. P. Pritchard, B. R. Brooks, H. F. Schaefer III, A. Yu. Sokolov,
    K. Patkowski, A. E. DePrince III, U. Bozkaya, R. A. King,
    F. A. Evangelista, J. M. Turney, T. D. Crawford, C. D. Sherrill,
    J. Chem. Phys. 152(18) 184108 (2020). https://doi.org/10.1063/5.0006002

                            Additional Code Authors
    E. T. Seidl, C. L. Janssen, E. F. Valeev, M. L. Leininger,
    J. F. Gonthier, R. M. Richard, H. R. McAlexander, M. Saitow, X. Wang,
    P. Verma, M. H. Lechner, A. Jiang, S. Behnle, A. G. Heide,
    M. F. Herbst, and D. L. Poole

             Previous Authors, Complete List of Code Contributors,
                       and Citations for Specific Modules
    https://github.com/psi4/psi4/blob/master/codemeta.json
    https://github.com/psi4/psi4/graphs/contributors
    http://psicode.org/psi4manual/master/introduction.html#citing-psifour

    -----------------------------------------------------------------------


    Psi4 started on: Thursday, 17 July 2025 09:28AM

    Process ID: 71942
    Host:       Joses-MacBook-Pro-2.local
    PSIDATADIR: /Users/joseantoniorodriguesromero/anaconda3/share/psi4
    Memory:     500.0 MiB
    Threads:    1
    
  ==> Input File <==

--------------------------------------------------------------------------
molecule { 
-1 2
Li   0.00000        0.60000        0.00000
N   0.00000       -0.60000        0.00000
}

set { 
basis              cc-pvdz
reference          uks
maxiter            500
geom_maxiter       500
DAMPING_PERCENTAGE 1
guess              SAP
}

optimize('b3lyp')
--------------------------------------------------------------------------

Scratch directory: /tmp/
gradient() will perform analytic gradient computation.
   => Libint2 <=

    Primary   basis highest AM E, G, H:  6, 6, 3
    Auxiliary basis highest AM E, G, H:  7, 7, 4
    Onebody   basis highest AM E, G, H:  -, -, -
    Solid Harmonics ordering:            Gaussian

*** tstart() called on Joses-MacBook-Pro-2.local
*** at Thu Jul 17 09:28:58 2025

   => Loading Basis Set <=

    Name: CC-PVDZ
    Role: ORBITAL
    Keyword: BASIS
    atoms 1 entry LI         line    42 file /Users/joseantoniorodriguesromero/anaconda3/share/psi4/basis/cc-pvdz.gbs 
    atoms 2 entry N          line   168 file /Users/joseantoniorodriguesromero/anaconda3/share/psi4/basis/cc-pvdz.gbs 


         ---------------------------------------------------------
                                   SCF
               by Justin Turney, Rob Parrish, Andy Simmonett
                          and Daniel G. A. Smith
                              UKS Reference
                        1 Threads,    500 MiB Core
         ---------------------------------------------------------

  ==> Geometry <==

    Molecular point group: c2v
    Full point group: C_inf_v

    Geometry (in Angstrom), charge = -1, multiplicity = 2:

       Center              X                  Y                   Z               Mass       
    ------------   -----------------  -----------------  -----------------  -----------------
         LI           0.000000000000     0.000000000000     0.799449397932     7.016003436600
         N            0.000000000000     0.000000000000    -0.400550602068    14.003074004430

  Running in c2v symmetry.

  Rotational constants: A = ************  B =      2.50458  C =      2.50458 [cm^-1]
  Rotational constants: A = ************  B =  75085.34497  C =  75085.34497 [MHz]
  Nuclear repulsion =    9.260601186725001

  Charge       = -1
  Multiplicity = 2
  Electrons    = 11
  Nalpha       = 6
  Nbeta        = 5

  ==> Algorithm <==

  SCF Algorithm Type is DF.
  DIIS enabled.
  MOM disabled.
  Fractional occupation disabled.
  Guess Type is SAP.
  Energy threshold   = 1.00e-08
  Density threshold  = 1.00e-08
  Integral threshold = 1.00e-12

  ==> Primary Basis <==

  Basis Set: CC-PVDZ
    Blend: CC-PVDZ
    Number of shells: 12
    Number of basis functions: 28
    Number of Cartesian functions: 30
    Spherical Harmonics?: true
    Max angular momentum: 2

  ==> DFT Potential <==

   => LibXC <=

    Version 6.2.2
    S. Lehtola, C. Steigemann, M. J.T. Oliveira, and M. A.L. Marques.,  SoftwareX 7, 1–5 (2018) (10.1016/j.softx.2017.11.002)

   => Composite Functional: B3LYP <= 

    B3LYP Hyb-GGA Exchange-Correlation Functional

    P. J. Stephens, F. J. Devlin, C. F. Chabalowski, and M. J. Frisch.,  J. Phys. Chem. 98, 11623 (1994) (10.1021/j100096a001)

    Deriv               =              1
    GGA                 =           TRUE
    Meta                =          FALSE

    Exchange Hybrid     =           TRUE
    MP2 Hybrid          =          FALSE

   => Exchange Functionals <=

    0.0800   Slater exchange
    0.7200         Becke 88

   => Exact (HF) Exchange <=

    0.2000               HF 

   => Correlation Functionals <=

    0.1900   Vosko, Wilk & Nusair (VWN5_RPA)
    0.8100   Lee, Yang & Parr

   => LibXC Density Thresholds  <==

    XC_HYB_GGA_XC_B3LYP:  1.00E-15 

   => Molecular Quadrature <=

    Radial Scheme          =       TREUTLER
    Pruning Scheme         =           NONE
    Nuclear Scheme         =       TREUTLER

    Blocking Scheme        =         OCTREE
    BS radius alpha        =              1
    Pruning alpha          =              1
    Radial Points          =             75
    Spherical Points       =            302
    Total Points           =          44244
    Total Blocks           =            423
    Max Points             =            254
    Max Functions          =             28
    Weights Tolerance      =       1.00E-15

   => Loading Basis Set <=

    Name: (CC-PVDZ AUX)
    Role: JKFIT
    Keyword: DF_BASIS_SCF
    atoms 1 entry LI         line    54 file /Users/joseantoniorodriguesromero/anaconda3/share/psi4/basis/def2-universal-jkfit.gbs 
    atoms 2 entry N          line   171 file /Users/joseantoniorodriguesromero/anaconda3/share/psi4/basis/cc-pvdz-jkfit.gbs 

  ==> Integral Setup <==

  DFHelper Memory: AOs need 0.001 GiB; user supplied 0.332 GiB. 
  Using in-core AOs.

  ==> MemDFJK: Density-Fitted J/K Matrices <==

    J tasked:                   Yes
    K tasked:                   Yes
    wK tasked:                   No
    OpenMP threads:               1
    Memory [MiB]:               339
    Algorithm:                 Core
    Schwarz Cutoff:           1E-12
    Mask sparsity (%):       0.0000
    Fitting Condition:        1E-10

   => Auxiliary Basis Set <=

  Basis Set: (CC-PVDZ AUX)
    Blend: CC-PVDZ-JKFIT + DEF2-UNIVERSAL-JKFIT
    Number of shells: 41
    Number of basis functions: 121
    Number of Cartesian functions: 141
    Spherical Harmonics?: true
    Max angular momentum: 3

  Cached 100.0% of DFT collocation blocks in 0.034 [GiB].

  Minimum eigenvalue in the overlap matrix is 8.5173013866E-03.
  Reciprocal condition number of the overlap matrix is 2.9976121265E-03.
    Using symmetric orthogonalization.

  ==> Pre-Iterations <==

  SCF Guess: Superposition of Atomic Potentials (doi:10.1021/acs.jctc.8b01089).

  ==> SAP guess <==

   => Molecular Quadrature <=

    Radial Scheme          =       TREUTLER
    Pruning Scheme         =           NONE
    Nuclear Scheme         =       TREUTLER

    Blocking Scheme        =         OCTREE
    BS radius alpha        =              1
    Pruning alpha          =              1
    Radial Points          =             75
    Spherical Points       =            302
    Total Points           =          44244
    Total Blocks           =            423
    Max Points             =            254
    Max Functions          =             28
    Weights Tolerance      =       1.00E-15

   -------------------------------------------------------
    Irrep   Nso     Nmo     Nalpha   Nbeta   Ndocc  Nsocc
   -------------------------------------------------------
     A1        14      14       4       3       3       1
     A2         2       2       0       0       0       0
     B1         6       6       1       1       1       0
     B2         6       6       1       1       1       0
   -------------------------------------------------------
    Total      28      28       6       5       5       1
   -------------------------------------------------------

  ==> Iterations <==

                           Total Energy        Delta E     RMS |[F,P]|

    Occupation by irrep:
             A1    A2    B1    B2 
    DOCC [     4,    0,    1,    0 ]
    SOCC [     0,    0,    0,    1 ]
    NA   [     4,    0,    1,    1 ]
    NB   [     4,    0,    1,    0 ]

   @DF-UKS iter   1:   -61.45027160741174   -6.14503e+01   5.69931e-02 DIIS/ADIIS
    Occupation by irrep:
             A1    A2    B1    B2 
    DOCC [     3,    0,    1,    1 ]
    SOCC [     1,    0,    0,    0 ]
    NA   [     4,    0,    1,    1 ]
    NB   [     3,    0,    1,    1 ]

   @DF-UKS iter   2:   -57.01546088951763    4.43481e+00   9.72541e-02 DIIS/ADIIS/DAMP=1%
   @DF-UKS iter   3:   -61.68778485022507   -4.67232e+00   3.79256e-02 DIIS/ADIIS/DAMP=1%
   @DF-UKS iter   4:   -61.97792922887582   -2.90144e-01   3.38609e-03 DIIS/ADIIS/DAMP=1%
   @DF-UKS iter   5:   -62.00610962575958   -2.81804e-02   4.63635e-03 DIIS/ADIIS/DAMP=1%
   @DF-UKS iter   6:   -62.00228542422015    3.82420e-03   6.63133e-04 DIIS/ADIIS/DAMP=1%
   @DF-UKS iter   7:   -62.00608049933788   -3.79508e-03   1.77694e-04 DIIS/ADIIS/DAMP=1%
   @DF-UKS iter   8:   -62.00565911299223    4.21386e-04   1.29799e-04 DIIS/ADIIS/DAMP=1%
   @DF-UKS iter   9:   -62.00588782425857   -2.28711e-04   1.07139e-04 DIIS/ADIIS/DAMP=1%
   @DF-UKS iter  10:   -62.00571086748060    1.76957e-04   3.57779e-05 DIIS/DAMP=1%
   @DF-UKS iter  11:   -62.00571786455757   -6.99708e-06   2.17377e-06 DIIS/DAMP=1%
   @DF-UKS iter  12:   -62.00574259835811   -2.47338e-05   5.36430e-07 DIIS/DAMP=1%
   @DF-UKS iter  13:   -62.00574247341879    1.24939e-07   8.97509e-08 DIIS/DAMP=1%
   @DF-UKS iter  14:   -62.00574232088399    1.52535e-07   2.87541e-08 DIIS/DAMP=1%
   @DF-UKS iter  15:   -62.00574223277928    8.81047e-08   9.15768e-09 DIIS/DAMP=1%
   @DF-UKS iter  16:   -62.00574224713477   -1.43555e-08   2.63093e-09 DIIS/DAMP=1%
   @DF-UKS iter  17:   -62.00574224986166   -2.72689e-09   7.55273e-10 DIIS/DAMP=1%
  Energy and wave function converged.


  ==> Post-Iterations <==

   Electrons on quadrature grid:
      Nalpha   =    5.9999996679 ; deviation = -3.321e-07
      Nbeta    =    4.9999997102 ; deviation = -2.898e-07
      Ntotal   =   10.9999993781 ; deviation = -6.219e-07 

   @Spin Contamination Metric:   5.417077481E-02
   @S^2 Expected:                7.500000000E-01
   @S^2 Observed:                8.041707748E-01
   @S   Expected:                5.000000000E-01
   @S   Observed:                5.000000000E-01

    Orbital Energies [Eh]
    ---------------------

    Alpha Occupied:                                                       

       1A1   -14.023471     2A1    -1.767630     3A1    -0.409141  
       1B2     0.016056     1B1     0.016056     4A1     0.022025  

    Alpha Virtual:                                                        

       5A1     0.103615     2B2     0.146987     2B1     0.146987  
       6A1     0.174190     7A1     0.254063     3B2     0.323185  
       3B1     0.323185     8A1     0.423451     9A1     0.442822  
       1A2     0.442822     4B2     0.516827     4B1     0.516827  
      10A1     0.604699    11A1     1.190410     5B2     1.239212  
       5B1     1.239212    12A1     1.697560     6B2     2.052669  
       6B1     2.052669    13A1     2.106123     2A2     2.106124  
      14A1     2.139108  

    Beta Occupied:                                                        

       1A1   -13.998712     2A1    -1.752087     3A1    -0.330744  
       1B1     0.047237     1B2     0.047237  

    Beta Virtual:                                                         

       4A1     0.101731     2B1     0.150359     2B2     0.150359  
       5A1     0.157083     6A1     0.239972     7A1     0.263651  
       3B2     0.325913     3B1     0.325913     1A2     0.437876  
       8A1     0.437876     9A1     0.445195     4B2     0.522698  
       4B1     0.522698    10A1     0.616446     5B1     1.264222  
       5B2     1.264222    11A1     1.266415    12A1     1.735516  
       6B1     2.124956     6B2     2.124956    13A1     2.132301  
       2A2     2.132302    14A1     2.221494  

    Final Occupation by Irrep:
             A1    A2    B1    B2 
    DOCC [     3,    0,    1,    1 ]
    SOCC [     1,    0,    0,    0 ]
    NA   [     4,    0,    1,    1 ]
    NB   [     3,    0,    1,    1 ]

  @DF-UKS Final Energy:   -62.00574224986166

   => Energetics <=

    Nuclear Repulsion Energy =              9.2606011867250011
    One-Electron Energy =                -105.1498300773989740
    Two-Electron Energy =                  41.1676818552831563
    DFT Exchange-Correlation Energy =      -7.2841952144708433
    Empirical Dispersion Energy =           0.0000000000000000
    VV10 Nonlocal Energy =                  0.0000000000000000
    Total Energy =                        -62.0057422498616617

  UHF NO Occupations:
  HONO-2 :    1 B1 1.9868910
  HONO-1 :    1 B2 1.9868910
  HONO-0 :    4 A1 1.0000000
  LUNO+0 :    2 B2 0.0131090
  LUNO+1 :    2 B1 0.0131090
  LUNO+2 :    5 A1 0.0010318
  LUNO+3 :    6 A1 0.0000077


Computation Completed


Properties will be evaluated at   0.000000,   0.000000,   0.000000 [a0]

Properties computed using the SCF density matrix


 Multipole Moments:

 ------------------------------------------------------------------------------------
     Multipole            Electronic (a.u.)      Nuclear  (a.u.)        Total (a.u.)
 ------------------------------------------------------------------------------------

 L = 1.  Multiply by 2.5417464519 to convert [e a0] to [Debye]
 Dipole X            :          0.0000000            0.0000000            0.0000000
 Dipole Y            :          0.0000000            0.0000000            0.0000000
 Dipole Z            :          1.8795520           -0.7662953            1.1132567
 Magnitude           :                                                    1.1132567

 ------------------------------------------------------------------------------------

*** tstop() called on Joses-MacBook-Pro-2.local at Thu Jul 17 09:28:59 2025
Module time:
	user time   =       5.60 seconds =       0.09 minutes
	system time =       4.94 seconds =       0.08 minutes
	total time  =          1 seconds =       0.02 minutes
Total time:
	user time   =       5.60 seconds =       0.09 minutes
	system time =       4.94 seconds =       0.08 minutes
	total time  =          1 seconds =       0.02 minutes

*** tstart() called on Joses-MacBook-Pro-2.local
*** at Thu Jul 17 09:28:59 2025


         ------------------------------------------------------------
                                   SCF GRAD                          
                          Rob Parrish, Justin Turney,                
                       Andy Simmonett, and Alex Sokolov              
         ------------------------------------------------------------

  ==> Geometry <==

    Molecular point group: c2v
    Full point group: C_inf_v

    Geometry (in Angstrom), charge = -1, multiplicity = 2:

       Center              X                  Y                   Z               Mass       
    ------------   -----------------  -----------------  -----------------  -----------------
         LI           0.000000000000     0.000000000000     0.799449397932     7.016003436600
         N            0.000000000000     0.000000000000    -0.400550602068    14.003074004430

  Nuclear repulsion =    9.260601186725001

  ==> Basis Set <==

  Basis Set: CC-PVDZ
    Blend: CC-PVDZ
    Number of shells: 12
    Number of basis functions: 28
    Number of Cartesian functions: 30
    Spherical Harmonics?: true
    Max angular momentum: 2

  ==> DFJKGrad: Density-Fitted SCF Gradients <==

    Gradient:                    1
    J tasked:                  Yes
    K tasked:                  Yes
    wK tasked:                  No
    OpenMP threads:              1
    Integrals threads:           1
    Memory [MiB]:              375
    Schwarz Cutoff:          1E-12
    Fitting Condition:       1E-10

   => Auxiliary Basis Set <=

  Basis Set: (CC-PVDZ AUX)
    Blend: CC-PVDZ-JKFIT + DEF2-UNIVERSAL-JKFIT
    Number of shells: 41
    Number of basis functions: 121
    Number of Cartesian functions: 141
    Spherical Harmonics?: true
    Max angular momentum: 3

  ==> DFT Potential <==

   => LibXC <=

    Version 6.2.2
    S. Lehtola, C. Steigemann, M. J.T. Oliveira, and M. A.L. Marques.,  SoftwareX 7, 1–5 (2018) (10.1016/j.softx.2017.11.002)

   => Composite Functional: B3LYP <= 

    B3LYP Hyb-GGA Exchange-Correlation Functional

    P. J. Stephens, F. J. Devlin, C. F. Chabalowski, and M. J. Frisch.,  J. Phys. Chem. 98, 11623 (1994) (10.1021/j100096a001)

    Deriv               =              1
    GGA                 =           TRUE
    Meta                =          FALSE

    Exchange Hybrid     =           TRUE
    MP2 Hybrid          =          FALSE

   => Exchange Functionals <=

    0.0800   Slater exchange
    0.7200         Becke 88

   => Exact (HF) Exchange <=

    0.2000               HF 

   => Correlation Functionals <=

    0.1900   Vosko, Wilk & Nusair (VWN5_RPA)
    0.8100   Lee, Yang & Parr

   => LibXC Density Thresholds  <==

    XC_HYB_GGA_XC_B3LYP:  1.00E-15 

   => Molecular Quadrature <=

    Radial Scheme          =       TREUTLER
    Pruning Scheme         =           NONE
    Nuclear Scheme         =       TREUTLER

    Blocking Scheme        =         OCTREE
    BS radius alpha        =              1
    Pruning alpha          =              1
    Radial Points          =             75
    Spherical Points       =            302
    Total Points           =          44244
    Total Blocks           =            423
    Max Points             =            254
    Max Functions          =             28
    Weights Tolerance      =       1.00E-15


  -Total Gradient:
     Atom            X                  Y                   Z
    ------   -----------------  -----------------  -----------------
       1        0.000000000000     0.000000000000    -0.389101627611
       2        0.000000000000     0.000000000000     0.389173725154


*** tstop() called on Joses-MacBook-Pro-2.local at Thu Jul 17 09:28:59 2025
Module time:
	user time   =       0.89 seconds =       0.01 minutes
	system time =       1.25 seconds =       0.02 minutes
	total time  =          0 seconds =       0.00 minutes
Total time:
	user time   =       6.49 seconds =       0.11 minutes
	system time =       6.20 seconds =       0.10 minutes
	total time  =          1 seconds =       0.02 minutes

    			-----------------------------------------

    			 OPTKING 3.0: for geometry optimizations 

    			     By R.A. King, Bethel University     

    			        with contributions from          

    			    A.V. Copan, J. Cayton, A. Heide      

    			-----------------------------------------

    
	                            ===> Fragment 1 <== 

	 Z (Atomic Numbers)          Masses                          Geom                  
	       3.000000             7.016003          0.00000000  0.00000000  1.51074041   
	       7.000000            14.003074          0.00000000  0.00000000 -0.75693094   

	 - Coordinate -           - BOHR/RAD -       - ANG/DEG -
	 R(1,2)           =         2.267671           1.200000


	        --- Internal Coordinate Step in ANG or DEG, aJ/ANG or AJ/DEG ---
	-------------------------------------------------------------------------------
	           Coordinate      Previous         Force          Change          New 
	           ----------      --------        ------          ------        ------
	               R(1,2)       1.20000        3.20600        0.17497       1.37497
	-------------------------------------------------------------------------------

	                                 ==> Convergence Check <==                                  
    
	Measures of convergence in internal coordinates in au.
    
	Criteria marked as inactive (o), active & met (*), and active & unmet ( ).

	----------------------------------------------------------------------------------------------
	   Step    Total Energy     Delta E     Max Force     RMS Force      Max Disp      RMS Disp   
	----------------------------------------------------------------------------------------------
	  Convergence Criteria     1.00e-06 *    3.00e-04 *             o    1.20e-03 *             o
	----------------------------------------------------------------------------------------------
	     1     -62.00574225   -6.20e+01      3.89e-01      3.89e-01 o    3.31e-01      3.31e-01 o  ~
	----------------------------------------------------------------------------------------------

Next Geometry in Ang 
	Fragment 1 (Ang)

	   Li   0.0000000000   0.0000000000   0.8869348110
	    N   0.0000000000   0.0000000000  -0.4880360152


    Structure for next step:
    Molecular point group: c2v
    Full point group: C_inf_v

    Geometry (in Angstrom), charge = -1, multiplicity = 2:

    LI           0.000000000000     0.000000000000     0.916016332642
    N            0.000000000000     0.000000000000    -0.458954493546


Scratch directory: /tmp/
gradient() will perform analytic gradient computation.
   => Libint2 <=

    Primary   basis highest AM E, G, H:  6, 6, 3
    Auxiliary basis highest AM E, G, H:  7, 7, 4
    Onebody   basis highest AM E, G, H:  -, -, -
    Solid Harmonics ordering:            Gaussian

*** tstart() called on Joses-MacBook-Pro-2.local
*** at Thu Jul 17 09:28:59 2025

   => Loading Basis Set <=

    Name: CC-PVDZ
    Role: ORBITAL
    Keyword: BASIS
    atoms 1 entry LI         line    42 file /Users/joseantoniorodriguesromero/anaconda3/share/psi4/basis/cc-pvdz.gbs 
    atoms 2 entry N          line   168 file /Users/joseantoniorodriguesromero/anaconda3/share/psi4/basis/cc-pvdz.gbs 


         ---------------------------------------------------------
                                   SCF
               by Justin Turney, Rob Parrish, Andy Simmonett
                          and Daniel G. A. Smith
                              UKS Reference
                        1 Threads,    500 MiB Core
         ---------------------------------------------------------

  ==> Geometry <==

    Molecular point group: c2v
    Full point group: C_inf_v

    Geometry (in Angstrom), charge = -1, multiplicity = 2:

       Center              X                  Y                   Z               Mass       
    ------------   -----------------  -----------------  -----------------  -----------------
         LI           0.000000000000     0.000000000000     0.916016332642     7.016003436600
         N            0.000000000000     0.000000000000    -0.458954493546    14.003074004430

  Running in c2v symmetry.

  Rotational constants: A = ************  B =      1.90770  C =      1.90770 [cm^-1]
  Rotational constants: A = ************  B =  57191.39706  C =  57191.39706 [MHz]
  Nuclear repulsion =    8.082150699063877

  Charge       = -1
  Multiplicity = 2
  Electrons    = 11
  Nalpha       = 6
  Nbeta        = 5

  ==> Algorithm <==

  SCF Algorithm Type is DF.
  DIIS enabled.
  MOM disabled.
  Fractional occupation disabled.
  Guess Type is READ.
  Energy threshold   = 1.00e-08
  Density threshold  = 1.00e-08
  Integral threshold = 1.00e-12

  ==> Primary Basis <==

  Basis Set: CC-PVDZ
    Blend: CC-PVDZ
    Number of shells: 12
    Number of basis functions: 28
    Number of Cartesian functions: 30
    Spherical Harmonics?: true
    Max angular momentum: 2

  ==> DFT Potential <==

   => LibXC <=

    Version 6.2.2
    S. Lehtola, C. Steigemann, M. J.T. Oliveira, and M. A.L. Marques.,  SoftwareX 7, 1–5 (2018) (10.1016/j.softx.2017.11.002)

   => Composite Functional: B3LYP <= 

    B3LYP Hyb-GGA Exchange-Correlation Functional

    P. J. Stephens, F. J. Devlin, C. F. Chabalowski, and M. J. Frisch.,  J. Phys. Chem. 98, 11623 (1994) (10.1021/j100096a001)

    Deriv               =              1
    GGA                 =           TRUE
    Meta                =          FALSE

    Exchange Hybrid     =           TRUE
    MP2 Hybrid          =          FALSE

   => Exchange Functionals <=

    0.0800   Slater exchange
    0.7200         Becke 88

   => Exact (HF) Exchange <=

    0.2000               HF 

   => Correlation Functionals <=

    0.1900   Vosko, Wilk & Nusair (VWN5_RPA)
    0.8100   Lee, Yang & Parr

   => LibXC Density Thresholds  <==

    XC_HYB_GGA_XC_B3LYP:  1.00E-15 

   => Molecular Quadrature <=

    Radial Scheme          =       TREUTLER
    Pruning Scheme         =           NONE
    Nuclear Scheme         =       TREUTLER

    Blocking Scheme        =         OCTREE
    BS radius alpha        =              1
    Pruning alpha          =              1
    Radial Points          =             75
    Spherical Points       =            302
    Total Points           =          44252
    Total Blocks           =            420
    Max Points             =            252
    Max Functions          =             28
    Weights Tolerance      =       1.00E-15

   => Loading Basis Set <=

    Name: (CC-PVDZ AUX)
    Role: JKFIT
    Keyword: DF_BASIS_SCF
    atoms 1 entry LI         line    54 file /Users/joseantoniorodriguesromero/anaconda3/share/psi4/basis/def2-universal-jkfit.gbs 
    atoms 2 entry N          line   171 file /Users/joseantoniorodriguesromero/anaconda3/share/psi4/basis/cc-pvdz-jkfit.gbs 

   => Loading Basis Set <=

    Name: CC-PVDZ
    Role: ORBITAL
    Keyword: BASIS
    atoms 1 entry LI         line    42 file /Users/joseantoniorodriguesromero/anaconda3/share/psi4/basis/cc-pvdz.gbs 
    atoms 2 entry N          line   168 file /Users/joseantoniorodriguesromero/anaconda3/share/psi4/basis/cc-pvdz.gbs 

  Reading orbitals from file /tmp/doublet_LiN.default.71942.180.npy, no projection.

  ==> Integral Setup <==

  DFHelper Memory: AOs need 0.001 GiB; user supplied 0.332 GiB. 
  Using in-core AOs.

  ==> MemDFJK: Density-Fitted J/K Matrices <==

    J tasked:                   Yes
    K tasked:                   Yes
    wK tasked:                   No
    OpenMP threads:               1
    Memory [MiB]:               339
    Algorithm:                 Core
    Schwarz Cutoff:           1E-12
    Mask sparsity (%):       0.0000
    Fitting Condition:        1E-10

   => Auxiliary Basis Set <=

  Basis Set: (CC-PVDZ AUX)
    Blend: CC-PVDZ-JKFIT + DEF2-UNIVERSAL-JKFIT
    Number of shells: 41
    Number of basis functions: 121
    Number of Cartesian functions: 141
    Spherical Harmonics?: true
    Max angular momentum: 3

  Cached 100.0% of DFT collocation blocks in 0.034 [GiB].

  Minimum eigenvalue in the overlap matrix is 8.3251907568E-03.
  Reciprocal condition number of the overlap matrix is 2.9248621672E-03.
    Using symmetric orthogonalization.

  ==> Pre-Iterations <==

  SCF Guess: Orbitals guess was supplied from a previous computation.

   -------------------------------------------------------
    Irrep   Nso     Nmo     Nalpha   Nbeta   Ndocc  Nsocc
   -------------------------------------------------------
     A1        14      14       4       3       3       1
     A2         2       2       0       0       0       0
     B1         6       6       1       1       1       0
     B2         6       6       1       1       1       0
   -------------------------------------------------------
    Total      28      28       6       5       5       1
   -------------------------------------------------------

  ==> Iterations <==

                           Total Energy        Delta E     RMS |[F,P]|

   @DF-UKS iter   0:   -62.07858587454348   -6.20786e+01   1.13071e-02 
   @DF-UKS iter   1:   -62.07236324176683    6.22263e-03   1.07077e-02 DIIS/ADIIS
   @DF-UKS iter   2:   -61.93424953002405    1.38114e-01   3.06320e-02 DIIS/ADIIS/DAMP=1%
   @DF-UKS iter   3:   -62.10193886256025   -1.67689e-01   4.86665e-03 DIIS/ADIIS/DAMP=1%
   @DF-UKS iter   4:   -62.09652144581984    5.41742e-03   6.29750e-04 DIIS/ADIIS/DAMP=1%
   @DF-UKS iter   5:   -62.09249726627439    4.02418e-03   1.09538e-04 DIIS/ADIIS/DAMP=1%
   @DF-UKS iter   6:   -62.09298690258733   -4.89636e-04   1.08647e-04 DIIS/ADIIS/DAMP=1%
   @DF-UKS iter   7:   -62.09288701287728    9.98897e-05   4.66892e-05 DIIS/DAMP=1%
   @DF-UKS iter   8:   -62.09288409634780    2.91653e-06   4.21201e-06 DIIS/DAMP=1%
   @DF-UKS iter   9:   -62.09289480821243   -1.07119e-05   9.26269e-07 DIIS/DAMP=1%
   @DF-UKS iter  10:   -62.09289292039686    1.88782e-06   3.44408e-07 DIIS/DAMP=1%
   @DF-UKS iter  11:   -62.09289203519690    8.85200e-07   3.24688e-08 DIIS/DAMP=1%
   @DF-UKS iter  12:   -62.09289229452509   -2.59328e-07   1.11001e-09 DIIS/DAMP=1%
   @DF-UKS iter  13:   -62.09289227691067    1.76144e-08   5.98805e-10 DIIS/DAMP=1%
   @DF-UKS iter  14:   -62.09289227741296   -5.02297e-10   4.67514e-11 DIIS/DAMP=1%
  Energy and wave function converged.


  ==> Post-Iterations <==

   Electrons on quadrature grid:
      Nalpha   =    6.0000001344 ; deviation = 1.344e-07
      Nbeta    =    5.0000002611 ; deviation = 2.611e-07
      Ntotal   =   11.0000003955 ; deviation = 3.955e-07 

   @Spin Contamination Metric:   1.282547679E-01
   @S^2 Expected:                7.500000000E-01
   @S^2 Observed:                8.782547679E-01
   @S   Expected:                5.000000000E-01
   @S   Observed:                5.000000000E-01

    Orbital Energies [Eh]
    ---------------------

    Alpha Occupied:                                                       

       1A1   -14.051257     2A1    -1.759944     3A1    -0.437449  
       4A1    -0.018697     1B2     0.011677     1B1     0.011677  

    Alpha Virtual:                                                        

       5A1     0.098167     2B2     0.141958     2B1     0.141958  
       6A1     0.167679     7A1     0.249212     3B1     0.300519  
       3B2     0.300519     8A1     0.409261     1A2     0.434367  
       9A1     0.434367     4B2     0.507952     4B1     0.507952  
      10A1     0.592875    11A1     1.143744     5B2     1.194198  
       5B1     1.194198    12A1     1.714425    13A1     2.023785  
       6B2     2.064594     6B1     2.064594     2A2     2.087025  
      14A1     2.087028  

    Beta Occupied:                                                        

       1A1   -14.024348     2A1    -1.750901     3A1    -0.347665  
       1B1     0.053149     1B2     0.053149  

    Beta Virtual:                                                         

       4A1     0.094300     2B1     0.148521     2B2     0.148521  
       5A1     0.153023     6A1     0.205442     7A1     0.255636  
       3B1     0.303619     3B2     0.303619     8A1     0.425192  
       1A2     0.427902     9A1     0.427902     4B2     0.515023  
       4B1     0.515023    10A1     0.604553     5B2     1.225176  
       5B1     1.225176    11A1     1.226236    12A1     1.753697  
      13A1     2.121606     2A2     2.123962    14A1     2.123965  
       6B1     2.145854     6B2     2.145854  

    Final Occupation by Irrep:
             A1    A2    B1    B2 
    DOCC [     3,    0,    1,    1 ]
    SOCC [     1,    0,    0,    0 ]
    NA   [     4,    0,    1,    1 ]
    NB   [     3,    0,    1,    1 ]

  @DF-UKS Final Energy:   -62.09289227741296

   => Energetics <=

    Nuclear Repulsion Energy =              8.0821506990638774
    One-Electron Energy =                -102.8796819471907042
    Two-Electron Energy =                  39.9322170291617908
    DFT Exchange-Correlation Energy =      -7.2275780584479268
    Empirical Dispersion Energy =           0.0000000000000000
    VV10 Nonlocal Energy =                  0.0000000000000000
    Total Energy =                        -62.0928922774129646

  UHF NO Occupations:
  HONO-2 :    1 B1 1.9679635
  HONO-1 :    1 B2 1.9679635
  HONO-0 :    4 A1 1.0000000
  LUNO+0 :    2 B2 0.0320365
  LUNO+1 :    2 B1 0.0320365
  LUNO+2 :    5 A1 0.0010783
  LUNO+3 :    6 A1 0.0000028


Computation Completed


Properties will be evaluated at   0.000000,   0.000000,   0.000000 [a0]

Properties computed using the SCF density matrix


 Multipole Moments:

 ------------------------------------------------------------------------------------
     Multipole            Electronic (a.u.)      Nuclear  (a.u.)        Total (a.u.)
 ------------------------------------------------------------------------------------

 L = 1.  Multiply by 2.5417464519 to convert [e a0] to [Debye]
 Dipole X            :          0.0000000            0.0000000            0.0000000
 Dipole Y            :          0.0000000            0.0000000            0.0000000
 Dipole Z            :          1.7990415           -0.8780281            0.9210134
 Magnitude           :                                                    0.9210134

 ------------------------------------------------------------------------------------

*** tstop() called on Joses-MacBook-Pro-2.local at Thu Jul 17 09:29:00 2025
Module time:
	user time   =       4.74 seconds =       0.08 minutes
	system time =       4.65 seconds =       0.08 minutes
	total time  =          1 seconds =       0.02 minutes
Total time:
	user time   =      11.27 seconds =       0.19 minutes
	system time =      11.08 seconds =       0.18 minutes
	total time  =          2 seconds =       0.03 minutes

*** tstart() called on Joses-MacBook-Pro-2.local
*** at Thu Jul 17 09:29:00 2025


         ------------------------------------------------------------
                                   SCF GRAD                          
                          Rob Parrish, Justin Turney,                
                       Andy Simmonett, and Alex Sokolov              
         ------------------------------------------------------------

  ==> Geometry <==

    Molecular point group: c2v
    Full point group: C_inf_v

    Geometry (in Angstrom), charge = -1, multiplicity = 2:

       Center              X                  Y                   Z               Mass       
    ------------   -----------------  -----------------  -----------------  -----------------
         LI           0.000000000000     0.000000000000     0.916016332642     7.016003436600
         N            0.000000000000     0.000000000000    -0.458954493546    14.003074004430

  Nuclear repulsion =    8.082150699063877

  ==> Basis Set <==

  Basis Set: CC-PVDZ
    Blend: CC-PVDZ
    Number of shells: 12
    Number of basis functions: 28
    Number of Cartesian functions: 30
    Spherical Harmonics?: true
    Max angular momentum: 2

  ==> DFJKGrad: Density-Fitted SCF Gradients <==

    Gradient:                    1
    J tasked:                  Yes
    K tasked:                  Yes
    wK tasked:                  No
    OpenMP threads:              1
    Integrals threads:           1
    Memory [MiB]:              375
    Schwarz Cutoff:          1E-12
    Fitting Condition:       1E-10

   => Auxiliary Basis Set <=

  Basis Set: (CC-PVDZ AUX)
    Blend: CC-PVDZ-JKFIT + DEF2-UNIVERSAL-JKFIT
    Number of shells: 41
    Number of basis functions: 121
    Number of Cartesian functions: 141
    Spherical Harmonics?: true
    Max angular momentum: 3

  ==> DFT Potential <==

   => LibXC <=

    Version 6.2.2
    S. Lehtola, C. Steigemann, M. J.T. Oliveira, and M. A.L. Marques.,  SoftwareX 7, 1–5 (2018) (10.1016/j.softx.2017.11.002)

   => Composite Functional: B3LYP <= 

    B3LYP Hyb-GGA Exchange-Correlation Functional

    P. J. Stephens, F. J. Devlin, C. F. Chabalowski, and M. J. Frisch.,  J. Phys. Chem. 98, 11623 (1994) (10.1021/j100096a001)

    Deriv               =              1
    GGA                 =           TRUE
    Meta                =          FALSE

    Exchange Hybrid     =           TRUE
    MP2 Hybrid          =          FALSE

   => Exchange Functionals <=

    0.0800   Slater exchange
    0.7200         Becke 88

   => Exact (HF) Exchange <=

    0.2000               HF 

   => Correlation Functionals <=

    0.1900   Vosko, Wilk & Nusair (VWN5_RPA)
    0.8100   Lee, Yang & Parr

   => LibXC Density Thresholds  <==

    XC_HYB_GGA_XC_B3LYP:  1.00E-15 

   => Molecular Quadrature <=

    Radial Scheme          =       TREUTLER
    Pruning Scheme         =           NONE
    Nuclear Scheme         =       TREUTLER

    Blocking Scheme        =         OCTREE
    BS radius alpha        =              1
    Pruning alpha          =              1
    Radial Points          =             75
    Spherical Points       =            302
    Total Points           =          44252
    Total Blocks           =            420
    Max Points             =            252
    Max Functions          =             28
    Weights Tolerance      =       1.00E-15


  -Total Gradient:
     Atom            X                  Y                   Z
    ------   -----------------  -----------------  -----------------
       1        0.000000000000     0.000000000000    -0.161617560316
       2       -0.000000000000     0.000000000000     0.161641098021


*** tstop() called on Joses-MacBook-Pro-2.local at Thu Jul 17 09:29:00 2025
Module time:
	user time   =       0.61 seconds =       0.01 minutes
	system time =       1.35 seconds =       0.02 minutes
	total time  =          0 seconds =       0.00 minutes
Total time:
	user time   =      11.88 seconds =       0.20 minutes
	system time =      12.44 seconds =       0.21 minutes
	total time  =          2 seconds =       0.03 minutes

    			-----------------------------------------

    			 OPTKING 3.0: for geometry optimizations 

    			     By R.A. King, Bethel University     

    			        with contributions from          

    			    A.V. Copan, J. Cayton, A. Heide      

    			-----------------------------------------

    
	                            ===> Fragment 1 <== 

	 Z (Atomic Numbers)          Masses                          Geom                  
	       3.000000             7.016003          0.00000000  0.00000000  1.73102000   
	       7.000000            14.003074          0.00000000  0.00000000 -0.86729830   

	 - Coordinate -           - BOHR/RAD -       - ANG/DEG -
	 R(1,2)           =         2.598318           1.374971


	        --- Internal Coordinate Step in ANG or DEG, aJ/ANG or AJ/DEG ---
	-------------------------------------------------------------------------------
	           Coordinate      Previous         Force          Change          New 
	           ----------      --------        ------          ------        ------
	               R(1,2)       1.37497        1.33162        0.11811       1.49308
	-------------------------------------------------------------------------------

	                                 ==> Convergence Check <==                                  
    
	Measures of convergence in internal coordinates in au.
    
	Criteria marked as inactive (o), active & met (*), and active & unmet ( ).

	----------------------------------------------------------------------------------------------
	   Step    Total Energy     Delta E     Max Force     RMS Force      Max Disp      RMS Disp   
	----------------------------------------------------------------------------------------------
	  Convergence Criteria     1.00e-06 *    3.00e-04 *             o    1.20e-03 *             o
	----------------------------------------------------------------------------------------------
	     2     -62.09289228   -8.72e-02      1.62e-01      1.62e-01 o    2.23e-01      2.23e-01 o  ~
	----------------------------------------------------------------------------------------------

Next Geometry in Ang 
	Fragment 1 (Ang)

	   Li   0.0000000000   0.0000000000   0.9750724901
	    N   0.0000000000   0.0000000000  -0.5180106510


    Structure for next step:
    Molecular point group: c2v
    Full point group: C_inf_v

    Geometry (in Angstrom), charge = -1, multiplicity = 2:

    LI           0.000000000000     0.000000000000     0.994703681883
    N            0.000000000000     0.000000000000    -0.498379459273


Scratch directory: /tmp/
gradient() will perform analytic gradient computation.
   => Libint2 <=

    Primary   basis highest AM E, G, H:  6, 6, 3
    Auxiliary basis highest AM E, G, H:  7, 7, 4
    Onebody   basis highest AM E, G, H:  -, -, -
    Solid Harmonics ordering:            Gaussian

*** tstart() called on Joses-MacBook-Pro-2.local
*** at Thu Jul 17 09:29:00 2025

   => Loading Basis Set <=

    Name: CC-PVDZ
    Role: ORBITAL
    Keyword: BASIS
    atoms 1 entry LI         line    42 file /Users/joseantoniorodriguesromero/anaconda3/share/psi4/basis/cc-pvdz.gbs 
    atoms 2 entry N          line   168 file /Users/joseantoniorodriguesromero/anaconda3/share/psi4/basis/cc-pvdz.gbs 


         ---------------------------------------------------------
                                   SCF
               by Justin Turney, Rob Parrish, Andy Simmonett
                          and Daniel G. A. Smith
                              UKS Reference
                        1 Threads,    500 MiB Core
         ---------------------------------------------------------

  ==> Geometry <==

    Molecular point group: c2v
    Full point group: C_inf_v

    Geometry (in Angstrom), charge = -1, multiplicity = 2:

       Center              X                  Y                   Z               Mass       
    ------------   -----------------  -----------------  -----------------  -----------------
         LI           0.000000000000     0.000000000000     0.994703681883     7.016003436600
         N            0.000000000000     0.000000000000    -0.498379459273    14.003074004430

  Running in c2v symmetry.

  Rotational constants: A = ************  B =      1.61782  C =      1.61782 [cm^-1]
  Rotational constants: A = ************  B =  48500.88787  C =  48500.88787 [MHz]
  Nuclear repulsion =    7.442801487577639

  Charge       = -1
  Multiplicity = 2
  Electrons    = 11
  Nalpha       = 6
  Nbeta        = 5

  ==> Algorithm <==

  SCF Algorithm Type is DF.
  DIIS enabled.
  MOM disabled.
  Fractional occupation disabled.
  Guess Type is READ.
  Energy threshold   = 1.00e-08
  Density threshold  = 1.00e-08
  Integral threshold = 1.00e-12

  ==> Primary Basis <==

  Basis Set: CC-PVDZ
    Blend: CC-PVDZ
    Number of shells: 12
    Number of basis functions: 28
    Number of Cartesian functions: 30
    Spherical Harmonics?: true
    Max angular momentum: 2

  ==> DFT Potential <==

   => LibXC <=

    Version 6.2.2
    S. Lehtola, C. Steigemann, M. J.T. Oliveira, and M. A.L. Marques.,  SoftwareX 7, 1–5 (2018) (10.1016/j.softx.2017.11.002)

   => Composite Functional: B3LYP <= 

    B3LYP Hyb-GGA Exchange-Correlation Functional

    P. J. Stephens, F. J. Devlin, C. F. Chabalowski, and M. J. Frisch.,  J. Phys. Chem. 98, 11623 (1994) (10.1021/j100096a001)

    Deriv               =              1
    GGA                 =           TRUE
    Meta                =          FALSE

    Exchange Hybrid     =           TRUE
    MP2 Hybrid          =          FALSE

   => Exchange Functionals <=

    0.0800   Slater exchange
    0.7200         Becke 88

   => Exact (HF) Exchange <=

    0.2000               HF 

   => Correlation Functionals <=

    0.1900   Vosko, Wilk & Nusair (VWN5_RPA)
    0.8100   Lee, Yang & Parr

   => LibXC Density Thresholds  <==

    XC_HYB_GGA_XC_B3LYP:  1.00E-15 

   => Molecular Quadrature <=

    Radial Scheme          =       TREUTLER
    Pruning Scheme         =           NONE
    Nuclear Scheme         =       TREUTLER

    Blocking Scheme        =         OCTREE
    BS radius alpha        =              1
    Pruning alpha          =              1
    Radial Points          =             75
    Spherical Points       =            302
    Total Points           =          44258
    Total Blocks           =            423
    Max Points             =            255
    Max Functions          =             28
    Weights Tolerance      =       1.00E-15

   => Loading Basis Set <=

    Name: (CC-PVDZ AUX)
    Role: JKFIT
    Keyword: DF_BASIS_SCF
    atoms 1 entry LI         line    54 file /Users/joseantoniorodriguesromero/anaconda3/share/psi4/basis/def2-universal-jkfit.gbs 
    atoms 2 entry N          line   171 file /Users/joseantoniorodriguesromero/anaconda3/share/psi4/basis/cc-pvdz-jkfit.gbs 

   => Loading Basis Set <=

    Name: CC-PVDZ
    Role: ORBITAL
    Keyword: BASIS
    atoms 1 entry LI         line    42 file /Users/joseantoniorodriguesromero/anaconda3/share/psi4/basis/cc-pvdz.gbs 
    atoms 2 entry N          line   168 file /Users/joseantoniorodriguesromero/anaconda3/share/psi4/basis/cc-pvdz.gbs 

  Reading orbitals from file /tmp/doublet_LiN.default.71942.180.npy, no projection.

  ==> Integral Setup <==

  DFHelper Memory: AOs need 0.001 GiB; user supplied 0.332 GiB. 
  Using in-core AOs.

  ==> MemDFJK: Density-Fitted J/K Matrices <==

    J tasked:                   Yes
    K tasked:                   Yes
    wK tasked:                   No
    OpenMP threads:               1
    Memory [MiB]:               339
    Algorithm:                 Core
    Schwarz Cutoff:           1E-12
    Mask sparsity (%):       0.0000
    Fitting Condition:        1E-10

   => Auxiliary Basis Set <=

  Basis Set: (CC-PVDZ AUX)
    Blend: CC-PVDZ-JKFIT + DEF2-UNIVERSAL-JKFIT
    Number of shells: 41
    Number of basis functions: 121
    Number of Cartesian functions: 141
    Spherical Harmonics?: true
    Max angular momentum: 3

  Cached 100.0% of DFT collocation blocks in 0.034 [GiB].

  Minimum eigenvalue in the overlap matrix is 8.3776146837E-03.
  Reciprocal condition number of the overlap matrix is 2.9444729395E-03.
    Using symmetric orthogonalization.

  ==> Pre-Iterations <==

  SCF Guess: Orbitals guess was supplied from a previous computation.

   -------------------------------------------------------
    Irrep   Nso     Nmo     Nalpha   Nbeta   Ndocc  Nsocc
   -------------------------------------------------------
     A1        14      14       4       3       3       1
     A2         2       2       0       0       0       0
     B1         6       6       1       1       1       0
     B2         6       6       1       1       1       0
   -------------------------------------------------------
    Total      28      28       6       5       5       1
   -------------------------------------------------------

  ==> Iterations <==

                           Total Energy        Delta E     RMS |[F,P]|

   @DF-UKS iter   0:   -62.11164020153739   -6.21116e+01   5.67134e-03 
   @DF-UKS iter   1:   -62.11672029107122   -5.08009e-03   3.22826e-03 DIIS/ADIIS
   @DF-UKS iter   2:   -62.09578567504969    2.09346e-02   1.12600e-02 DIIS/ADIIS/DAMP=1%
   @DF-UKS iter   3:   -62.12529556782550   -2.95099e-02   3.46832e-04 DIIS/ADIIS/DAMP=1%
   @DF-UKS iter   4:   -62.11865762281369    6.63795e-03   1.29310e-04 DIIS/ADIIS/DAMP=1%
   @DF-UKS iter   5:   -62.11850896172590    1.48661e-04   6.33334e-05 DIIS/DAMP=1%
   @DF-UKS iter   6:   -62.11855358558200   -4.46239e-05   2.94973e-05 DIIS/DAMP=1%
   @DF-UKS iter   7:   -62.11851787792681    3.57077e-05   5.91375e-06 DIIS/DAMP=1%
   @DF-UKS iter   8:   -62.11852815875552   -1.02808e-05   2.31745e-06 DIIS/DAMP=1%
   @DF-UKS iter   9:   -62.11852105198479    7.10677e-06   3.25887e-07 DIIS/DAMP=1%
   @DF-UKS iter  10:   -62.11852291439644   -1.86241e-06   3.01503e-08 DIIS/DAMP=1%
   @DF-UKS iter  11:   -62.11852269297060    2.21426e-07   7.60711e-09 DIIS/DAMP=1%
   @DF-UKS iter  12:   -62.11852271739481   -2.44242e-08   6.98121e-10 DIIS/DAMP=1%
   @DF-UKS iter  13:   -62.11852271144451    5.95031e-09   3.91612e-11 DIIS/DAMP=1%
  Energy and wave function converged.


  ==> Post-Iterations <==

   Electrons on quadrature grid:
      Nalpha   =    5.9999995620 ; deviation = -4.380e-07
      Nbeta    =    4.9999997606 ; deviation = -2.394e-07
      Ntotal   =   10.9999993226 ; deviation = -6.774e-07 

   @Spin Contamination Metric:   2.015628900E-01
   @S^2 Expected:                7.500000000E-01
   @S^2 Observed:                9.515628900E-01
   @S   Expected:                5.000000000E-01
   @S   Observed:                5.000000000E-01

    Orbital Energies [Eh]
    ---------------------

    Alpha Occupied:                                                       

       1A1   -14.070402     2A1    -1.773020     3A1    -0.451569  
       4A1    -0.036893     1B1     0.004763     1B2     0.004763  

    Alpha Virtual:                                                        

       5A1     0.093784     2B2     0.138113     2B1     0.138113  
       6A1     0.163626     7A1     0.243389     3B2     0.284976  
       3B1     0.284976     8A1     0.397429     9A1     0.427677  
       1A2     0.427677     4B1     0.497716     4B2     0.497716  
      10A1     0.581305    11A1     1.103274     5B2     1.161778  
       5B1     1.161778    12A1     1.712885    13A1     1.991677  
       6B2     2.063081     6B1     2.063081     2A2     2.071757  
      14A1     2.071765  

    Beta Occupied:                                                        

       1A1   -14.041914     2A1    -1.766916     3A1    -0.354938  
       1B2     0.054063     1B1     0.054063  

    Beta Virtual:                                                         

       4A1     0.087917     2B2     0.146493     2B1     0.146493  
       5A1     0.148790     6A1     0.187624     7A1     0.248897  
       3B2     0.287638     3B1     0.287638     8A1     0.412538  
       1A2     0.419677     9A1     0.419677     4B1     0.505111  
       4B2     0.505111    10A1     0.592784    11A1     1.188405  
       5B2     1.197253     5B1     1.197253    12A1     1.754652  
      13A1     2.095350     2A2     2.116553    14A1     2.116562  
       6B2     2.148763     6B1     2.148763  

    Final Occupation by Irrep:
             A1    A2    B1    B2 
    DOCC [     3,    0,    1,    1 ]
    SOCC [     1,    0,    0,    0 ]
    NA   [     4,    0,    1,    1 ]
    NB   [     3,    0,    1,    1 ]

  @DF-UKS Final Energy:   -62.11852271144451

   => Energetics <=

    Nuclear Repulsion Energy =              7.4428014875776389
    One-Electron Energy =                -101.5584976254571643
    Two-Electron Energy =                  39.1915577823338950
    DFT Exchange-Correlation Energy =      -7.1943843558988760
    Empirical Dispersion Energy =           0.0000000000000000
    VV10 Nonlocal Energy =                  0.0000000000000000
    Total Energy =                        -62.1185227114445055

  UHF NO Occupations:
  HONO-2 :    1 B2 1.9488467
  HONO-1 :    1 B1 1.9488467
  HONO-0 :    4 A1 1.0000000
  LUNO+0 :    2 B1 0.0511533
  LUNO+1 :    2 B2 0.0511533
  LUNO+2 :    5 A1 0.0010904
  LUNO+3 :    6 A1 0.0000014


Computation Completed


Properties will be evaluated at   0.000000,   0.000000,   0.000000 [a0]

Properties computed using the SCF density matrix


 Multipole Moments:

 ------------------------------------------------------------------------------------
     Multipole            Electronic (a.u.)      Nuclear  (a.u.)        Total (a.u.)
 ------------------------------------------------------------------------------------

 L = 1.  Multiply by 2.5417464519 to convert [e a0] to [Debye]
 Dipole X            :          0.0000000            0.0000000            0.0000000
 Dipole Y            :          0.0000000            0.0000000            0.0000000
 Dipole Z            :          1.7779363           -0.9534522            0.8244841
 Magnitude           :                                                    0.8244841

 ------------------------------------------------------------------------------------

*** tstop() called on Joses-MacBook-Pro-2.local at Thu Jul 17 09:29:01 2025
Module time:
	user time   =       4.36 seconds =       0.07 minutes
	system time =       4.44 seconds =       0.07 minutes
	total time  =          1 seconds =       0.02 minutes
Total time:
	user time   =      16.27 seconds =       0.27 minutes
	system time =      17.09 seconds =       0.28 minutes
	total time  =          3 seconds =       0.05 minutes

*** tstart() called on Joses-MacBook-Pro-2.local
*** at Thu Jul 17 09:29:01 2025


         ------------------------------------------------------------
                                   SCF GRAD                          
                          Rob Parrish, Justin Turney,                
                       Andy Simmonett, and Alex Sokolov              
         ------------------------------------------------------------

  ==> Geometry <==

    Molecular point group: c2v
    Full point group: C_inf_v

    Geometry (in Angstrom), charge = -1, multiplicity = 2:

       Center              X                  Y                   Z               Mass       
    ------------   -----------------  -----------------  -----------------  -----------------
         LI           0.000000000000     0.000000000000     0.994703681883     7.016003436600
         N            0.000000000000     0.000000000000    -0.498379459273    14.003074004430

  Nuclear repulsion =    7.442801487577639

  ==> Basis Set <==

  Basis Set: CC-PVDZ
    Blend: CC-PVDZ
    Number of shells: 12
    Number of basis functions: 28
    Number of Cartesian functions: 30
    Spherical Harmonics?: true
    Max angular momentum: 2

  ==> DFJKGrad: Density-Fitted SCF Gradients <==

    Gradient:                    1
    J tasked:                  Yes
    K tasked:                  Yes
    wK tasked:                  No
    OpenMP threads:              1
    Integrals threads:           1
    Memory [MiB]:              375
    Schwarz Cutoff:          1E-12
    Fitting Condition:       1E-10

   => Auxiliary Basis Set <=

  Basis Set: (CC-PVDZ AUX)
    Blend: CC-PVDZ-JKFIT + DEF2-UNIVERSAL-JKFIT
    Number of shells: 41
    Number of basis functions: 121
    Number of Cartesian functions: 141
    Spherical Harmonics?: true
    Max angular momentum: 3

  ==> DFT Potential <==

   => LibXC <=

    Version 6.2.2
    S. Lehtola, C. Steigemann, M. J.T. Oliveira, and M. A.L. Marques.,  SoftwareX 7, 1–5 (2018) (10.1016/j.softx.2017.11.002)

   => Composite Functional: B3LYP <= 

    B3LYP Hyb-GGA Exchange-Correlation Functional

    P. J. Stephens, F. J. Devlin, C. F. Chabalowski, and M. J. Frisch.,  J. Phys. Chem. 98, 11623 (1994) (10.1021/j100096a001)

    Deriv               =              1
    GGA                 =           TRUE
    Meta                =          FALSE

    Exchange Hybrid     =           TRUE
    MP2 Hybrid          =          FALSE

   => Exchange Functionals <=

    0.0800   Slater exchange
    0.7200         Becke 88

   => Exact (HF) Exchange <=

    0.2000               HF 

   => Correlation Functionals <=

    0.1900   Vosko, Wilk & Nusair (VWN5_RPA)
    0.8100   Lee, Yang & Parr

   => LibXC Density Thresholds  <==

    XC_HYB_GGA_XC_B3LYP:  1.00E-15 

   => Molecular Quadrature <=

    Radial Scheme          =       TREUTLER
    Pruning Scheme         =           NONE
    Nuclear Scheme         =       TREUTLER

    Blocking Scheme        =         OCTREE
    BS radius alpha        =              1
    Pruning alpha          =              1
    Radial Points          =             75
    Spherical Points       =            302
    Total Points           =          44258
    Total Blocks           =            423
    Max Points             =            255
    Max Functions          =             28
    Weights Tolerance      =       1.00E-15


  -Total Gradient:
     Atom            X                  Y                   Z
    ------   -----------------  -----------------  -----------------
       1        0.000000000000    -0.000000000000    -0.074991036257
       2       -0.000000000000     0.000000000000     0.075016728521


*** tstop() called on Joses-MacBook-Pro-2.local at Thu Jul 17 09:29:01 2025
Module time:
	user time   =       0.56 seconds =       0.01 minutes
	system time =       1.15 seconds =       0.02 minutes
	total time  =          0 seconds =       0.00 minutes
Total time:
	user time   =      16.83 seconds =       0.28 minutes
	system time =      18.24 seconds =       0.30 minutes
	total time  =          3 seconds =       0.05 minutes

    			-----------------------------------------

    			 OPTKING 3.0: for geometry optimizations 

    			     By R.A. King, Bethel University     

    			        with contributions from          

    			    A.V. Copan, J. Cayton, A. Heide      

    			-----------------------------------------

    
	                            ===> Fragment 1 <== 

	 Z (Atomic Numbers)          Masses                          Geom                  
	       3.000000             7.016003          0.00000000  0.00000000  1.87971753   
	       7.000000            14.003074          0.00000000  0.00000000 -0.94180068   

	 - Coordinate -           - BOHR/RAD -       - ANG/DEG -
	 R(1,2)           =         2.821518           1.493083


	        --- Internal Coordinate Step in ANG or DEG, aJ/ANG or AJ/DEG ---
	-------------------------------------------------------------------------------
	           Coordinate      Previous         Force          Change          New 
	           ----------      --------        ------          ------        ------
	               R(1,2)       1.49308        0.61794        0.09871       1.59179
	-------------------------------------------------------------------------------

	                                 ==> Convergence Check <==                                  
    
	Measures of convergence in internal coordinates in au.
    
	Criteria marked as inactive (o), active & met (*), and active & unmet ( ).

	----------------------------------------------------------------------------------------------
	   Step    Total Energy     Delta E     Max Force     RMS Force      Max Disp      RMS Disp   
	----------------------------------------------------------------------------------------------
	  Convergence Criteria     1.00e-06 *    3.00e-04 *             o    1.20e-03 *             o
	----------------------------------------------------------------------------------------------
	     3     -62.11852271   -2.56e-02      7.50e-02      7.50e-02 o    1.87e-01      1.87e-01 o  ~
	----------------------------------------------------------------------------------------------

Next Geometry in Ang 
	Fragment 1 (Ang)

	   Li   0.0000000000   0.0000000000   1.0440578057
	    N   0.0000000000   0.0000000000  -0.5477335831


    Structure for next step:
    Molecular point group: c2v
    Full point group: C_inf_v

    Geometry (in Angstrom), charge = -1, multiplicity = 2:

    LI           0.000000000000     0.000000000000     1.060463889485
    N            0.000000000000     0.000000000000    -0.531327499281


Scratch directory: /tmp/
gradient() will perform analytic gradient computation.
   => Libint2 <=

    Primary   basis highest AM E, G, H:  6, 6, 3
    Auxiliary basis highest AM E, G, H:  7, 7, 4
    Onebody   basis highest AM E, G, H:  -, -, -
    Solid Harmonics ordering:            Gaussian

*** tstart() called on Joses-MacBook-Pro-2.local
*** at Thu Jul 17 09:29:01 2025

   => Loading Basis Set <=

    Name: CC-PVDZ
    Role: ORBITAL
    Keyword: BASIS
    atoms 1 entry LI         line    42 file /Users/joseantoniorodriguesromero/anaconda3/share/psi4/basis/cc-pvdz.gbs 
    atoms 2 entry N          line   168 file /Users/joseantoniorodriguesromero/anaconda3/share/psi4/basis/cc-pvdz.gbs 


         ---------------------------------------------------------
                                   SCF
               by Justin Turney, Rob Parrish, Andy Simmonett
                          and Daniel G. A. Smith
                              UKS Reference
                        1 Threads,    500 MiB Core
         ---------------------------------------------------------

  ==> Geometry <==

    Molecular point group: c2v
    Full point group: C_inf_v

    Geometry (in Angstrom), charge = -1, multiplicity = 2:

       Center              X                  Y                   Z               Mass       
    ------------   -----------------  -----------------  -----------------  -----------------
         LI           0.000000000000     0.000000000000     1.060463889485     7.016003436600
         N            0.000000000000     0.000000000000    -0.531327499281    14.003074004430

  Running in c2v symmetry.

  Rotational constants: A = ************  B =      1.42339  C =      1.42339 [cm^-1]
  Rotational constants: A = ************  B =  42672.23309  C =  42672.23309 [MHz]
  Nuclear repulsion =    6.981267459102741

  Charge       = -1
  Multiplicity = 2
  Electrons    = 11
  Nalpha       = 6
  Nbeta        = 5

  ==> Algorithm <==

  SCF Algorithm Type is DF.
  DIIS enabled.
  MOM disabled.
  Fractional occupation disabled.
  Guess Type is READ.
  Energy threshold   = 1.00e-08
  Density threshold  = 1.00e-08
  Integral threshold = 1.00e-12

  ==> Primary Basis <==

  Basis Set: CC-PVDZ
    Blend: CC-PVDZ
    Number of shells: 12
    Number of basis functions: 28
    Number of Cartesian functions: 30
    Spherical Harmonics?: true
    Max angular momentum: 2

  ==> DFT Potential <==

   => LibXC <=

    Version 6.2.2
    S. Lehtola, C. Steigemann, M. J.T. Oliveira, and M. A.L. Marques.,  SoftwareX 7, 1–5 (2018) (10.1016/j.softx.2017.11.002)

   => Composite Functional: B3LYP <= 

    B3LYP Hyb-GGA Exchange-Correlation Functional

    P. J. Stephens, F. J. Devlin, C. F. Chabalowski, and M. J. Frisch.,  J. Phys. Chem. 98, 11623 (1994) (10.1021/j100096a001)

    Deriv               =              1
    GGA                 =           TRUE
    Meta                =          FALSE

    Exchange Hybrid     =           TRUE
    MP2 Hybrid          =          FALSE

   => Exchange Functionals <=

    0.0800   Slater exchange
    0.7200         Becke 88

   => Exact (HF) Exchange <=

    0.2000               HF 

   => Correlation Functionals <=

    0.1900   Vosko, Wilk & Nusair (VWN5_RPA)
    0.8100   Lee, Yang & Parr

   => LibXC Density Thresholds  <==

    XC_HYB_GGA_XC_B3LYP:  1.00E-15 

   => Molecular Quadrature <=

    Radial Scheme          =       TREUTLER
    Pruning Scheme         =           NONE
    Nuclear Scheme         =       TREUTLER

    Blocking Scheme        =         OCTREE
    BS radius alpha        =              1
    Pruning alpha          =              1
    Radial Points          =             75
    Spherical Points       =            302
    Total Points           =          44274
    Total Blocks           =            422
    Max Points             =            255
    Max Functions          =             28
    Weights Tolerance      =       1.00E-15

   => Loading Basis Set <=

    Name: (CC-PVDZ AUX)
    Role: JKFIT
    Keyword: DF_BASIS_SCF
    atoms 1 entry LI         line    54 file /Users/joseantoniorodriguesromero/anaconda3/share/psi4/basis/def2-universal-jkfit.gbs 
    atoms 2 entry N          line   171 file /Users/joseantoniorodriguesromero/anaconda3/share/psi4/basis/cc-pvdz-jkfit.gbs 

   => Loading Basis Set <=

    Name: CC-PVDZ
    Role: ORBITAL
    Keyword: BASIS
    atoms 1 entry LI         line    42 file /Users/joseantoniorodriguesromero/anaconda3/share/psi4/basis/cc-pvdz.gbs 
    atoms 2 entry N          line   168 file /Users/joseantoniorodriguesromero/anaconda3/share/psi4/basis/cc-pvdz.gbs 

  Reading orbitals from file /tmp/doublet_LiN.default.71942.180.npy, no projection.

  ==> Integral Setup <==

  DFHelper Memory: AOs need 0.001 GiB; user supplied 0.332 GiB. 
  Using in-core AOs.

  ==> MemDFJK: Density-Fitted J/K Matrices <==

    J tasked:                   Yes
    K tasked:                   Yes
    wK tasked:                   No
    OpenMP threads:               1
    Memory [MiB]:               340
    Algorithm:                 Core
    Schwarz Cutoff:           1E-12
    Mask sparsity (%):       0.0000
    Fitting Condition:        1E-10

   => Auxiliary Basis Set <=

  Basis Set: (CC-PVDZ AUX)
    Blend: CC-PVDZ-JKFIT + DEF2-UNIVERSAL-JKFIT
    Number of shells: 41
    Number of basis functions: 121
    Number of Cartesian functions: 141
    Spherical Harmonics?: true
    Max angular momentum: 3

  Cached 100.0% of DFT collocation blocks in 0.034 [GiB].

  Minimum eigenvalue in the overlap matrix is 8.6155757145E-03.
  Reciprocal condition number of the overlap matrix is 3.0324141867E-03.
    Using symmetric orthogonalization.

  ==> Pre-Iterations <==

  SCF Guess: Orbitals guess was supplied from a previous computation.

   -------------------------------------------------------
    Irrep   Nso     Nmo     Nalpha   Nbeta   Ndocc  Nsocc
   -------------------------------------------------------
     A1        14      14       4       3       3       1
     A2         2       2       0       0       0       0
     B1         6       6       1       1       1       0
     B2         6       6       1       1       1       0
   -------------------------------------------------------
    Total      28      28       6       5       5       1
   -------------------------------------------------------

  ==> Iterations <==

                           Total Energy        Delta E     RMS |[F,P]|

   @DF-UKS iter   0:   -62.12207994002469   -6.21221e+01   3.94702e-03 
   @DF-UKS iter   1:   -62.12773426434362   -5.65432e-03   1.00712e-03 DIIS/ADIIS
   @DF-UKS iter   2:   -62.12659753703556    1.13673e-03   2.67323e-03 DIIS/ADIIS/DAMP=1%
   @DF-UKS iter   3:   -62.13004316328707   -3.44563e-03   1.07938e-03 DIIS/ADIIS/DAMP=1%
   @DF-UKS iter   4:   -62.12737359943026    2.66956e-03   1.60930e-04 DIIS/ADIIS/DAMP=1%
   @DF-UKS iter   5:   -62.12788063588198   -5.07036e-04   4.09648e-05 DIIS/DAMP=1%
   @DF-UKS iter   6:   -62.12801158075486   -1.30945e-04   6.41446e-05 DIIS/DAMP=1%
   @DF-UKS iter   7:   -62.12790513308570    1.06448e-04   7.62182e-06 DIIS/DAMP=1%
   @DF-UKS iter   8:   -62.12794723961213   -4.21065e-05   1.29804e-06 DIIS/DAMP=1%
   @DF-UKS iter   9:   -62.12794142575802    5.81385e-06   1.70368e-07 DIIS/DAMP=1%
   @DF-UKS iter  10:   -62.12794241514166   -9.89384e-07   4.15812e-09 DIIS/DAMP=1%
   @DF-UKS iter  11:   -62.12794229456621    1.20575e-07   1.99686e-09 DIIS/DAMP=1%
   @DF-UKS iter  12:   -62.12794229244268    2.12353e-09   2.33505e-10 DIIS/DAMP=1%
  Energy and wave function converged.


  ==> Post-Iterations <==

   Electrons on quadrature grid:
      Nalpha   =    6.0000001601 ; deviation = 1.601e-07
      Nbeta    =    4.9999998651 ; deviation = -1.349e-07
      Ntotal   =   11.0000000252 ; deviation = 2.519e-08 

   @Spin Contamination Metric:   2.779668851E-01
   @S^2 Expected:                7.500000000E-01
   @S^2 Observed:                1.027966885E+00
   @S   Expected:                5.000000000E-01
   @S   Observed:                5.000000000E-01

    Orbital Energies [Eh]
    ---------------------

    Alpha Occupied:                                                       

       1A1   -14.085043     2A1    -1.788461     3A1    -0.461715  
       4A1    -0.048647     1B1    -0.002339     1B2    -0.002339  

    Alpha Virtual:                                                        

       5A1     0.090122     2B2     0.134837     2B1     0.134837  
       6A1     0.160437     7A1     0.238110     3B1     0.272680  
       3B2     0.272680     8A1     0.386593     1A2     0.421969  
       9A1     0.421969     4B1     0.487930     4B2     0.487930  
      10A1     0.572081    11A1     1.070919     5B1     1.135448  
       5B2     1.135448    12A1     1.711984    13A1     1.979124  
       6B2     2.058031     6B1     2.058031     2A2     2.058551  
      14A1     2.058557  

    Beta Occupied:                                                        

       1A1   -14.055068     2A1    -1.784100     3A1    -0.359198  
       1B2     0.054023     1B1     0.054023  

    Beta Virtual:                                                         

       4A1     0.082152     2B2     0.144642     2B1     0.144642  
       5A1     0.144690     6A1     0.176199     7A1     0.242817  
       3B1     0.274511     3B2     0.274511     8A1     0.401899  
       1A2     0.412397     9A1     0.412397     4B1     0.495192  
       4B2     0.495192    10A1     0.583492    11A1     1.158029  
       5B1     1.174991     5B2     1.174991    12A1     1.756473  
      13A1     2.086137     2A2     2.110224    14A1     2.110233  
       6B2     2.147272     6B1     2.147272  

    Final Occupation by Irrep:
             A1    A2    B1    B2 
    DOCC [     3,    0,    1,    1 ]
    SOCC [     1,    0,    0,    0 ]
    NA   [     4,    0,    1,    1 ]
    NB   [     3,    0,    1,    1 ]

  @DF-UKS Final Energy:   -62.12794229244268

   => Energetics <=

    Nuclear Repulsion Energy =              6.9812674591027406
    One-Electron Energy =                -100.5703099566814700
    Two-Electron Energy =                  38.6319800527784807
    DFT Exchange-Correlation Energy =      -7.1708798476424302
    Empirical Dispersion Energy =           0.0000000000000000
    VV10 Nonlocal Energy =                  0.0000000000000000
    Total Energy =                        -62.1279422924426825

  UHF NO Occupations:
  HONO-2 :    1 B2 1.9285091
  HONO-1 :    1 B1 1.9285091
  HONO-0 :    4 A1 1.0000000
  LUNO+0 :    2 B1 0.0714909
  LUNO+1 :    2 B2 0.0714909
  LUNO+2 :    5 A1 0.0011120
  LUNO+3 :    6 A1 0.0000009


Computation Completed


Properties will be evaluated at   0.000000,   0.000000,   0.000000 [a0]

Properties computed using the SCF density matrix


 Multipole Moments:

 ------------------------------------------------------------------------------------
     Multipole            Electronic (a.u.)      Nuclear  (a.u.)        Total (a.u.)
 ------------------------------------------------------------------------------------

 L = 1.  Multiply by 2.5417464519 to convert [e a0] to [Debye]
 Dipole X            :          0.0000000            0.0000000            0.0000000
 Dipole Y            :          0.0000000            0.0000000            0.0000000
 Dipole Z            :          1.7549701           -1.0164852            0.7384849
 Magnitude           :                                                    0.7384849

 ------------------------------------------------------------------------------------

*** tstop() called on Joses-MacBook-Pro-2.local at Thu Jul 17 09:29:02 2025
Module time:
	user time   =       4.17 seconds =       0.07 minutes
	system time =       3.94 seconds =       0.07 minutes
	total time  =          1 seconds =       0.02 minutes
Total time:
	user time   =      21.03 seconds =       0.35 minutes
	system time =      22.37 seconds =       0.37 minutes
	total time  =          4 seconds =       0.07 minutes

*** tstart() called on Joses-MacBook-Pro-2.local
*** at Thu Jul 17 09:29:02 2025


         ------------------------------------------------------------
                                   SCF GRAD                          
                          Rob Parrish, Justin Turney,                
                       Andy Simmonett, and Alex Sokolov              
         ------------------------------------------------------------

  ==> Geometry <==

    Molecular point group: c2v
    Full point group: C_inf_v

    Geometry (in Angstrom), charge = -1, multiplicity = 2:

       Center              X                  Y                   Z               Mass       
    ------------   -----------------  -----------------  -----------------  -----------------
         LI           0.000000000000     0.000000000000     1.060463889485     7.016003436600
         N            0.000000000000     0.000000000000    -0.531327499281    14.003074004430

  Nuclear repulsion =    6.981267459102741

  ==> Basis Set <==

  Basis Set: CC-PVDZ
    Blend: CC-PVDZ
    Number of shells: 12
    Number of basis functions: 28
    Number of Cartesian functions: 30
    Spherical Harmonics?: true
    Max angular momentum: 2

  ==> DFJKGrad: Density-Fitted SCF Gradients <==

    Gradient:                    1
    J tasked:                  Yes
    K tasked:                  Yes
    wK tasked:                  No
    OpenMP threads:              1
    Integrals threads:           1
    Memory [MiB]:              375
    Schwarz Cutoff:          1E-12
    Fitting Condition:       1E-10

   => Auxiliary Basis Set <=

  Basis Set: (CC-PVDZ AUX)
    Blend: CC-PVDZ-JKFIT + DEF2-UNIVERSAL-JKFIT
    Number of shells: 41
    Number of basis functions: 121
    Number of Cartesian functions: 141
    Spherical Harmonics?: true
    Max angular momentum: 3

  ==> DFT Potential <==

   => LibXC <=

    Version 6.2.2
    S. Lehtola, C. Steigemann, M. J.T. Oliveira, and M. A.L. Marques.,  SoftwareX 7, 1–5 (2018) (10.1016/j.softx.2017.11.002)

   => Composite Functional: B3LYP <= 

    B3LYP Hyb-GGA Exchange-Correlation Functional

    P. J. Stephens, F. J. Devlin, C. F. Chabalowski, and M. J. Frisch.,  J. Phys. Chem. 98, 11623 (1994) (10.1021/j100096a001)

    Deriv               =              1
    GGA                 =           TRUE
    Meta                =          FALSE

    Exchange Hybrid     =           TRUE
    MP2 Hybrid          =          FALSE

   => Exchange Functionals <=

    0.0800   Slater exchange
    0.7200         Becke 88

   => Exact (HF) Exchange <=

    0.2000               HF 

   => Correlation Functionals <=

    0.1900   Vosko, Wilk & Nusair (VWN5_RPA)
    0.8100   Lee, Yang & Parr

   => LibXC Density Thresholds  <==

    XC_HYB_GGA_XC_B3LYP:  1.00E-15 

   => Molecular Quadrature <=

    Radial Scheme          =       TREUTLER
    Pruning Scheme         =           NONE
    Nuclear Scheme         =       TREUTLER

    Blocking Scheme        =         OCTREE
    BS radius alpha        =              1
    Pruning alpha          =              1
    Radial Points          =             75
    Spherical Points       =            302
    Total Points           =          44274
    Total Blocks           =            422
    Max Points             =            255
    Max Functions          =             28
    Weights Tolerance      =       1.00E-15


  -Total Gradient:
     Atom            X                  Y                   Z
    ------   -----------------  -----------------  -----------------
       1        0.000000000000     0.000000000000    -0.029274823595
       2       -0.000000000000     0.000000000000     0.029308638240


*** tstop() called on Joses-MacBook-Pro-2.local at Thu Jul 17 09:29:02 2025
Module time:
	user time   =       0.43 seconds =       0.01 minutes
	system time =       1.19 seconds =       0.02 minutes
	total time  =          0 seconds =       0.00 minutes
Total time:
	user time   =      21.47 seconds =       0.36 minutes
	system time =      23.56 seconds =       0.39 minutes
	total time  =          4 seconds =       0.07 minutes

    			-----------------------------------------

    			 OPTKING 3.0: for geometry optimizations 

    			     By R.A. King, Bethel University     

    			        with contributions from          

    			    A.V. Copan, J. Cayton, A. Heide      

    			-----------------------------------------

    
	                            ===> Fragment 1 <== 

	 Z (Atomic Numbers)          Masses                          Geom                  
	       3.000000             7.016003          0.00000000  0.00000000  2.00398632   
	       7.000000            14.003074          0.00000000  0.00000000 -1.00406346   

	 - Coordinate -           - BOHR/RAD -       - ANG/DEG -
	 R(1,2)           =         3.008050           1.591791


	        --- Internal Coordinate Step in ANG or DEG, aJ/ANG or AJ/DEG ---
	-------------------------------------------------------------------------------
	           Coordinate      Previous         Force          Change          New 
	           ----------      --------        ------          ------        ------
	               R(1,2)       1.59179        0.24133        0.04760       1.63939
	-------------------------------------------------------------------------------

	                                 ==> Convergence Check <==                                  
    
	Measures of convergence in internal coordinates in au.
    
	Criteria marked as inactive (o), active & met (*), and active & unmet ( ).

	----------------------------------------------------------------------------------------------
	   Step    Total Energy     Delta E     Max Force     RMS Force      Max Disp      RMS Disp   
	----------------------------------------------------------------------------------------------
	  Convergence Criteria     1.00e-06 *    3.00e-04 *             o    1.20e-03 *             o
	----------------------------------------------------------------------------------------------
	     4     -62.12794229   -9.42e-03      2.93e-02      2.93e-02 o    9.00e-02      9.00e-02 o  ~
	----------------------------------------------------------------------------------------------

Next Geometry in Ang 
	Fragment 1 (Ang)

	   Li   0.0000000000   0.0000000000   1.0842653484
	    N   0.0000000000   0.0000000000  -0.5551289582


    Structure for next step:
    Molecular point group: c2v
    Full point group: C_inf_v

    Geometry (in Angstrom), charge = -1, multiplicity = 2:

    LI           0.000000000000     0.000000000000     1.092177326160
    N            0.000000000000     0.000000000000    -0.547216980450


Scratch directory: /tmp/
gradient() will perform analytic gradient computation.
   => Libint2 <=

    Primary   basis highest AM E, G, H:  6, 6, 3
    Auxiliary basis highest AM E, G, H:  7, 7, 4
    Onebody   basis highest AM E, G, H:  -, -, -
    Solid Harmonics ordering:            Gaussian

*** tstart() called on Joses-MacBook-Pro-2.local
*** at Thu Jul 17 09:29:02 2025

   => Loading Basis Set <=

    Name: CC-PVDZ
    Role: ORBITAL
    Keyword: BASIS
    atoms 1 entry LI         line    42 file /Users/joseantoniorodriguesromero/anaconda3/share/psi4/basis/cc-pvdz.gbs 
    atoms 2 entry N          line   168 file /Users/joseantoniorodriguesromero/anaconda3/share/psi4/basis/cc-pvdz.gbs 


         ---------------------------------------------------------
                                   SCF
               by Justin Turney, Rob Parrish, Andy Simmonett
                          and Daniel G. A. Smith
                              UKS Reference
                        1 Threads,    500 MiB Core
         ---------------------------------------------------------

  ==> Geometry <==

    Molecular point group: c2v
    Full point group: C_inf_v

    Geometry (in Angstrom), charge = -1, multiplicity = 2:

       Center              X                  Y                   Z               Mass       
    ------------   -----------------  -----------------  -----------------  -----------------
         LI           0.000000000000     0.000000000000     1.092177326160     7.016003436600
         N            0.000000000000     0.000000000000    -0.547216980450    14.003074004430

  Running in c2v symmetry.

  Rotational constants: A = ************  B =      1.34193  C =      1.34193 [cm^-1]
[...]

	                                 ==> Convergence Check <==                                  
    
	Measures of convergence in internal coordinates in au.
    
	Criteria marked as inactive (o), active & met (*), and active & unmet ( ).

	----------------------------------------------------------------------------------------------
	   Step    Total Energy     Delta E     Max Force     RMS Force      Max Disp      RMS Disp   
	----------------------------------------------------------------------------------------------
	  Convergence Criteria     1.00e-06 *    3.00e-04 *             o    1.20e-03 *             o
	----------------------------------------------------------------------------------------------
	     9     -62.13046203   -3.27e-06      1.99e-04 *    1.99e-04 o    1.42e-03      1.42e-03 o  ~
	----------------------------------------------------------------------------------------------

Next Geometry in Ang 
	Fragment 1 (Ang)

	   Li   0.0000000000   0.0000000000   1.1260365617
	    N   0.0000000000   0.0000000000  -0.5643694804


    Structure for next step:
    Molecular point group: c2v
    Full point group: C_inf_v

    Geometry (in Angstrom), charge = -1, multiplicity = 2:

    LI           0.000000000000     0.000000000000     1.126161743862
    N            0.000000000000     0.000000000000    -0.564244298259


Scratch directory: /tmp/
gradient() will perform analytic gradient computation.
   => Libint2 <=

    Primary   basis highest AM E, G, H:  6, 6, 3
    Auxiliary basis highest AM E, G, H:  7, 7, 4
    Onebody   basis highest AM E, G, H:  -, -, -
    Solid Harmonics ordering:            Gaussian

*** tstart() called on Joses-MacBook-Pro-2.local
*** at Thu Jul 17 09:29:07 2025

   => Loading Basis Set <=

    Name: CC-PVDZ
    Role: ORBITAL
    Keyword: BASIS
    atoms 1 entry LI         line    42 file /Users/joseantoniorodriguesromero/anaconda3/share/psi4/basis/cc-pvdz.gbs 
    atoms 2 entry N          line   168 file /Users/joseantoniorodriguesromero/anaconda3/share/psi4/basis/cc-pvdz.gbs 


         ---------------------------------------------------------
                                   SCF
               by Justin Turney, Rob Parrish, Andy Simmonett
                          and Daniel G. A. Smith
                              UKS Reference
                        1 Threads,    500 MiB Core
         ---------------------------------------------------------

  ==> Geometry <==

    Molecular point group: c2v
    Full point group: C_inf_v

    Geometry (in Angstrom), charge = -1, multiplicity = 2:

       Center              X                  Y                   Z               Mass       
    ------------   -----------------  -----------------  -----------------  -----------------
         LI           0.000000000000     0.000000000000     1.126161743862     7.016003436600
         N            0.000000000000     0.000000000000    -0.564244298259    14.003074004430

  Running in c2v symmetry.

  Rotational constants: A = ************  B =      1.26216  C =      1.26216 [cm^-1]
  Rotational constants: A = ************  B =  37838.64708  C =  37838.64708 [MHz]
  Nuclear repulsion =    6.573995328440447

  Charge       = -1
  Multiplicity = 2
  Electrons    = 11
  Nalpha       = 6
  Nbeta        = 5

  ==> Algorithm <==

  SCF Algorithm Type is DF.
  DIIS enabled.
  MOM disabled.
  Fractional occupation disabled.
  Guess Type is READ.
  Energy threshold   = 1.00e-08
  Density threshold  = 1.00e-08
  Integral threshold = 1.00e-12

  ==> Primary Basis <==

  Basis Set: CC-PVDZ
    Blend: CC-PVDZ
    Number of shells: 12
    Number of basis functions: 28
    Number of Cartesian functions: 30
    Spherical Harmonics?: true
    Max angular momentum: 2

  ==> DFT Potential <==

   => LibXC <=

    Version 6.2.2
    S. Lehtola, C. Steigemann, M. J.T. Oliveira, and M. A.L. Marques.,  SoftwareX 7, 1–5 (2018) (10.1016/j.softx.2017.11.002)

   => Composite Functional: B3LYP <= 

    B3LYP Hyb-GGA Exchange-Correlation Functional

    P. J. Stephens, F. J. Devlin, C. F. Chabalowski, and M. J. Frisch.,  J. Phys. Chem. 98, 11623 (1994) (10.1021/j100096a001)

    Deriv               =              1
    GGA                 =           TRUE
    Meta                =          FALSE

    Exchange Hybrid     =           TRUE
    MP2 Hybrid          =          FALSE

   => Exchange Functionals <=

    0.0800   Slater exchange
    0.7200         Becke 88

   => Exact (HF) Exchange <=

    0.2000               HF 

   => Correlation Functionals <=

    0.1900   Vosko, Wilk & Nusair (VWN5_RPA)
    0.8100   Lee, Yang & Parr

   => LibXC Density Thresholds  <==

    XC_HYB_GGA_XC_B3LYP:  1.00E-15 

   => Molecular Quadrature <=

    Radial Scheme          =       TREUTLER
    Pruning Scheme         =           NONE
    Nuclear Scheme         =       TREUTLER

    Blocking Scheme        =         OCTREE
    BS radius alpha        =              1
    Pruning alpha          =              1
    Radial Points          =             75
    Spherical Points       =            302
    Total Points           =          44281
    Total Blocks           =            425
    Max Points             =            256
    Max Functions          =             28
    Weights Tolerance      =       1.00E-15

   => Loading Basis Set <=

    Name: (CC-PVDZ AUX)
    Role: JKFIT
    Keyword: DF_BASIS_SCF
    atoms 1 entry LI         line    54 file /Users/joseantoniorodriguesromero/anaconda3/share/psi4/basis/def2-universal-jkfit.gbs 
    atoms 2 entry N          line   171 file /Users/joseantoniorodriguesromero/anaconda3/share/psi4/basis/cc-pvdz-jkfit.gbs 

   => Loading Basis Set <=

    Name: CC-PVDZ
    Role: ORBITAL
    Keyword: BASIS
    atoms 1 entry LI         line    42 file /Users/joseantoniorodriguesromero/anaconda3/share/psi4/basis/cc-pvdz.gbs 
    atoms 2 entry N          line   168 file /Users/joseantoniorodriguesromero/anaconda3/share/psi4/basis/cc-pvdz.gbs 

  Reading orbitals from file /tmp/doublet_LiN.default.71942.180.npy, no projection.

  ==> Integral Setup <==

  DFHelper Memory: AOs need 0.001 GiB; user supplied 0.332 GiB. 
  Using in-core AOs.

  ==> MemDFJK: Density-Fitted J/K Matrices <==

    J tasked:                   Yes
    K tasked:                   Yes
    wK tasked:                   No
    OpenMP threads:               1
    Memory [MiB]:               340
    Algorithm:                 Core
    Schwarz Cutoff:           1E-12
    Mask sparsity (%):       0.0000
    Fitting Condition:        1E-10

   => Auxiliary Basis Set <=

  Basis Set: (CC-PVDZ AUX)
    Blend: CC-PVDZ-JKFIT + DEF2-UNIVERSAL-JKFIT
    Number of shells: 41
    Number of basis functions: 121
    Number of Cartesian functions: 141
    Spherical Harmonics?: true
    Max angular momentum: 3

  Cached 100.0% of DFT collocation blocks in 0.034 [GiB].

  Minimum eigenvalue in the overlap matrix is 9.1173107530E-03.
  Reciprocal condition number of the overlap matrix is 3.2168641349E-03.
    Using symmetric orthogonalization.

  ==> Pre-Iterations <==

  SCF Guess: Orbitals guess was supplied from a previous computation.

   -------------------------------------------------------
    Irrep   Nso     Nmo     Nalpha   Nbeta   Ndocc  Nsocc
   -------------------------------------------------------
     A1        14      14       4       3       3       1
     A2         2       2       0       0       0       0
     B1         6       6       1       1       1       0
     B2         6       6       1       1       1       0
   -------------------------------------------------------
    Total      28      28       6       5       5       1
   -------------------------------------------------------

  ==> Iterations <==

                           Total Energy        Delta E     RMS |[F,P]|

   @DF-UKS iter   0:   -62.13040809104748   -6.21304e+01   2.40912e-05 
   @DF-UKS iter   1:   -62.13046219222647   -5.41012e-05   6.11015e-06 DIIS
   @DF-UKS iter   2:   -62.13046204221322    1.50013e-07   2.91611e-05 DIIS/DAMP=1%
   @DF-UKS iter   3:   -62.13044633028566    1.57119e-05   4.26156e-06 DIIS/DAMP=1%
   @DF-UKS iter   4:   -62.13046036476847   -1.40345e-05   1.38322e-06 DIIS/DAMP=1%
   @DF-UKS iter   5:   -62.13046136994038   -1.00517e-06   5.33462e-07 DIIS/DAMP=1%
   @DF-UKS iter   6:   -62.13046293096718   -1.56103e-06   3.76330e-07 DIIS/DAMP=1%
   @DF-UKS iter   7:   -62.13046203267041    8.98297e-07   1.81816e-08 DIIS/DAMP=1%
   @DF-UKS iter   8:   -62.13046219972798   -1.67058e-07   6.75583e-09 DIIS/DAMP=1%
   @DF-UKS iter   9:   -62.13046220173973   -2.01175e-09   9.30187e-10 DIIS/DAMP=1%
  Energy and wave function converged.


  ==> Post-Iterations <==

   Electrons on quadrature grid:
      Nalpha   =    6.0000020810 ; deviation = 2.081e-06
      Nbeta    =    5.0000006522 ; deviation = 6.522e-07
      Ntotal   =   11.0000027332 ; deviation = 2.733e-06 

   @Spin Contamination Metric:   3.645398716E-01
   @S^2 Expected:                7.500000000E-01
   @S^2 Observed:                1.114539872E+00
   @S   Expected:                5.000000000E-01
   @S   Observed:                5.000000000E-01

    Orbital Energies [Eh]
    ---------------------

    Alpha Occupied:                                                       

       1A1   -14.098175     2A1    -1.805364     3A1    -0.470892  
       4A1    -0.058177     1B1    -0.010071     1B2    -0.010071  

    Alpha Virtual:                                                        

       5A1     0.086639     2B1     0.131630     2B2     0.131630  
       6A1     0.157502     7A1     0.232864     3B2     0.261352  
       3B1     0.261352     8A1     0.375001     1A2     0.416415  
       9A1     0.416415     4B1     0.477703     4B2     0.477703  
      10A1     0.563809    11A1     1.043547     5B2     1.110532  
       5B1     1.110532    12A1     1.708789    13A1     1.976474  
      14A1     2.045471     2A2     2.045474     6B1     2.050657  
       6B2     2.050657  

    Beta Occupied:                                                        

       1A1   -14.066646     2A1    -1.802263     3A1    -0.362504  
       1B2     0.053525     1B1     0.053525  

    Beta Virtual:                                                         

       4A1     0.076261     5A1     0.140226     2B2     0.142743  
       2B1     0.142743     6A1     0.167360     7A1     0.236669  
       3B2     0.261948     3B1     0.261948     8A1     0.390929  
       1A2     0.405054     9A1     0.405054     4B1     0.484440  
       4B2     0.484440    10A1     0.575382    11A1     1.132430  
       5B2     1.154230     5B1     1.154230    12A1     1.756475  
      13A1     2.085563    14A1     2.103975     2A2     2.103977  
       6B1     2.143345     6B2     2.143345  

    Final Occupation by Irrep:
             A1    A2    B1    B2 
    DOCC [     3,    0,    1,    1 ]
    SOCC [     1,    0,    0,    0 ]
    NA   [     4,    0,    1,    1 ]
    NB   [     3,    0,    1,    1 ]

  @DF-UKS Final Energy:   -62.13046220173973

   => Energetics <=

    Nuclear Repulsion Energy =              6.5739953284404473
    One-Electron Energy =                 -99.6769832757540257
    Two-Electron Energy =                  38.1235107861195246
    DFT Exchange-Correlation Energy =      -7.1509850405456685
    Empirical Dispersion Energy =           0.0000000000000000
    VV10 Nonlocal Energy =                  0.0000000000000000
    Total Energy =                        -62.1304622017397250

  UHF NO Occupations:
  HONO-2 :    1 B2 1.9049157
  HONO-1 :    1 B1 1.9049157
  HONO-0 :    4 A1 1.0000000
  LUNO+0 :    2 B1 0.0950843
  LUNO+1 :    2 B2 0.0950843
  LUNO+2 :    5 A1 0.0011422
  LUNO+3 :    6 A1 0.0000006


Computation Completed


Properties will be evaluated at   0.000000,   0.000000,   0.000000 [a0]

Properties computed using the SCF density matrix


 Multipole Moments:

 ------------------------------------------------------------------------------------
     Multipole            Electronic (a.u.)      Nuclear  (a.u.)        Total (a.u.)
 ------------------------------------------------------------------------------------

 L = 1.  Multiply by 2.5417464519 to convert [e a0] to [Debye]
 Dipole X            :          0.0000000            0.0000000            0.0000000
 Dipole Y            :          0.0000000            0.0000000            0.0000000
 Dipole Z            :          1.7218721           -1.0794585            0.6424136
 Magnitude           :                                                    0.6424136

 ------------------------------------------------------------------------------------

*** tstop() called on Joses-MacBook-Pro-2.local at Thu Jul 17 09:29:08 2025
Module time:
	user time   =       3.95 seconds =       0.07 minutes
	system time =       2.90 seconds =       0.05 minutes
	total time  =          1 seconds =       0.02 minutes
Total time:
	user time   =      48.91 seconds =       0.82 minutes
	system time =      52.88 seconds =       0.88 minutes
	total time  =         10 seconds =       0.17 minutes

*** tstart() called on Joses-MacBook-Pro-2.local
*** at Thu Jul 17 09:29:08 2025


         ------------------------------------------------------------
                                   SCF GRAD                          
                          Rob Parrish, Justin Turney,                
                       Andy Simmonett, and Alex Sokolov              
         ------------------------------------------------------------

  ==> Geometry <==

    Molecular point group: c2v
    Full point group: C_inf_v

    Geometry (in Angstrom), charge = -1, multiplicity = 2:

       Center              X                  Y                   Z               Mass       
    ------------   -----------------  -----------------  -----------------  -----------------
         LI           0.000000000000     0.000000000000     1.126161743862     7.016003436600
         N            0.000000000000     0.000000000000    -0.564244298259    14.003074004430

  Nuclear repulsion =    6.573995328440447

  ==> Basis Set <==

  Basis Set: CC-PVDZ
    Blend: CC-PVDZ
    Number of shells: 12
    Number of basis functions: 28
    Number of Cartesian functions: 30
    Spherical Harmonics?: true
    Max angular momentum: 2

  ==> DFJKGrad: Density-Fitted SCF Gradients <==

    Gradient:                    1
    J tasked:                  Yes
    K tasked:                  Yes
    wK tasked:                  No
    OpenMP threads:              1
    Integrals threads:           1
    Memory [MiB]:              375
    Schwarz Cutoff:          1E-12
    Fitting Condition:       1E-10

   => Auxiliary Basis Set <=

  Basis Set: (CC-PVDZ AUX)
    Blend: CC-PVDZ-JKFIT + DEF2-UNIVERSAL-JKFIT
    Number of shells: 41
    Number of basis functions: 121
    Number of Cartesian functions: 141
    Spherical Harmonics?: true
    Max angular momentum: 3

  ==> DFT Potential <==

   => LibXC <=

    Version 6.2.2
    S. Lehtola, C. Steigemann, M. J.T. Oliveira, and M. A.L. Marques.,  SoftwareX 7, 1–5 (2018) (10.1016/j.softx.2017.11.002)

   => Composite Functional: B3LYP <= 

    B3LYP Hyb-GGA Exchange-Correlation Functional

    P. J. Stephens, F. J. Devlin, C. F. Chabalowski, and M. J. Frisch.,  J. Phys. Chem. 98, 11623 (1994) (10.1021/j100096a001)

    Deriv               =              1
    GGA                 =           TRUE
    Meta                =          FALSE

    Exchange Hybrid     =           TRUE
    MP2 Hybrid          =          FALSE

   => Exchange Functionals <=

    0.0800   Slater exchange
    0.7200         Becke 88

   => Exact (HF) Exchange <=

    0.2000               HF 

   => Correlation Functionals <=

    0.1900   Vosko, Wilk & Nusair (VWN5_RPA)
    0.8100   Lee, Yang & Parr

   => LibXC Density Thresholds  <==

    XC_HYB_GGA_XC_B3LYP:  1.00E-15 

   => Molecular Quadrature <=

    Radial Scheme          =       TREUTLER
    Pruning Scheme         =           NONE
    Nuclear Scheme         =       TREUTLER

    Blocking Scheme        =         OCTREE
    BS radius alpha        =              1
    Pruning alpha          =              1
    Radial Points          =             75
    Spherical Points       =            302
    Total Points           =          44281
    Total Blocks           =            425
    Max Points             =            256
    Max Functions          =             28
    Weights Tolerance      =       1.00E-15


  -Total Gradient:
     Atom            X                  Y                   Z
    ------   -----------------  -----------------  -----------------
       1       -0.000000000000    -0.000000000000     0.000000670931
       2        0.000000000000    -0.000000000000     0.000047169444


*** tstop() called on Joses-MacBook-Pro-2.local at Thu Jul 17 09:29:08 2025
Module time:
	user time   =       0.62 seconds =       0.01 minutes
	system time =       1.17 seconds =       0.02 minutes
	total time  =          0 seconds =       0.00 minutes
Total time:
	user time   =      49.53 seconds =       0.83 minutes
	system time =      54.06 seconds =       0.90 minutes
	total time  =         10 seconds =       0.17 minutes

    			-----------------------------------------

    			 OPTKING 3.0: for geometry optimizations 

    			     By R.A. King, Bethel University     

    			        with contributions from          

    			    A.V. Copan, J. Cayton, A. Heide      

    			-----------------------------------------

    
	                            ===> Fragment 1 <== 

	 Z (Atomic Numbers)          Masses                          Geom                  
	       3.000000             7.016003          0.00000000  0.00000000  2.12813727   
	       7.000000            14.003074          0.00000000  0.00000000 -1.06626719   

	 - Coordinate -           - BOHR/RAD -       - ANG/DEG -
	 R(1,2)           =         3.194404           1.690406


	        --- Internal Coordinate Step in ANG or DEG, aJ/ANG or AJ/DEG ---
	-------------------------------------------------------------------------------
	           Coordinate      Previous         Force          Change          New 
	           ----------      --------        ------          ------        ------
	               R(1,2)       1.69041        0.00019        0.00009       1.69050
	-------------------------------------------------------------------------------

	                                 ==> Convergence Check <==                                  
    
	Measures of convergence in internal coordinates in au.
    
	Criteria marked as inactive (o), active & met (*), and active & unmet ( ).

	----------------------------------------------------------------------------------------------
	   Step    Total Energy     Delta E     Max Force     RMS Force      Max Disp      RMS Disp   
	----------------------------------------------------------------------------------------------
	  Convergence Criteria     1.00e-06 *    3.00e-04 *             o    1.20e-03 *             o
	----------------------------------------------------------------------------------------------
	    10     -62.13046220   -1.70e-07 *    2.32e-05 *    2.32e-05 o    1.77e-04 *    1.77e-04 o  ~
	----------------------------------------------------------------------------------------------

Next Geometry in Ang 
	Fragment 1 (Ang)

	   Li   0.0000000000   0.0000000000   1.1262084991
	    N   0.0000000000   0.0000000000  -0.5642910535


    Final optimized geometry and variables:
    Molecular point group: c2v
    Full point group: C_inf_v

    Geometry (in Angstrom), charge = -1, multiplicity = 2:

    LI           0.000000000000     0.000000000000     1.126161743862
    N            0.000000000000     0.000000000000    -0.564244298259


    Psi4 stopped on: Thursday, 17 July 2025 09:29AM
    Psi4 wall time for execution: 0:00:10.36

*** Psi4 exiting successfully. Buy a developer a beer!
