
    -----------------------------------------------------------------------
          Psi4: An Open-Source Ab Initio Electronic Structure Package
                               Psi4 1.9.1 release

                         Git: Rev {} zzzzzzz 


    D. G. A. Smith, L. A. Burns, A. C. Simmonett, R. M. Parrish,
    M. C. Schieber, R. Galvelis, P. Kraus, H. Kruse, R. Di Remigio,
    A. Alenaizan, A. M. James, S. Lehtola, J. P. Misiewicz, M. Scheurer,
    R. A. Shaw, J. B. Schriber, Y. Xie, Z. L. Glick, D. A. Sirianni,
    J. S. O'Brien, J. M. Waldrop, A. Kumar, E. G. Hohenstein,
    B. P. Pritchard, B. R. Brooks, H. F. Schaefer III, A. Yu. Sokolov,
    K. Patkowski, A. E. DePrince III, U. Bozkaya, R. A. King,
    F. A. Evangelista, J. M. Turney, T. D. Crawford, C. D. Sherrill,
    J. Chem. Phys. 152(18) 184108 (2020). https://doi.org/10.1063/5.0006002

                            Additional Code Authors
    E. T. Seidl, C. L. Janssen, E. F. Valeev, M. L. Leininger,
    J. F. Gonthier, R. M. Richard, H. R. McAlexander, M. Saitow, X. Wang,
    P. Verma, M. H. Lechner, A. Jiang, S. Behnle, A. G. Heide,
    M. F. Herbst, and D. L. Poole

             Previous Authors, Complete List of Code Contributors,
                       and Citations for Specific Modules
    https://github.com/psi4/psi4/blob/master/codemeta.json
    https://github.com/psi4/psi4/graphs/contributors
    http://psicode.org/psi4manual/master/introduction.html#citing-psifour

    -----------------------------------------------------------------------


    Psi4 started on: Thursday, 17 July 2025 11:22AM

    Process ID: 73104
    Host:       Joses-MacBook-Pro-2.local
    PSIDATADIR: /Users/joseantoniorodriguesromero/anaconda3/share/psi4
    Memory:     500.0 MiB
    Threads:    1
    
  ==> Input File <==

--------------------------------------------------------------------------
molecule { 
-1 4
Mg   0.00000        0.60000        0.00000
Mg   0.00000       -0.60000        0.00000
}

set { 
basis              cc-pvdz
reference          uks
maxiter            500
geom_maxiter       500
DAMPING_PERCENTAGE 1
guess              SAP
}

optimize('b3lyp')
--------------------------------------------------------------------------

Scratch directory: /tmp/
gradient() will perform analytic gradient computation.
   => Libint2 <=

    Primary   basis highest AM E, G, H:  6, 6, 3
    Auxiliary basis highest AM E, G, H:  7, 7, 4
    Onebody   basis highest AM E, G, H:  -, -, -
    Solid Harmonics ordering:            Gaussian

*** tstart() called on Joses-MacBook-Pro-2.local
*** at Thu Jul 17 11:22:19 2025

   => Loading Basis Set <=

    Name: CC-PVDZ
    Role: ORBITAL
    Keyword: BASIS
    atoms 1-2 entry MG         line   353 file /Users/joseantoniorodriguesromero/anaconda3/share/psi4/basis/cc-pvdz.gbs 


         ---------------------------------------------------------
                                   SCF
               by Justin Turney, Rob Parrish, Andy Simmonett
                          and Daniel G. A. Smith
                              UKS Reference
                        1 Threads,    500 MiB Core
         ---------------------------------------------------------

  ==> Geometry <==

    Molecular point group: d2h
    Full point group: D_inf_h

    Geometry (in Angstrom), charge = -1, multiplicity = 4:

       Center              X                  Y                   Z               Mass       
    ------------   -----------------  -----------------  -----------------  -----------------
         MG          -0.000000000000     0.600000000000     0.000000000000    23.985041697000
         MG           0.000000000000    -0.600000000000     0.000000000000    23.985041697000

  Running in d2h symmetry.

  Rotational constants: A = ************  B =      0.97617  C =      0.97617 [cm^-1]
  Rotational constants: A = ************  B =  29264.71002  C =  29264.71002 [MHz]
  Nuclear repulsion =   63.501265280400013

  Charge       = -1
  Multiplicity = 4
  Electrons    = 25
  Nalpha       = 14
  Nbeta        = 11

  ==> Algorithm <==

  SCF Algorithm Type is DF.
  DIIS enabled.
  MOM disabled.
  Fractional occupation disabled.
  Guess Type is SAP.
  Energy threshold   = 1.00e-08
  Density threshold  = 1.00e-08
  Integral threshold = 1.00e-12

  ==> Primary Basis <==

  Basis Set: CC-PVDZ
    Blend: CC-PVDZ
    Number of shells: 16
    Number of basis functions: 36
    Number of Cartesian functions: 38
    Spherical Harmonics?: true
    Max angular momentum: 2

  ==> DFT Potential <==

   => LibXC <=

    Version 6.2.2
    S. Lehtola, C. Steigemann, M. J.T. Oliveira, and M. A.L. Marques.,  SoftwareX 7, 1–5 (2018) (10.1016/j.softx.2017.11.002)

   => Composite Functional: B3LYP <= 

    B3LYP Hyb-GGA Exchange-Correlation Functional

    P. J. Stephens, F. J. Devlin, C. F. Chabalowski, and M. J. Frisch.,  J. Phys. Chem. 98, 11623 (1994) (10.1021/j100096a001)

    Deriv               =              1
    GGA                 =           TRUE
    Meta                =          FALSE

    Exchange Hybrid     =           TRUE
    MP2 Hybrid          =          FALSE

   => Exchange Functionals <=

    0.0800   Slater exchange
    0.7200         Becke 88

   => Exact (HF) Exchange <=

    0.2000               HF 

   => Correlation Functionals <=

    0.1900   Vosko, Wilk & Nusair (VWN5_RPA)
    0.8100   Lee, Yang & Parr

   => LibXC Density Thresholds  <==

    XC_HYB_GGA_XC_B3LYP:  1.00E-15 

   => Molecular Quadrature <=

    Radial Scheme          =       TREUTLER
    Pruning Scheme         =           NONE
    Nuclear Scheme         =       TREUTLER

    Blocking Scheme        =         OCTREE
    BS radius alpha        =              1
    Pruning alpha          =              1
    Radial Points          =             75
    Spherical Points       =            302
    Total Points           =          42208
    Total Blocks           =            420
    Max Points             =            254
    Max Functions          =             36
    Weights Tolerance      =       1.00E-15

   => Loading Basis Set <=

    Name: (CC-PVDZ AUX)
    Role: JKFIT
    Keyword: DF_BASIS_SCF
    atoms 1-2 entry MG         line   576 file /Users/joseantoniorodriguesromero/anaconda3/share/psi4/basis/def2-universal-jkfit.gbs 

  ==> Integral Setup <==

  DFHelper Memory: AOs need 0.003 GiB; user supplied 0.321 GiB. 
  Using in-core AOs.

  ==> MemDFJK: Density-Fitted J/K Matrices <==

    J tasked:                   Yes
    K tasked:                   Yes
    wK tasked:                   No
    OpenMP threads:               1
    Memory [MiB]:               329
    Algorithm:                 Core
    Schwarz Cutoff:           1E-12
    Mask sparsity (%):       0.0000
    Fitting Condition:        1E-10

   => Auxiliary Basis Set <=

  Basis Set: (CC-PVDZ AUX)
    Blend: DEF2-UNIVERSAL-JKFIT
    Number of shells: 68
    Number of basis functions: 224
    Number of Cartesian functions: 274
    Spherical Harmonics?: true
    Max angular momentum: 4

  Cached 100.0% of DFT collocation blocks in 0.045 [GiB].

  Minimum eigenvalue in the overlap matrix is 3.2190976342E-04.
  Reciprocal condition number of the overlap matrix is 8.9617331208E-05.
    Using symmetric orthogonalization.

  ==> Pre-Iterations <==

  SCF Guess: Superposition of Atomic Potentials (doi:10.1021/acs.jctc.8b01089).

  ==> SAP guess <==

   => Molecular Quadrature <=

    Radial Scheme          =       TREUTLER
    Pruning Scheme         =           NONE
    Nuclear Scheme         =       TREUTLER

    Blocking Scheme        =         OCTREE
    BS radius alpha        =              1
    Pruning alpha          =              1
    Radial Points          =             75
    Spherical Points       =            302
    Total Points           =          42208
    Total Blocks           =            420
    Max Points             =            254
    Max Functions          =             36
    Weights Tolerance      =       1.00E-15

   -------------------------------------------------------
    Irrep   Nso     Nmo     Nalpha   Nbeta   Ndocc  Nsocc
   -------------------------------------------------------
     Ag         9       9       4       4       4       0
     B1g        4       4       1       1       1       0
     B2g        1       1       0       0       0       0
     B3g        4       4       1       1       1       0
     Au         1       1       0       0       0       0
     B1u        4       4       2       1       1       1
     B2u        9       9       4       3       3       1
     B3u        4       4       2       1       1       1
   -------------------------------------------------------
    Total      36      36      14      11      11       3
   -------------------------------------------------------

  ==> Iterations <==

                           Total Energy        Delta E     RMS |[F,P]|

   @DF-UKS iter   1:  -399.30696940872605   -3.99307e+02   1.64717e-02 ADIIS/DIIS
   @DF-UKS iter   2:  -399.36544723588042   -5.84778e-02   1.10816e-02 ADIIS/DIIS/DAMP=1%
   @DF-UKS iter   3:  -399.38989461796206   -2.44474e-02   9.88150e-04 ADIIS/DIIS/DAMP=1%
   @DF-UKS iter   4:  -399.41228105312013   -2.23864e-02   7.94353e-05 DIIS/DAMP=1%
   @DF-UKS iter   5:  -399.41075917608356    1.52188e-03   1.36200e-05 DIIS/DAMP=1%
   @DF-UKS iter   6:  -399.41077896226898   -1.97862e-05   1.90886e-06 DIIS/DAMP=1%
   @DF-UKS iter   7:  -399.41077901241641   -5.01474e-08   3.85263e-07 DIIS/DAMP=1%
   @DF-UKS iter   8:  -399.41077622630354    2.78611e-06   3.26623e-08 DIIS/DAMP=1%
   @DF-UKS iter   9:  -399.41077655389665   -3.27593e-07   3.05956e-09 DIIS/DAMP=1%
   @DF-UKS iter  10:  -399.41077652946740    2.44293e-08   3.88042e-10 DIIS/DAMP=1%
   @DF-UKS iter  11:  -399.41077653099762   -1.53022e-09   4.93470e-11 DIIS/DAMP=1%
  Energy and wave function converged.


  ==> Post-Iterations <==

   Electrons on quadrature grid:
      Nalpha   =   13.9999983835 ; deviation = -1.616e-06
      Nbeta    =   10.9999984162 ; deviation = -1.584e-06
      Ntotal   =   24.9999967997 ; deviation = -3.200e-06 

   @Spin Contamination Metric:   3.997463771E-04
   @S^2 Expected:                3.750000000E+00
   @S^2 Observed:                3.750399746E+00
   @S   Expected:                1.500000000E+00
   @S   Observed:                1.500000000E+00

    Orbital Energies [Eh]
    ---------------------

    Alpha Occupied:                                                       

       1B2u  -46.777792     1Ag   -46.777702     2Ag    -3.250464  
       2B2u   -3.022383     3Ag    -2.019487     1B1u   -1.884978  
       1B3u   -1.884978     1B3g   -1.793497     1B1g   -1.793497  
       3B2u   -1.682498     4Ag    -0.123433     2B1u    0.020500  
       2B3u    0.020500     4B2u    0.021716  

    Alpha Virtual:                                                        

       5Ag     0.133980     2B3g    0.165814     2B1g    0.165814  
       5B2u    0.215113     6Ag     0.235918     3B1u    0.242095  
       3B3u    0.242095     6B2u    0.285319     7Ag     0.329778  
       8Ag     0.357012     1B2g    0.357014     3B1g    0.364289  
       3B3g    0.364289     4B1u    0.538083     4B3u    0.538083  
       7B2u    0.591912     8B2u    0.616959     1Au     0.616960  
       4B1g    0.871202     4B3g    0.871202     9Ag     0.944233  
       9B2u    2.871608  

    Beta Occupied:                                                        

       1B2u  -46.774657     1Ag   -46.774567     2Ag    -3.247045  
       2B2u   -3.017917     3Ag    -2.015278     1B1u   -1.878891  
       1B3u   -1.878891     1B3g   -1.787278     1B1g   -1.787278  
       3B2u   -1.678756     4Ag    -0.066776  

    Beta Virtual:                                                         

       4B2u    0.090820     2B1u    0.100567     2B3u    0.100567  
       5Ag     0.159246     2B3g    0.186484     2B1g    0.186484  
       5B2u    0.230323     6Ag     0.254785     3B1u    0.264926  
       3B3u    0.264926     6B2u    0.300816     7Ag     0.358634  
       3B1g    0.395386     3B3g    0.395386     1B2g    0.407603  
       8Ag     0.407605     4B1u    0.573546     4B3u    0.573546  
       7B2u    0.626699     8B2u    0.655158     1Au     0.655158  
       4B1g    0.898832     4B3g    0.898832     9Ag     0.963230  
       9B2u    2.881704  

    Final Occupation by Irrep:
             Ag   B1g   B2g   B3g    Au   B1u   B2u   B3u 
    DOCC [     4,    1,    0,    1,    0,    1,    3,    1 ]
    SOCC [     0,    0,    0,    0,    0,    1,    1,    1 ]
    NA   [     4,    1,    0,    1,    0,    2,    4,    2 ]
    NB   [     4,    1,    0,    1,    0,    1,    3,    1 ]

  @DF-UKS Final Energy:  -399.41077653099762

   => Energetics <=

    Nuclear Repulsion Energy =             63.5012652804000126
    One-Electron Energy =                -684.7449365213262809
    Two-Electron Energy =                 248.7660077683006250
    DFT Exchange-Correlation Energy =     -26.9331130583720224
    Empirical Dispersion Energy =           0.0000000000000000
    VV10 Nonlocal Energy =                  0.0000000000000000
    Total Energy =                       -399.4107765309976799

  UHF NO Occupations:
  HONO-2 :    2B1u 1.0000000
  HONO-1 :    4B2u 1.0000000
  HONO-0 :    2B3u 1.0000000
  LUNO+0 :    5 Ag 0.0001992
  LUNO+1 :    5B2u 0.0000003
  LUNO+2 :    6 Ag 0.0000002
  LUNO+3 :    2B1g 0.0000001


Computation Completed


Properties will be evaluated at   0.000000,   0.000000,   0.000000 [a0]

Properties computed using the SCF density matrix


 Multipole Moments:

 ------------------------------------------------------------------------------------
     Multipole            Electronic (a.u.)      Nuclear  (a.u.)        Total (a.u.)
 ------------------------------------------------------------------------------------

 L = 1.  Multiply by 2.5417464519 to convert [e a0] to [Debye]
 Dipole X            :          0.0000000            0.0000000            0.0000000
 Dipole Y            :          0.0000000            0.0000000            0.0000000
 Dipole Z            :          0.0000000            0.0000000            0.0000000
 Magnitude           :                                                    0.0000000

 ------------------------------------------------------------------------------------

*** tstop() called on Joses-MacBook-Pro-2.local at Thu Jul 17 11:22:21 2025
Module time:
	user time   =      11.26 seconds =       0.19 minutes
	system time =       4.64 seconds =       0.08 minutes
	total time  =          2 seconds =       0.03 minutes
Total time:
	user time   =      11.26 seconds =       0.19 minutes
	system time =       4.64 seconds =       0.08 minutes
	total time  =          2 seconds =       0.03 minutes

*** tstart() called on Joses-MacBook-Pro-2.local
*** at Thu Jul 17 11:22:21 2025


         ------------------------------------------------------------
                                   SCF GRAD                          
                          Rob Parrish, Justin Turney,                
                       Andy Simmonett, and Alex Sokolov              
         ------------------------------------------------------------

  ==> Geometry <==

    Molecular point group: d2h
    Full point group: D_inf_h

    Geometry (in Angstrom), charge = -1, multiplicity = 4:

       Center              X                  Y                   Z               Mass       
    ------------   -----------------  -----------------  -----------------  -----------------
         MG          -0.000000000000     0.600000000000     0.000000000000    23.985041697000
         MG           0.000000000000    -0.600000000000     0.000000000000    23.985041697000

  Nuclear repulsion =   63.501265280400013

  ==> Basis Set <==

  Basis Set: CC-PVDZ
    Blend: CC-PVDZ
    Number of shells: 16
    Number of basis functions: 36
    Number of Cartesian functions: 38
    Spherical Harmonics?: true
    Max angular momentum: 2

  ==> DFJKGrad: Density-Fitted SCF Gradients <==

    Gradient:                    1
    J tasked:                  Yes
    K tasked:                  Yes
    wK tasked:                  No
    OpenMP threads:              1
    Integrals threads:           1
    Memory [MiB]:              375
    Schwarz Cutoff:          1E-12
    Fitting Condition:       1E-10

   => Auxiliary Basis Set <=

  Basis Set: (CC-PVDZ AUX)
    Blend: DEF2-UNIVERSAL-JKFIT
    Number of shells: 68
    Number of basis functions: 224
    Number of Cartesian functions: 274
    Spherical Harmonics?: true
    Max angular momentum: 4

  ==> DFT Potential <==

   => LibXC <=

    Version 6.2.2
    S. Lehtola, C. Steigemann, M. J.T. Oliveira, and M. A.L. Marques.,  SoftwareX 7, 1–5 (2018) (10.1016/j.softx.2017.11.002)

   => Composite Functional: B3LYP <= 

    B3LYP Hyb-GGA Exchange-Correlation Functional

    P. J. Stephens, F. J. Devlin, C. F. Chabalowski, and M. J. Frisch.,  J. Phys. Chem. 98, 11623 (1994) (10.1021/j100096a001)

    Deriv               =              1
    GGA                 =           TRUE
    Meta                =          FALSE

    Exchange Hybrid     =           TRUE
    MP2 Hybrid          =          FALSE

   => Exchange Functionals <=

    0.0800   Slater exchange
    0.7200         Becke 88

   => Exact (HF) Exchange <=

    0.2000               HF 

   => Correlation Functionals <=

    0.1900   Vosko, Wilk & Nusair (VWN5_RPA)
    0.8100   Lee, Yang & Parr

   => LibXC Density Thresholds  <==

    XC_HYB_GGA_XC_B3LYP:  1.00E-15 

   => Molecular Quadrature <=

    Radial Scheme          =       TREUTLER
    Pruning Scheme         =           NONE
    Nuclear Scheme         =       TREUTLER

    Blocking Scheme        =         OCTREE
    BS radius alpha        =              1
    Pruning alpha          =              1
    Radial Points          =             75
    Spherical Points       =            302
    Total Points           =          42208
    Total Blocks           =            420
    Max Points             =            254
    Max Functions          =             36
    Weights Tolerance      =       1.00E-15


  -Total Gradient:
     Atom            X                  Y                   Z
    ------   -----------------  -----------------  -----------------
       1        0.000000000000    -1.269061077127     0.000000000000
       2       -0.000000000000     1.269061077127     0.000000000000


*** tstop() called on Joses-MacBook-Pro-2.local at Thu Jul 17 11:22:22 2025
Module time:
	user time   =       1.47 seconds =       0.02 minutes
	system time =       2.94 seconds =       0.05 minutes
	total time  =          1 seconds =       0.02 minutes
Total time:
	user time   =      12.73 seconds =       0.21 minutes
	system time =       7.59 seconds =       0.13 minutes
	total time  =          3 seconds =       0.05 minutes

    			-----------------------------------------

    			 OPTKING 3.0: for geometry optimizations 

    			     By R.A. King, Bethel University     

    			        with contributions from          

    			    A.V. Copan, J. Cayton, A. Heide      

    			-----------------------------------------

    
	                            ===> Fragment 1 <== 

	 Z (Atomic Numbers)          Masses                          Geom                  
	      12.000000            23.985042         -0.00000000  1.13383568  0.00000000   
	      12.000000            23.985042          0.00000000 -1.13383568  0.00000000   

	 - Coordinate -           - BOHR/RAD -       - ANG/DEG -
	 R(1,2)           =         2.267671           1.200000


	        --- Internal Coordinate Step in ANG or DEG, aJ/ANG or AJ/DEG ---
	-------------------------------------------------------------------------------
	           Coordinate      Previous         Force          Change          New 
	           ----------      --------        ------          ------        ------
	               R(1,2)       1.20000       10.45544        0.00308       1.20308
	-------------------------------------------------------------------------------

	                                 ==> Convergence Check <==                                  
    
	Measures of convergence in internal coordinates in au.
    
	Criteria marked as inactive (o), active & met (*), and active & unmet ( ).

	----------------------------------------------------------------------------------------------
	   Step    Total Energy     Delta E     Max Force     RMS Force      Max Disp      RMS Disp   
	----------------------------------------------------------------------------------------------
	  Convergence Criteria     1.00e-06 *    3.00e-04 *             o    1.20e-03 *             o
	----------------------------------------------------------------------------------------------
	     1    -399.41077653   -3.99e+02      1.27e+00      1.27e+00 o    5.83e-03      5.83e-03 o  ~
	----------------------------------------------------------------------------------------------

Next Geometry in Ang 
	Fragment 1 (Ang)

	   Mg  -0.0000000000   0.6015414772   0.0000000000
	   Mg   0.0000000000  -0.6015414772   0.0000000000


    Structure for next step:
    Molecular point group: d2h
    Full point group: D_inf_h

    Geometry (in Angstrom), charge = -1, multiplicity = 4:

    MG          -0.000000000000     0.601541477158     0.000000000000
    MG           0.000000000000    -0.601541477158     0.000000000000


Scratch directory: /tmp/
gradient() will perform analytic gradient computation.
   => Libint2 <=

    Primary   basis highest AM E, G, H:  6, 6, 3
    Auxiliary basis highest AM E, G, H:  7, 7, 4
    Onebody   basis highest AM E, G, H:  -, -, -
    Solid Harmonics ordering:            Gaussian

*** tstart() called on Joses-MacBook-Pro-2.local
*** at Thu Jul 17 11:22:22 2025

   => Loading Basis Set <=

    Name: CC-PVDZ
    Role: ORBITAL
    Keyword: BASIS
    atoms 1-2 entry MG         line   353 file /Users/joseantoniorodriguesromero/anaconda3/share/psi4/basis/cc-pvdz.gbs 


         ---------------------------------------------------------
                                   SCF
               by Justin Turney, Rob Parrish, Andy Simmonett
                          and Daniel G. A. Smith
                              UKS Reference
                        1 Threads,    500 MiB Core
         ---------------------------------------------------------

  ==> Geometry <==

    Molecular point group: d2h
    Full point group: D_inf_h

    Geometry (in Angstrom), charge = -1, multiplicity = 4:

       Center              X                  Y                   Z               Mass       
    ------------   -----------------  -----------------  -----------------  -----------------
         MG          -0.000000000000     0.601541477158     0.000000000000    23.985041697000
         MG           0.000000000000    -0.601541477158     0.000000000000    23.985041697000

  Running in d2h symmetry.

  Rotational constants: A = ************  B =      0.97117  C =      0.97117 [cm^-1]
  Rotational constants: A = ************  B =  29114.91791  C =  29114.91791 [MHz]
  Nuclear repulsion =   63.338540424904757

  Charge       = -1
  Multiplicity = 4
  Electrons    = 25
  Nalpha       = 14
  Nbeta        = 11

  ==> Algorithm <==

  SCF Algorithm Type is DF.
  DIIS enabled.
  MOM disabled.
  Fractional occupation disabled.
  Guess Type is READ.
  Energy threshold   = 1.00e-08
  Density threshold  = 1.00e-08
  Integral threshold = 1.00e-12

  ==> Primary Basis <==

  Basis Set: CC-PVDZ
    Blend: CC-PVDZ
    Number of shells: 16
    Number of basis functions: 36
    Number of Cartesian functions: 38
    Spherical Harmonics?: true
    Max angular momentum: 2

  ==> DFT Potential <==

   => LibXC <=

    Version 6.2.2
    S. Lehtola, C. Steigemann, M. J.T. Oliveira, and M. A.L. Marques.,  SoftwareX 7, 1–5 (2018) (10.1016/j.softx.2017.11.002)

   => Composite Functional: B3LYP <= 

    B3LYP Hyb-GGA Exchange-Correlation Functional

    P. J. Stephens, F. J. Devlin, C. F. Chabalowski, and M. J. Frisch.,  J. Phys. Chem. 98, 11623 (1994) (10.1021/j100096a001)

    Deriv               =              1
    GGA                 =           TRUE
    Meta                =          FALSE

    Exchange Hybrid     =           TRUE
    MP2 Hybrid          =          FALSE

   => Exchange Functionals <=

    0.0800   Slater exchange
    0.7200         Becke 88

   => Exact (HF) Exchange <=

    0.2000               HF 

   => Correlation Functionals <=

    0.1900   Vosko, Wilk & Nusair (VWN5_RPA)
    0.8100   Lee, Yang & Parr

   => LibXC Density Thresholds  <==

    XC_HYB_GGA_XC_B3LYP:  1.00E-15 

   => Molecular Quadrature <=

    Radial Scheme          =       TREUTLER
    Pruning Scheme         =           NONE
    Nuclear Scheme         =       TREUTLER

    Blocking Scheme        =         OCTREE
    BS radius alpha        =              1
    Pruning alpha          =              1
    Radial Points          =             75
    Spherical Points       =            302
    Total Points           =          42208
    Total Blocks           =            420
    Max Points             =            255
    Max Functions          =             36
    Weights Tolerance      =       1.00E-15

   => Loading Basis Set <=

    Name: (CC-PVDZ AUX)
    Role: JKFIT
    Keyword: DF_BASIS_SCF
    atoms 1-2 entry MG         line   576 file /Users/joseantoniorodriguesromero/anaconda3/share/psi4/basis/def2-universal-jkfit.gbs 

   => Loading Basis Set <=

    Name: CC-PVDZ
    Role: ORBITAL
    Keyword: BASIS
    atoms 1-2 entry MG         line   353 file /Users/joseantoniorodriguesromero/anaconda3/share/psi4/basis/cc-pvdz.gbs 

  Reading orbitals from file /tmp/quartet_MgMg.default.73104.180.npy, no projection.

  ==> Integral Setup <==

  DFHelper Memory: AOs need 0.003 GiB; user supplied 0.321 GiB. 
  Using in-core AOs.

  ==> MemDFJK: Density-Fitted J/K Matrices <==

    J tasked:                   Yes
    K tasked:                   Yes
    wK tasked:                   No
    OpenMP threads:               1
    Memory [MiB]:               329
    Algorithm:                 Core
    Schwarz Cutoff:           1E-12
    Mask sparsity (%):       0.0000
    Fitting Condition:        1E-10

   => Auxiliary Basis Set <=

  Basis Set: (CC-PVDZ AUX)
    Blend: DEF2-UNIVERSAL-JKFIT
    Number of shells: 68
    Number of basis functions: 224
    Number of Cartesian functions: 274
    Spherical Harmonics?: true
    Max angular momentum: 4

  Cached 100.0% of DFT collocation blocks in 0.045 [GiB].

  Minimum eigenvalue in the overlap matrix is 3.2472585433E-04.
  Reciprocal condition number of the overlap matrix is 9.0373907859E-05.
    Using symmetric orthogonalization.

  ==> Pre-Iterations <==

  SCF Guess: Orbitals guess was supplied from a previous computation.

   -------------------------------------------------------
    Irrep   Nso     Nmo     Nalpha   Nbeta   Ndocc  Nsocc
   -------------------------------------------------------
     Ag         9       9       4       4       4       0
     B1g        4       4       1       1       1       0
     B2g        1       1       0       0       0       0
     B3g        4       4       1       1       1       0
     Au         1       1       0       0       0       0
     B1u        4       4       2       1       1       1
     B2u        9       9       4       3       3       1
     B3u        4       4       2       1       1       1
   -------------------------------------------------------
    Total      36      36      14      11      11       3
   -------------------------------------------------------

  ==> Iterations <==

                           Total Energy        Delta E     RMS |[F,P]|

   @DF-UKS iter   0:  -399.41958704660601   -3.99420e+02   6.97554e-04 
   @DF-UKS iter   1:  -399.41812025066429    1.46680e-03   7.02122e-05 DIIS
   @DF-UKS iter   2:  -399.41812061763807   -3.66974e-07   1.90756e-05 DIIS/DAMP=1%
   @DF-UKS iter   3:  -399.41815134696594   -3.07293e-05   3.94258e-06 DIIS/DAMP=1%
   @DF-UKS iter   4:  -399.41811421397682    3.71330e-05   1.52345e-07 DIIS/DAMP=1%
   @DF-UKS iter   5:  -399.41812079217192   -6.57820e-06   3.73253e-08 DIIS/DAMP=1%
   @DF-UKS iter   6:  -399.41812065028580    1.41886e-07   6.08869e-09 DIIS/DAMP=1%
   @DF-UKS iter   7:  -399.41812069022762   -3.99418e-08   8.48474e-10 DIIS/DAMP=1%
   @DF-UKS iter   8:  -399.41812068577661    4.45101e-09   1.38978e-10 DIIS/DAMP=1%
  Energy and wave function converged.


  ==> Post-Iterations <==

   Electrons on quadrature grid:
      Nalpha   =   13.9999984181 ; deviation = -1.582e-06
      Nbeta    =   10.9999984483 ; deviation = -1.552e-06
      Ntotal   =   24.9999968664 ; deviation = -3.134e-06 

   @Spin Contamination Metric:   3.996367162E-04
   @S^2 Expected:                3.750000000E+00
   @S^2 Observed:                3.750399637E+00
   @S   Expected:                1.500000000E+00
   @S   Observed:                1.500000000E+00

    Orbital Energies [Eh]
    ---------------------

    Alpha Occupied:                                                       

       1B2u  -46.777260     1Ag   -46.777170     2Ag    -3.247243  
       2B2u   -3.022431     3Ag    -2.017292     1B3u   -1.883293  
       1B1u   -1.883293     1B1g   -1.793026     1B3g   -1.793026  
       3B2u   -1.683506     4Ag    -0.123336     2B3u    0.020529  
       2B1u    0.020529     4B2u    0.021638  

    Alpha Virtual:                                                        

       5Ag     0.133903     2B1g    0.165745     2B3g    0.165745  
       5B2u    0.214895     6Ag     0.235887     3B3u    0.242086  
       3B1u    0.242086     6B2u    0.285520     7Ag     0.329682  
       8Ag     0.357169     1B2g    0.357171     3B1g    0.364315  
       3B3g    0.364315     4B3u    0.537574     4B1u    0.537574  
       7B2u    0.591308     8B2u    0.616673     1Au     0.616674  
       4B1g    0.871135     4B3g    0.871135     9Ag     0.942358  
       9B2u    2.873891  

    Beta Occupied:                                                        

       1B2u  -46.774127     1Ag   -46.774037     2Ag    -3.243816  
       2B2u   -3.017970     3Ag    -2.013093     1B1u   -1.877208  
       1B3u   -1.877208     1B3g   -1.786812     1B1g   -1.786812  
       3B2u   -1.679769     4Ag    -0.066714  

    Beta Virtual:                                                         

       4B2u    0.090719     2B3u    0.100565     2B1u    0.100565  
       5Ag     0.159179     2B1g    0.186434     2B3g    0.186434  
       5B2u    0.230116     6Ag     0.254758     3B3u    0.264920  
       3B1u    0.264920     6B2u    0.301004     7Ag     0.358501  
       3B1g    0.395384     3B3g    0.395384     1B2g    0.407730  
       8Ag     0.407732     4B3u    0.573013     4B1u    0.573013  
       7B2u    0.626066     8B2u    0.654849     1Au     0.654850  
       4B1g    0.898832     4B3g    0.898832     9Ag     0.961362  
       9B2u    2.883974  

    Final Occupation by Irrep:
             Ag   B1g   B2g   B3g    Au   B1u   B2u   B3u 
    DOCC [     4,    1,    0,    1,    0,    1,    3,    1 ]
    SOCC [     0,    0,    0,    0,    0,    1,    1,    1 ]
    NA   [     4,    1,    0,    1,    0,    2,    4,    2 ]
    NB   [     4,    1,    0,    1,    0,    1,    3,    1 ]

  @DF-UKS Final Energy:  -399.41812068577661

   => Energetics <=

    Nuclear Repulsion Energy =             63.3385404249047568
    One-Electron Energy =                -684.4552037203966393
    Two-Electron Energy =                 248.6295202021247519
    DFT Exchange-Correlation Energy =     -26.9309775924095014
    Empirical Dispersion Energy =           0.0000000000000000
    VV10 Nonlocal Energy =                  0.0000000000000000
    Total Energy =                       -399.4181206857766142

  UHF NO Occupations:
  HONO-2 :    2B3u 1.0000000
  HONO-1 :    4B2u 1.0000000
  HONO-0 :    2B1u 1.0000000
  LUNO+0 :    5 Ag 0.0001992
  LUNO+1 :    5B2u 0.0000003
  LUNO+2 :    6 Ag 0.0000002
  LUNO+3 :    2B3g 0.0000001


Computation Completed


Properties will be evaluated at   0.000000,   0.000000,   0.000000 [a0]

Properties computed using the SCF density matrix


 Multipole Moments:

 ------------------------------------------------------------------------------------
     Multipole            Electronic (a.u.)      Nuclear  (a.u.)        Total (a.u.)
 ------------------------------------------------------------------------------------

 L = 1.  Multiply by 2.5417464519 to convert [e a0] to [Debye]
 Dipole X            :          0.0000000            0.0000000            0.0000000
 Dipole Y            :          0.0000000            0.0000000            0.0000000
 Dipole Z            :          0.0000000            0.0000000            0.0000000
 Magnitude           :                                                    0.0000000

 ------------------------------------------------------------------------------------

*** tstop() called on Joses-MacBook-Pro-2.local at Thu Jul 17 11:22:23 2025
Module time:
	user time   =       4.75 seconds =       0.08 minutes
	system time =       4.97 seconds =       0.08 minutes
	total time  =          1 seconds =       0.02 minutes
Total time:
	user time   =      17.66 seconds =       0.29 minutes
	system time =      12.70 seconds =       0.21 minutes
	total time  =          4 seconds =       0.07 minutes

*** tstart() called on Joses-MacBook-Pro-2.local
*** at Thu Jul 17 11:22:23 2025


         ------------------------------------------------------------
                                   SCF GRAD                          
                          Rob Parrish, Justin Turney,                
                       Andy Simmonett, and Alex Sokolov              
         ------------------------------------------------------------

  ==> Geometry <==

    Molecular point group: d2h
    Full point group: D_inf_h

    Geometry (in Angstrom), charge = -1, multiplicity = 4:

       Center              X                  Y                   Z               Mass       
    ------------   -----------------  -----------------  -----------------  -----------------
         MG          -0.000000000000     0.601541477158     0.000000000000    23.985041697000
         MG           0.000000000000    -0.601541477158     0.000000000000    23.985041697000

  Nuclear repulsion =   63.338540424904757

  ==> Basis Set <==

  Basis Set: CC-PVDZ
    Blend: CC-PVDZ
    Number of shells: 16
    Number of basis functions: 36
    Number of Cartesian functions: 38
    Spherical Harmonics?: true
    Max angular momentum: 2

  ==> DFJKGrad: Density-Fitted SCF Gradients <==

    Gradient:                    1
    J tasked:                  Yes
    K tasked:                  Yes
    wK tasked:                  No
    OpenMP threads:              1
    Integrals threads:           1
    Memory [MiB]:              375
    Schwarz Cutoff:          1E-12
    Fitting Condition:       1E-10

   => Auxiliary Basis Set <=

  Basis Set: (CC-PVDZ AUX)
    Blend: DEF2-UNIVERSAL-JKFIT
    Number of shells: 68
    Number of basis functions: 224
    Number of Cartesian functions: 274
    Spherical Harmonics?: true
    Max angular momentum: 4

  ==> DFT Potential <==

   => LibXC <=

    Version 6.2.2
    S. Lehtola, C. Steigemann, M. J.T. Oliveira, and M. A.L. Marques.,  SoftwareX 7, 1–5 (2018) (10.1016/j.softx.2017.11.002)

   => Composite Functional: B3LYP <= 

    B3LYP Hyb-GGA Exchange-Correlation Functional

    P. J. Stephens, F. J. Devlin, C. F. Chabalowski, and M. J. Frisch.,  J. Phys. Chem. 98, 11623 (1994) (10.1021/j100096a001)

    Deriv               =              1
    GGA                 =           TRUE
    Meta                =          FALSE

    Exchange Hybrid     =           TRUE
    MP2 Hybrid          =          FALSE

   => Exchange Functionals <=

    0.0800   Slater exchange
    0.7200         Becke 88

   => Exact (HF) Exchange <=

    0.2000               HF 

   => Correlation Functionals <=

    0.1900   Vosko, Wilk & Nusair (VWN5_RPA)
    0.8100   Lee, Yang & Parr

   => LibXC Density Thresholds  <==

    XC_HYB_GGA_XC_B3LYP:  1.00E-15 

   => Molecular Quadrature <=

    Radial Scheme          =       TREUTLER
    Pruning Scheme         =           NONE
    Nuclear Scheme         =       TREUTLER

    Blocking Scheme        =         OCTREE
    BS radius alpha        =              1
    Pruning alpha          =              1
    Radial Points          =             75
    Spherical Points       =            302
    Total Points           =          42208
    Total Blocks           =            420
    Max Points             =            255
    Max Functions          =             36
    Weights Tolerance      =       1.00E-15


  -Total Gradient:
     Atom            X                  Y                   Z
    ------   -----------------  -----------------  -----------------
       1        0.000000000000    -1.252365867678     0.000000000000
       2       -0.000000000000     1.252365867678     0.000000000000


*** tstop() called on Joses-MacBook-Pro-2.local at Thu Jul 17 11:22:23 2025
Module time:
	user time   =       1.58 seconds =       0.03 minutes
	system time =       2.94 seconds =       0.05 minutes
	total time  =          0 seconds =       0.00 minutes
Total time:
	user time   =      19.24 seconds =       0.32 minutes
	system time =      15.65 seconds =       0.26 minutes
	total time  =          4 seconds =       0.07 minutes

    			-----------------------------------------

    			 OPTKING 3.0: for geometry optimizations 

    			     By R.A. King, Bethel University     

    			        with contributions from          

    			    A.V. Copan, J. Cayton, A. Heide      

    			-----------------------------------------

    
	                            ===> Fragment 1 <== 

	 Z (Atomic Numbers)          Masses                          Geom                  
	      12.000000            23.985042         -0.00000000  1.13674864  0.00000000   
	      12.000000            23.985042          0.00000000 -1.13674864  0.00000000   

	 - Coordinate -           - BOHR/RAD -       - ANG/DEG -
	 R(1,2)           =         2.273497           1.203083


	        --- Internal Coordinate Step in ANG or DEG, aJ/ANG or AJ/DEG ---
	-------------------------------------------------------------------------------
	           Coordinate      Previous         Force          Change          New 
	           ----------      --------        ------          ------        ------
	               R(1,2)       1.20308       10.31790        0.00608       1.20917
	-------------------------------------------------------------------------------

	                                 ==> Convergence Check <==                                  
    
	Measures of convergence in internal coordinates in au.
    
	Criteria marked as inactive (o), active & met (*), and active & unmet ( ).

	----------------------------------------------------------------------------------------------
	   Step    Total Energy     Delta E     Max Force     RMS Force      Max Disp      RMS Disp   
	----------------------------------------------------------------------------------------------
	  Convergence Criteria     1.00e-06 *    3.00e-04 *             o    1.20e-03 *             o
	----------------------------------------------------------------------------------------------
	     2    -399.41812069   -7.34e-03      1.25e+00      1.25e+00 o    1.15e-02      1.15e-02 o  ~
	----------------------------------------------------------------------------------------------

Next Geometry in Ang 
	Fragment 1 (Ang)

	   Mg  -0.0000000000   0.6045835746   0.0000000000
	   Mg   0.0000000000  -0.6045835746   0.0000000000


    Structure for next step:
    Molecular point group: d2h
    Full point group: D_inf_h

    Geometry (in Angstrom), charge = -1, multiplicity = 4:

    MG          -0.000000000000     0.604583574558     0.000000000000
    MG           0.000000000000    -0.604583574558     0.000000000000


Scratch directory: /tmp/
gradient() will perform analytic gradient computation.
   => Libint2 <=

    Primary   basis highest AM E, G, H:  6, 6, 3
    Auxiliary basis highest AM E, G, H:  7, 7, 4
    Onebody   basis highest AM E, G, H:  -, -, -
    Solid Harmonics ordering:            Gaussian

*** tstart() called on Joses-MacBook-Pro-2.local
*** at Thu Jul 17 11:22:23 2025

   => Loading Basis Set <=

    Name: CC-PVDZ
    Role: ORBITAL
    Keyword: BASIS
    atoms 1-2 entry MG         line   353 file /Users/joseantoniorodriguesromero/anaconda3/share/psi4/basis/cc-pvdz.gbs 


         ---------------------------------------------------------
                                   SCF
               by Justin Turney, Rob Parrish, Andy Simmonett
                          and Daniel G. A. Smith
                              UKS Reference
                        1 Threads,    500 MiB Core
         ---------------------------------------------------------

  ==> Geometry <==

    Molecular point group: d2h
    Full point group: D_inf_h

    Geometry (in Angstrom), charge = -1, multiplicity = 4:

       Center              X                  Y                   Z               Mass       
    ------------   -----------------  -----------------  -----------------  -----------------
         MG          -0.000000000000     0.604583574558     0.000000000000    23.985041697000
         MG           0.000000000000    -0.604583574558     0.000000000000    23.985041697000

  Running in d2h symmetry.

  Rotational constants: A = ************  B =      0.96142  C =      0.96142 [cm^-1]
  Rotational constants: A = ************  B =  28822.65862  C =  28822.65862 [MHz]
  Nuclear repulsion =   63.019838400546035

  Charge       = -1
  Multiplicity = 4
  Electrons    = 25
  Nalpha       = 14
  Nbeta        = 11

  ==> Algorithm <==

  SCF Algorithm Type is DF.
  DIIS enabled.
  MOM disabled.
  Fractional occupation disabled.
  Guess Type is READ.
  Energy threshold   = 1.00e-08
  Density threshold  = 1.00e-08
  Integral threshold = 1.00e-12

  ==> Primary Basis <==

  Basis Set: CC-PVDZ
    Blend: CC-PVDZ
    Number of shells: 16
    Number of basis functions: 36
    Number of Cartesian functions: 38
    Spherical Harmonics?: true
    Max angular momentum: 2

  ==> DFT Potential <==

   => LibXC <=

    Version 6.2.2
    S. Lehtola, C. Steigemann, M. J.T. Oliveira, and M. A.L. Marques.,  SoftwareX 7, 1–5 (2018) (10.1016/j.softx.2017.11.002)

   => Composite Functional: B3LYP <= 

    B3LYP Hyb-GGA Exchange-Correlation Functional

    P. J. Stephens, F. J. Devlin, C. F. Chabalowski, and M. J. Frisch.,  J. Phys. Chem. 98, 11623 (1994) (10.1021/j100096a001)

    Deriv               =              1
    GGA                 =           TRUE
    Meta                =          FALSE

    Exchange Hybrid     =           TRUE
    MP2 Hybrid          =          FALSE

   => Exchange Functionals <=

    0.0800   Slater exchange
    0.7200         Becke 88

   => Exact (HF) Exchange <=

    0.2000               HF 

   => Correlation Functionals <=

    0.1900   Vosko, Wilk & Nusair (VWN5_RPA)
    0.8100   Lee, Yang & Parr

   => LibXC Density Thresholds  <==

    XC_HYB_GGA_XC_B3LYP:  1.00E-15 

   => Molecular Quadrature <=

    Radial Scheme          =       TREUTLER
    Pruning Scheme         =           NONE
    Nuclear Scheme         =       TREUTLER

    Blocking Scheme        =         OCTREE
    BS radius alpha        =              1
    Pruning alpha          =              1
    Radial Points          =             75
    Spherical Points       =            302
    Total Points           =          42206
    Total Blocks           =            420
    Max Points             =            256
    Max Functions          =             36
    Weights Tolerance      =       1.00E-15

   => Loading Basis Set <=

    Name: (CC-PVDZ AUX)
    Role: JKFIT
    Keyword: DF_BASIS_SCF
    atoms 1-2 entry MG         line   576 file /Users/joseantoniorodriguesromero/anaconda3/share/psi4/basis/def2-universal-jkfit.gbs 

   => Loading Basis Set <=

    Name: CC-PVDZ
    Role: ORBITAL
    Keyword: BASIS
    atoms 1-2 entry MG         line   353 file /Users/joseantoniorodriguesromero/anaconda3/share/psi4/basis/cc-pvdz.gbs 

  Reading orbitals from file /tmp/quartet_MgMg.default.73104.180.npy, no projection.

  ==> Integral Setup <==

  DFHelper Memory: AOs need 0.003 GiB; user supplied 0.321 GiB. 
  Using in-core AOs.

  ==> MemDFJK: Density-Fitted J/K Matrices <==

    J tasked:                   Yes
    K tasked:                   Yes
    wK tasked:                   No
    OpenMP threads:               1
    Memory [MiB]:               329
    Algorithm:                 Core
    Schwarz Cutoff:           1E-12
    Mask sparsity (%):       0.0000
    Fitting Condition:        1E-10

   => Auxiliary Basis Set <=

  Basis Set: (CC-PVDZ AUX)
    Blend: DEF2-UNIVERSAL-JKFIT
    Number of shells: 68
    Number of basis functions: 224
    Number of Cartesian functions: 274
    Spherical Harmonics?: true
    Max angular momentum: 4

  Cached 100.0% of DFT collocation blocks in 0.045 [GiB].

  Minimum eigenvalue in the overlap matrix is 3.3029656040E-04.
  Reciprocal condition number of the overlap matrix is 9.1869431978E-05.
    Using symmetric orthogonalization.

  ==> Pre-Iterations <==

  SCF Guess: Orbitals guess was supplied from a previous computation.

   -------------------------------------------------------
    Irrep   Nso     Nmo     Nalpha   Nbeta   Ndocc  Nsocc
   -------------------------------------------------------
     Ag         9       9       4       4       4       0
     B1g        4       4       1       1       1       0
     B2g        1       1       0       0       0       0
     B3g        4       4       1       1       1       0
     Au         1       1       0       0       0       0
     B1u        4       4       2       1       1       1
     B2u        9       9       4       3       3       1
     B3u        4       4       2       1       1       1
   -------------------------------------------------------
    Total      36      36      14      11      11       3
   -------------------------------------------------------

  ==> Iterations <==

                           Total Energy        Delta E     RMS |[F,P]|

   @DF-UKS iter   0:  -399.43520733486861   -3.99435e+02   1.35514e-03 
   @DF-UKS iter   1:  -399.43233136057438    2.87597e-03   1.35179e-04 ADIIS/DIIS
   @DF-UKS iter   2:  -399.43233272903552   -1.36846e-06   3.60288e-05 DIIS/DAMP=1%
   @DF-UKS iter   3:  -399.43239049155778   -5.77625e-05   7.50758e-06 DIIS/DAMP=1%
   @DF-UKS iter   4:  -399.43232064031014    6.98512e-05   3.06257e-07 DIIS/DAMP=1%
   @DF-UKS iter   5:  -399.43233318672645   -1.25464e-05   7.33737e-08 DIIS/DAMP=1%
   @DF-UKS iter   6:  -399.43233290090268    2.85824e-07   1.22418e-08 DIIS/DAMP=1%
   @DF-UKS iter   7:  -399.43233297503866   -7.41360e-08   1.68914e-09 DIIS/DAMP=1%
   @DF-UKS iter   8:  -399.43233296617205    8.86661e-09   2.68030e-10 DIIS/DAMP=1%
  Energy and wave function converged.


  ==> Post-Iterations <==

   Electrons on quadrature grid:
      Nalpha   =   13.9999984978 ; deviation = -1.502e-06
      Nbeta    =   10.9999985229 ; deviation = -1.477e-06
      Ntotal   =   24.9999970206 ; deviation = -2.979e-06 

   @Spin Contamination Metric:   3.994217896E-04
   @S^2 Expected:                3.750000000E+00
   @S^2 Observed:                3.750399422E+00
   @S   Expected:                1.500000000E+00
   @S   Observed:                1.500000000E+00

    Orbital Energies [Eh]
    ---------------------

    Alpha Occupied:                                                       

       1B2u  -46.776200     1Ag   -46.776110     2Ag    -3.240984  
       2B2u   -3.022494     3Ag    -2.012978     1B1u   -1.880005  
       1B3u   -1.880005     1B3g   -1.792087     1B1g   -1.792087  
       3B2u   -1.685426     4Ag    -0.123148     2B3u    0.020589  
       2B1u    0.020589     4B2u    0.021484  

    Alpha Virtual:                                                        

       5Ag     0.133749     2B3g    0.165608     2B1g    0.165608  
       5B2u    0.214472     6Ag     0.235824     3B3u    0.242068  
       3B1u    0.242068     6B2u    0.285910     7Ag     0.329488  
       8Ag     0.357483     1B2g    0.357486     3B3g    0.364366  
       3B1g    0.364366     4B3u    0.536576     4B1u    0.536576  
       7B2u    0.590124     8B2u    0.616110     1Au     0.616111  
       4B1g    0.870988     4B3g    0.870988     9Ag     0.938614  
       9B2u    2.878377  

    Beta Occupied:                                                        

       1B2u  -46.773071     1Ag   -46.772981     2Ag    -3.237543  
       2B2u   -3.018041     3Ag    -2.008797     1B1u   -1.873923  
       1B3u   -1.873923     1B3g   -1.785880     1B1g   -1.785880  
       3B2u   -1.681698     4Ag    -0.066595  

    Beta Virtual:                                                         

       4B2u    0.090519     2B1u    0.100561     2B3u    0.100561  
       5Ag     0.159044     2B3g    0.186336     2B1g    0.186336  
       5B2u    0.229713     6Ag     0.254705     3B3u    0.264909  
       3B1u    0.264909     6B2u    0.301369     7Ag     0.358233  
       3B3g    0.395379     3B1g    0.395379     1B2g    0.407984  
       8Ag     0.407986     4B3u    0.571969     4B1u    0.571969  
       7B2u    0.624824     8B2u    0.654242     1Au     0.654243  
       4B1g    0.898815     4B3g    0.898815     9Ag     0.957634  
       9B2u    2.888437  

    Final Occupation by Irrep:
             Ag   B1g   B2g   B3g    Au   B1u   B2u   B3u 
    DOCC [     4,    1,    0,    1,    0,    1,    3,    1 ]
    SOCC [     0,    0,    0,    0,    0,    1,    1,    1 ]
    NA   [     4,    1,    0,    1,    0,    2,    4,    2 ]
    NB   [     4,    1,    0,    1,    0,    1,    3,    1 ]

  @DF-UKS Final Energy:  -399.43233296617205

   => Energetics <=

    Nuclear Repulsion Energy =             63.0198384005460355
    One-Electron Energy =                -683.8875836899505885
    Two-Electron Energy =                 248.3622475009054824
    DFT Exchange-Correlation Energy =     -26.9268351776729986
    Empirical Dispersion Energy =           0.0000000000000000
    VV10 Nonlocal Energy =                  0.0000000000000000
    Total Energy =                       -399.4323329661720550

  UHF NO Occupations:
  HONO-2 :    4B2u 1.0000000
  HONO-1 :    2B3u 1.0000000
  HONO-0 :    2B1u 1.0000000
  LUNO+0 :    5 Ag 0.0001991
  LUNO+1 :    5B2u 0.0000003
  LUNO+2 :    6 Ag 0.0000002
  LUNO+3 :    2B1g 0.0000001


Computation Completed


Properties will be evaluated at   0.000000,   0.000000,   0.000000 [a0]

Properties computed using the SCF density matrix


 Multipole Moments:

 ------------------------------------------------------------------------------------
     Multipole            Electronic (a.u.)      Nuclear  (a.u.)        Total (a.u.)
 ------------------------------------------------------------------------------------

 L = 1.  Multiply by 2.5417464519 to convert [e a0] to [Debye]
 Dipole X            :          0.0000000            0.0000000            0.0000000
 Dipole Y            :          0.0000000            0.0000000            0.0000000
 Dipole Z            :          0.0000000            0.0000000            0.0000000
 Magnitude           :                                                    0.0000000

 ------------------------------------------------------------------------------------

*** tstop() called on Joses-MacBook-Pro-2.local at Thu Jul 17 11:22:24 2025
Module time:
	user time   =       6.35 seconds =       0.11 minutes
	system time =       4.98 seconds =       0.08 minutes
	total time  =          1 seconds =       0.02 minutes
Total time:
	user time   =      25.74 seconds =       0.43 minutes
	system time =      20.78 seconds =       0.35 minutes
	total time  =          5 seconds =       0.08 minutes

*** tstart() called on Joses-MacBook-Pro-2.local
*** at Thu Jul 17 11:22:24 2025


         ------------------------------------------------------------
                                   SCF GRAD                          
                          Rob Parrish, Justin Turney,                
                       Andy Simmonett, and Alex Sokolov              
         ------------------------------------------------------------

  ==> Geometry <==

    Molecular point group: d2h
    Full point group: D_inf_h

    Geometry (in Angstrom), charge = -1, multiplicity = 4:

       Center              X                  Y                   Z               Mass       
    ------------   -----------------  -----------------  -----------------  -----------------
         MG          -0.000000000000     0.604583574558     0.000000000000    23.985041697000
         MG           0.000000000000    -0.604583574558     0.000000000000    23.985041697000

  Nuclear repulsion =   63.019838400546035

  ==> Basis Set <==

  Basis Set: CC-PVDZ
    Blend: CC-PVDZ
    Number of shells: 16
    Number of basis functions: 36
    Number of Cartesian functions: 38
    Spherical Harmonics?: true
    Max angular momentum: 2

  ==> DFJKGrad: Density-Fitted SCF Gradients <==

    Gradient:                    1
    J tasked:                  Yes
    K tasked:                  Yes
    wK tasked:                  No
    OpenMP threads:              1
    Integrals threads:           1
    Memory [MiB]:              375
    Schwarz Cutoff:          1E-12
    Fitting Condition:       1E-10

   => Auxiliary Basis Set <=

  Basis Set: (CC-PVDZ AUX)
    Blend: DEF2-UNIVERSAL-JKFIT
    Number of shells: 68
    Number of basis functions: 224
    Number of Cartesian functions: 274
    Spherical Harmonics?: true
    Max angular momentum: 4

  ==> DFT Potential <==

   => LibXC <=

    Version 6.2.2
    S. Lehtola, C. Steigemann, M. J.T. Oliveira, and M. A.L. Marques.,  SoftwareX 7, 1–5 (2018) (10.1016/j.softx.2017.11.002)

   => Composite Functional: B3LYP <= 

    B3LYP Hyb-GGA Exchange-Correlation Functional

    P. J. Stephens, F. J. Devlin, C. F. Chabalowski, and M. J. Frisch.,  J. Phys. Chem. 98, 11623 (1994) (10.1021/j100096a001)

    Deriv               =              1
    GGA                 =           TRUE
    Meta                =          FALSE

    Exchange Hybrid     =           TRUE
    MP2 Hybrid          =          FALSE

   => Exchange Functionals <=

    0.0800   Slater exchange
    0.7200         Becke 88

   => Exact (HF) Exchange <=

    0.2000               HF 

   => Correlation Functionals <=

    0.1900   Vosko, Wilk & Nusair (VWN5_RPA)
    0.8100   Lee, Yang & Parr

   => LibXC Density Thresholds  <==

    XC_HYB_GGA_XC_B3LYP:  1.00E-15 

   => Molecular Quadrature <=

    Radial Scheme          =       TREUTLER
    Pruning Scheme         =           NONE
    Nuclear Scheme         =       TREUTLER

    Blocking Scheme        =         OCTREE
    BS radius alpha        =              1
    Pruning alpha          =              1
    Radial Points          =             75
    Spherical Points       =            302
    Total Points           =          42206
    Total Blocks           =            420
    Max Points             =            256
    Max Functions          =             36
    Weights Tolerance      =       1.00E-15


  -Total Gradient:
     Atom            X                  Y                   Z
    ------   -----------------  -----------------  -----------------
       1        0.000000000000    -1.220248097230     0.000000000000
       2       -0.000000000000     1.220248097230    -0.000000000000


*** tstop() called on Joses-MacBook-Pro-2.local at Thu Jul 17 11:22:25 2025
Module time:
	user time   =       1.61 seconds =       0.03 minutes
	system time =       2.95 seconds =       0.05 minutes
	total time  =          1 seconds =       0.02 minutes
Total time:
	user time   =      27.35 seconds =       0.46 minutes
	system time =      23.73 seconds =       0.40 minutes
	total time  =          6 seconds =       0.10 minutes

    			-----------------------------------------

    			 OPTKING 3.0: for geometry optimizations 

    			     By R.A. King, Bethel University     

    			        with contributions from          

    			    A.V. Copan, J. Cayton, A. Heide      

    			-----------------------------------------

    
	                            ===> Fragment 1 <== 

	 Z (Atomic Numbers)          Masses                          Geom                  
	      12.000000            23.985042         -0.00000000  1.14249738  0.00000000   
	      12.000000            23.985042          0.00000000 -1.14249738  0.00000000   

	 - Coordinate -           - BOHR/RAD -       - ANG/DEG -
	 R(1,2)           =         2.284995           1.209167


	        --- Internal Coordinate Step in ANG or DEG, aJ/ANG or AJ/DEG ---
	-------------------------------------------------------------------------------
	           Coordinate      Previous         Force          Change          New 
	           ----------      --------        ------          ------        ------
	               R(1,2)       1.20917       10.05329        0.02367       1.23284
	-------------------------------------------------------------------------------

	                                 ==> Convergence Check <==                                  
    
	Measures of convergence in internal coordinates in au.
    
	Criteria marked as inactive (o), active & met (*), and active & unmet ( ).

	----------------------------------------------------------------------------------------------
	   Step    Total Energy     Delta E     Max Force     RMS Force      Max Disp      RMS Disp   
	----------------------------------------------------------------------------------------------
	  Convergence Criteria     1.00e-06 *    3.00e-04 *             o    1.20e-03 *             o
	----------------------------------------------------------------------------------------------
	     3    -399.43233297   -1.42e-02      1.22e+00      1.22e+00 o    4.47e-02      4.47e-02 o  ~
	----------------------------------------------------------------------------------------------

Next Geometry in Ang 
	Fragment 1 (Ang)

	   Mg  -0.0000000000   0.6164177437   0.0000000000
	   Mg   0.0000000000  -0.6164177437   0.0000000000


    Structure for next step:
    Molecular point group: d2h
    Full point group: D_inf_h

    Geometry (in Angstrom), charge = -1, multiplicity = 4:

    MG          -0.000000000000     0.616417743659     0.000000000000
    MG           0.000000000000    -0.616417743659     0.000000000000


Scratch directory: /tmp/
gradient() will perform analytic gradient computation.
   => Libint2 <=

    Primary   basis highest AM E, G, H:  6, 6, 3
    Auxiliary basis highest AM E, G, H:  7, 7, 4
    Onebody   basis highest AM E, G, H:  -, -, -
    Solid Harmonics ordering:            Gaussian

*** tstart() called on Joses-MacBook-Pro-2.local
*** at Thu Jul 17 11:22:25 2025

   => Loading Basis Set <=

    Name: CC-PVDZ
    Role: ORBITAL
    Keyword: BASIS
    atoms 1-2 entry MG         line   353 file /Users/joseantoniorodriguesromero/anaconda3/share/psi4/basis/cc-pvdz.gbs 


         ---------------------------------------------------------
                                   SCF
               by Justin Turney, Rob Parrish, Andy Simmonett
                          and Daniel G. A. Smith
                              UKS Reference
                        1 Threads,    500 MiB Core
         ---------------------------------------------------------

  ==> Geometry <==

    Molecular point group: d2h
    Full point group: D_inf_h

    Geometry (in Angstrom), charge = -1, multiplicity = 4:

       Center              X                  Y                   Z               Mass       
    ------------   -----------------  -----------------  -----------------  -----------------
         MG          -0.000000000000     0.616417743659     0.000000000000    23.985041697000
         MG           0.000000000000    -0.616417743659     0.000000000000    23.985041697000

  Running in d2h symmetry.

  Rotational constants: A = ************  B =      0.92486  C =      0.92486 [cm^-1]
  Rotational constants: A = ************  B =  27726.59016  C =  27726.59016 [MHz]
  Nuclear repulsion =   61.809965011815343

  Charge       = -1
  Multiplicity = 4
  Electrons    = 25
  Nalpha       = 14
  Nbeta        = 11

  ==> Algorithm <==

  SCF Algorithm Type is DF.
  DIIS enabled.
  MOM disabled.
  Fractional occupation disabled.
  Guess Type is READ.
  Energy threshold   = 1.00e-08
  Density threshold  = 1.00e-08
  Integral threshold = 1.00e-12

  ==> Primary Basis <==

  Basis Set: CC-PVDZ
    Blend: CC-PVDZ
    Number of shells: 16
    Number of basis functions: 36
    Number of Cartesian functions: 38
    Spherical Harmonics?: true
    Max angular momentum: 2

  ==> DFT Potential <==

   => LibXC <=

    Version 6.2.2
    S. Lehtola, C. Steigemann, M. J.T. Oliveira, and M. A.L. Marques.,  SoftwareX 7, 1–5 (2018) (10.1016/j.softx.2017.11.002)

   => Composite Functional: B3LYP <= 

    B3LYP Hyb-GGA Exchange-Correlation Functional

    P. J. Stephens, F. J. Devlin, C. F. Chabalowski, and M. J. Frisch.,  J. Phys. Chem. 98, 11623 (1994) (10.1021/j100096a001)

    Deriv               =              1
    GGA                 =           TRUE
    Meta                =          FALSE

    Exchange Hybrid     =           TRUE
    MP2 Hybrid          =          FALSE

   => Exchange Functionals <=

    0.0800   Slater exchange
    0.7200         Becke 88

   => Exact (HF) Exchange <=

    0.2000               HF 

   => Correlation Functionals <=

    0.1900   Vosko, Wilk & Nusair (VWN5_RPA)
    0.8100   Lee, Yang & Parr

   => LibXC Density Thresholds  <==

    XC_HYB_GGA_XC_B3LYP:  1.00E-15 

   => Molecular Quadrature <=

    Radial Scheme          =       TREUTLER
    Pruning Scheme         =           NONE
    Nuclear Scheme         =       TREUTLER

    Blocking Scheme        =         OCTREE
    BS radius alpha        =              1
    Pruning alpha          =              1
    Radial Points          =             75
    Spherical Points       =            302
    Total Points           =          42208
    Total Blocks           =            420
    Max Points             =            253
    Max Functions          =             36
    Weights Tolerance      =       1.00E-15

   => Loading Basis Set <=

    Name: (CC-PVDZ AUX)
    Role: JKFIT
    Keyword: DF_BASIS_SCF
    atoms 1-2 entry MG         line   576 file /Users/joseantoniorodriguesromero/anaconda3/share/psi4/basis/def2-universal-jkfit.gbs 

   => Loading Basis Set <=

    Name: CC-PVDZ
    Role: ORBITAL
    Keyword: BASIS
    atoms 1-2 entry MG         line   353 file /Users/joseantoniorodriguesromero/anaconda3/share/psi4/basis/cc-pvdz.gbs 

  Reading orbitals from file /tmp/quartet_MgMg.default.73104.180.npy, no projection.

  ==> Integral Setup <==

  DFHelper Memory: AOs need 0.003 GiB; user supplied 0.321 GiB. 
  Using in-core AOs.

  ==> MemDFJK: Density-Fitted J/K Matrices <==

    J tasked:                   Yes
    K tasked:                   Yes
    wK tasked:                   No
    OpenMP threads:               1
    Memory [MiB]:               329
    Algorithm:                 Core
    Schwarz Cutoff:           1E-12
    Mask sparsity (%):       0.0000
    Fitting Condition:        1E-10

   => Auxiliary Basis Set <=

  Basis Set: (CC-PVDZ AUX)
    Blend: DEF2-UNIVERSAL-JKFIT
    Number of shells: 68
    Number of basis functions: 224
    Number of Cartesian functions: 274
    Spherical Harmonics?: true
    Max angular momentum: 4

  Cached 100.0% of DFT collocation blocks in 0.045 [GiB].

  Minimum eigenvalue in the overlap matrix is 3.5207240455E-04.
  Reciprocal condition number of the overlap matrix is 9.7700966439E-05.
    Using symmetric orthogonalization.

  ==> Pre-Iterations <==

  SCF Guess: Orbitals guess was supplied from a previous computation.

   -------------------------------------------------------
    Irrep   Nso     Nmo     Nalpha   Nbeta   Ndocc  Nsocc
   -------------------------------------------------------
     Ag         9       9       4       4       4       0
     B1g        4       4       1       1       1       0
     B2g        1       1       0       0       0       0
     B3g        4       4       1       1       1       0
     Au         1       1       0       0       0       0
     B1u        4       4       2       1       1       1
     B2u        9       9       4       3       3       1
     B3u        4       4       2       1       1       1
   -------------------------------------------------------
    Total      36      36      14      11      11       3
   -------------------------------------------------------

  ==> Iterations <==

                           Total Energy        Delta E     RMS |[F,P]|

   @DF-UKS iter   0:  -399.49559037207757   -3.99496e+02   5.02233e-03 
   @DF-UKS iter   1:  -399.48425612702164    1.13342e-02   4.88278e-04 ADIIS/DIIS
   @DF-UKS iter   2:  -399.48427445949193   -1.83325e-05   1.22510e-04 ADIIS/DIIS/DAMP=1%
   @DF-UKS iter   3:  -399.48446770818737   -1.93249e-04   2.60249e-05 DIIS/DAMP=1%
   @DF-UKS iter   4:  -399.48423420541326    2.33503e-04   1.28483e-06 DIIS/DAMP=1%
   @DF-UKS iter   5:  -399.48427806838316   -4.38630e-05   2.88187e-07 DIIS/DAMP=1%
   @DF-UKS iter   6:  -399.48427682467224    1.24371e-06   5.09318e-08 DIIS/DAMP=1%
   @DF-UKS iter   7:  -399.48427705558021   -2.30908e-07   6.80049e-09 DIIS/DAMP=1%
   @DF-UKS iter   8:  -399.48427702008598    3.54942e-08   9.67118e-10 DIIS/DAMP=1%
   @DF-UKS iter   9:  -399.48427701348839    6.59759e-09   1.12950e-10 DIIS/DAMP=1%
  Energy and wave function converged.


  ==> Post-Iterations <==

   Electrons on quadrature grid:
      Nalpha   =   13.9999989986 ; deviation = -1.001e-06
      Nbeta    =   10.9999990032 ; deviation = -9.968e-07
      Ntotal   =   24.9999980017 ; deviation = -1.998e-06 

   @Spin Contamination Metric:   3.986564822E-04
   @S^2 Expected:                3.750000000E+00
   @S^2 Observed:                3.750398656E+00
   @S   Expected:                1.500000000E+00
   @S   Observed:                1.500000000E+00

    Orbital Energies [Eh]
    ---------------------

    Alpha Occupied:                                                       

       1B2u  -46.771959     1Ag   -46.771870     2Ag    -3.217831  
       2B2u   -3.022348     3Ag    -1.996406     1B1u   -1.867651  
       1B3u   -1.867651     1B3g   -1.788297     1B1g   -1.788297  
       3B2u   -1.692069     4Ag    -0.122457     2B3u    0.020842  
       2B1u    0.020842     4B2u    0.020887  

    Alpha Virtual:                                                        

       5Ag     0.133128     2B1g    0.165068     2B3g    0.165068  
       5B2u    0.212898     6Ag     0.235567     3B3u    0.242016  
       3B1u    0.242016     6B2u    0.287331     7Ag     0.328664  
       8Ag     0.358742     1B2g    0.358746     3B1g    0.364541  
       3B3g    0.364541     4B3u    0.532787     4B1u    0.532787  
       7B2u    0.585601     8B2u    0.613941     1Au     0.613941  
       4B1g    0.870233     4B3g    0.870233     9Ag     0.923555  
       9B2u    2.895636  

    Beta Occupied:                                                        

       1B2u  -46.768847     1Ag   -46.768758     2Ag    -3.214340  
       2B2u   -3.017931     3Ag    -1.992295     1B1u   -1.861588  
       1B3u   -1.861588     1B3g   -1.782123     1B1g   -1.782123  
       3B2u   -1.688377     4Ag    -0.066183  

    Beta Virtual:                                                         

       4B2u    0.089752     2B3u    0.100561     2B1u    0.100561  
       5Ag     0.158498     2B1g    0.185950     2B3g    0.185950  
       5B2u    0.228208     6Ag     0.254488     3B3u    0.264881  
       3B1u    0.264881     6B2u    0.302711     7Ag     0.357119  
       3B1g    0.395336     3B3g    0.395336     1B2g    0.409003  
       8Ag     0.409004     4B3u    0.568003     4B1u    0.568003  
       7B2u    0.620077     8B2u    0.651908     1Au     0.651909  
       4B1g    0.898556     4B3g    0.898556     9Ag     0.942644  
       9B2u    2.905605  

    Final Occupation by Irrep:
             Ag   B1g   B2g   B3g    Au   B1u   B2u   B3u 
    DOCC [     4,    1,    0,    1,    0,    1,    3,    1 ]
    SOCC [     0,    0,    0,    0,    0,    1,    1,    1 ]
    NA   [     4,    1,    0,    1,    0,    2,    4,    2 ]
    NB   [     4,    1,    0,    1,    0,    1,    3,    1 ]

  @DF-UKS Final Energy:  -399.48427701348839

   => Energetics <=

    Nuclear Repulsion Energy =             61.8099650118153434
    One-Electron Energy =                -681.7308308319670687
    Two-Electron Energy =                 247.3481860455349306
    DFT Exchange-Correlation Energy =     -26.9115972388715932
    Empirical Dispersion Energy =           0.0000000000000000
    VV10 Nonlocal Energy =                  0.0000000000000000
    Total Energy =                       -399.4842770134883381

  UHF NO Occupations:
  HONO-2 :    2B1u 1.0000000
  HONO-1 :    2B3u 1.0000000
  HONO-0 :    4B2u 1.0000000
  LUNO+0 :    5 Ag 0.0001987
  LUNO+1 :    5B2u 0.0000003
  LUNO+2 :    6 Ag 0.0000002
  LUNO+3 :    2B1g 0.0000000


Computation Completed


Properties will be evaluated at   0.000000,   0.000000,   0.000000 [a0]

Properties computed using the SCF density matrix


 Multipole Moments:

 ------------------------------------------------------------------------------------
     Multipole            Electronic (a.u.)      Nuclear  (a.u.)        Total (a.u.)
 ------------------------------------------------------------------------------------

 L = 1.  Multiply by 2.5417464519 to convert [e a0] to [Debye]
 Dipole X            :          0.0000000            0.0000000            0.0000000
 Dipole Y            :          0.0000000            0.0000000            0.0000000
 Dipole Z            :          0.0000000            0.0000000            0.0000000
 Magnitude           :                                                    0.0000000

 ------------------------------------------------------------------------------------

*** tstop() called on Joses-MacBook-Pro-2.local at Thu Jul 17 11:22:26 2025
Module time:
	user time   =       6.48 seconds =       0.11 minutes
	system time =       5.60 seconds =       0.09 minutes
	total time  =          1 seconds =       0.02 minutes
Total time:
	user time   =      33.87 seconds =       0.56 minutes
	system time =      29.58 seconds =       0.49 minutes
	total time  =          7 seconds =       0.12 minutes

*** tstart() called on Joses-MacBook-Pro-2.local
*** at Thu Jul 17 11:22:26 2025


         ------------------------------------------------------------
                                   SCF GRAD                          
                          Rob Parrish, Justin Turney,                
                       Andy Simmonett, and Alex Sokolov              
         ------------------------------------------------------------

  ==> Geometry <==

    Molecular point group: d2h
    Full point group: D_inf_h

    Geometry (in Angstrom), charge = -1, multiplicity = 4:

       Center              X                  Y                   Z               Mass       
    ------------   -----------------  -----------------  -----------------  -----------------
         MG          -0.000000000000     0.616417743659     0.000000000000    23.985041697000
         MG           0.000000000000    -0.616417743659     0.000000000000    23.985041697000

  Nuclear repulsion =   61.809965011815343

  ==> Basis Set <==

  Basis Set: CC-PVDZ
    Blend: CC-PVDZ
    Number of shells: 16
    Number of basis functions: 36
    Number of Cartesian functions: 38
    Spherical Harmonics?: true
    Max angular momentum: 2

  ==> DFJKGrad: Density-Fitted SCF Gradients <==

    Gradient:                    1
    J tasked:                  Yes
    K tasked:                  Yes
    wK tasked:                  No
    OpenMP threads:              1
    Integrals threads:           1
    Memory [MiB]:              375
    Schwarz Cutoff:          1E-12
    Fitting Condition:       1E-10

   => Auxiliary Basis Set <=

  Basis Set: (CC-PVDZ AUX)
    Blend: DEF2-UNIVERSAL-JKFIT
    Number of shells: 68
    Number of basis functions: 224
    Number of Cartesian functions: 274
    Spherical Harmonics?: true
    Max angular momentum: 4

  ==> DFT Potential <==

   => LibXC <=

    Version 6.2.2
    S. Lehtola, C. Steigemann, M. J.T. Oliveira, and M. A.L. Marques.,  SoftwareX 7, 1–5 (2018) (10.1016/j.softx.2017.11.002)

   => Composite Functional: B3LYP <= 

    B3LYP Hyb-GGA Exchange-Correlation Functional

    P. J. Stephens, F. J. Devlin, C. F. Chabalowski, and M. J. Frisch.,  J. Phys. Chem. 98, 11623 (1994) (10.1021/j100096a001)

    Deriv               =              1
    GGA                 =           TRUE
    Meta                =          FALSE

    Exchange Hybrid     =           TRUE
    MP2 Hybrid          =          FALSE

   => Exchange Functionals <=

    0.0800   Slater exchange
    0.7200         Becke 88

   => Exact (HF) Exchange <=

    0.2000               HF 

   => Correlation Functionals <=

    0.1900   Vosko, Wilk & Nusair (VWN5_RPA)
    0.8100   Lee, Yang & Parr

   => LibXC Density Thresholds  <==

    XC_HYB_GGA_XC_B3LYP:  1.00E-15 

   => Molecular Quadrature <=

    Radial Scheme          =       TREUTLER
    Pruning Scheme         =           NONE
    Nuclear Scheme         =       TREUTLER

    Blocking Scheme        =         OCTREE
    BS radius alpha        =              1
    Pruning alpha          =              1
    Radial Points          =             75
    Spherical Points       =            302
    Total Points           =          42208
    Total Blocks           =            420
    Max Points             =            253
    Max Functions          =             36
    Weights Tolerance      =       1.00E-15


  -Total Gradient:
     Atom            X                  Y                   Z
    ------   -----------------  -----------------  -----------------
       1        0.000000000000    -1.105100330110     0.000000000000
       2       -0.000000000000     1.105100330110     0.000000000000


*** tstop() called on Joses-MacBook-Pro-2.local at Thu Jul 17 11:22:26 2025
Module time:
	user time   =       1.51 seconds =       0.03 minutes
	system time =       2.65 seconds =       0.04 minutes
	total time  =          0 seconds =       0.00 minutes
Total time:
	user time   =      35.38 seconds =       0.59 minutes
	system time =      32.24 seconds =       0.54 minutes
	total time  =          7 seconds =       0.12 minutes

    			-----------------------------------------

    			 OPTKING 3.0: for geometry optimizations 

    			     By R.A. King, Bethel University     

    			        with contributions from          

    			    A.V. Copan, J. Cayton, A. Heide      

    			-----------------------------------------

    
	                            ===> Fragment 1 <== 

	 Z (Atomic Numbers)          Masses                          Geom                  
	      12.000000            23.985042         -0.00000000  1.16486071  0.00000000   
	      12.000000            23.985042          0.00000000 -1.16486071  0.00000000   

	 - Coordinate -           - BOHR/RAD -       - ANG/DEG -
	 R(1,2)           =         2.329721           1.232835


	        --- Internal Coordinate Step in ANG or DEG, aJ/ANG or AJ/DEG ---
	-------------------------------------------------------------------------------
	           Coordinate      Previous         Force          Change          New 
	           ----------      --------        ------          ------        ------
	               R(1,2)       1.23284        9.10462        0.15675       1.38958
	-------------------------------------------------------------------------------

	                                 ==> Convergence Check <==                                  
    
	Measures of convergence in internal coordinates in au.
    
	Criteria marked as inactive (o), active & met (*), and active & unmet ( ).

	----------------------------------------------------------------------------------------------
	   Step    Total Energy     Delta E     Max Force     RMS Force      Max Disp      RMS Disp   
	----------------------------------------------------------------------------------------------
	  Convergence Criteria     1.00e-06 *    3.00e-04 *             o    1.20e-03 *             o
	----------------------------------------------------------------------------------------------
	     4    -399.48427701   -5.19e-02      1.11e+00      1.11e+00 o    2.96e-01      2.96e-01 o  ~
	----------------------------------------------------------------------------------------------

Next Geometry in Ang 
	Fragment 1 (Ang)

	   Mg  -0.0000000000   0.6947913224   0.0000000000
	   Mg   0.0000000000  -0.6947913224   0.0000000000


    Structure for next step:
    Molecular point group: d2h
    Full point group: D_inf_h

    Geometry (in Angstrom), charge = -1, multiplicity = 4:

    MG          -0.000000000000     0.694791322416     0.000000000000
    MG           0.000000000000    -0.694791322416     0.000000000000


Scratch directory: /tmp/
gradient() will perform analytic gradient computation.
   => Libint2 <=

    Primary   basis highest AM E, G, H:  6, 6, 3
    Auxiliary basis highest AM E, G, H:  7, 7, 4
    Onebody   basis highest AM E, G, H:  -, -, -
    Solid Harmonics ordering:            Gaussian

*** tstart() called on Joses-MacBook-Pro-2.local
*** at Thu Jul 17 11:22:26 2025

   => Loading Basis Set <=

    Name: CC-PVDZ
    Role: ORBITAL
    Keyword: BASIS
    atoms 1-2 entry MG         line   353 file /Users/joseantoniorodriguesromero/anaconda3/share/psi4/basis/cc-pvdz.gbs 


         ---------------------------------------------------------
                                   SCF
               by Justin Turney, Rob Parrish, Andy Simmonett
                          and Daniel G. A. Smith
                              UKS Reference
                        1 Threads,    500 MiB Core
         ---------------------------------------------------------

  ==> Geometry <==

    Molecular point group: d2h
    Full point group: D_inf_h

    Geometry (in Angstrom), charge = -1, multiplicity = 4:

       Center              X                  Y                   Z               Mass       
    ------------   -----------------  -----------------  -----------------  -----------------
         MG          -0.000000000000     0.694791322416     0.000000000000    23.985041697000
         MG           0.000000000000    -0.694791322416     0.000000000000    23.985041697000

  Running in d2h symmetry.

  Rotational constants: A = ************  B =      0.72798  C =      0.72798 [cm^-1]
  Rotational constants: A = ************  B =  21824.18098  C =  21824.18098 [MHz]
  Nuclear repulsion =   54.837701535663243

  Charge       = -1
  Multiplicity = 4
  Electrons    = 25
  Nalpha       = 14
  Nbeta        = 11

  ==> Algorithm <==

  SCF Algorithm Type is DF.
  DIIS enabled.
  MOM disabled.
  Fractional occupation disabled.
  Guess Type is READ.
  Energy threshold   = 1.00e-08
  Density threshold  = 1.00e-08
  Integral threshold = 1.00e-12

  ==> Primary Basis <==

  Basis Set: CC-PVDZ
    Blend: CC-PVDZ
    Number of shells: 16
    Number of basis functions: 36
    Number of Cartesian functions: 38
    Spherical Harmonics?: true
    Max angular momentum: 2

  ==> DFT Potential <==

   => LibXC <=

    Version 6.2.2
    S. Lehtola, C. Steigemann, M. J.T. Oliveira, and M. A.L. Marques.,  SoftwareX 7, 1–5 (2018) (10.1016/j.softx.2017.11.002)

[...]
	Measures of convergence in internal coordinates in au.
    
	Criteria marked as inactive (o), active & met (*), and active & unmet ( ).

	----------------------------------------------------------------------------------------------
	   Step    Total Energy     Delta E     Max Force     RMS Force      Max Disp      RMS Disp   
	----------------------------------------------------------------------------------------------
	  Convergence Criteria     1.00e-06 *    3.00e-04 *             o    1.20e-03 *             o
	----------------------------------------------------------------------------------------------
	    14    -400.13135141   -1.34e-05      1.70e-04 *    1.70e-04 o    4.14e-03      4.14e-03 o  ~
	----------------------------------------------------------------------------------------------

Next Geometry in Ang 
	Fragment 1 (Ang)

	   Mg  -0.0000000000   1.3520106083   0.0000000000
	   Mg   0.0000000000  -1.3520106083   0.0000000000


    Structure for next step:
    Molecular point group: d2h
    Full point group: D_inf_h

    Geometry (in Angstrom), charge = -1, multiplicity = 4:

    MG          -0.000000000000     1.352010608258     0.000000000000
    MG           0.000000000000    -1.352010608258     0.000000000000


Scratch directory: /tmp/
gradient() will perform analytic gradient computation.
   => Libint2 <=

    Primary   basis highest AM E, G, H:  6, 6, 3
    Auxiliary basis highest AM E, G, H:  7, 7, 4
    Onebody   basis highest AM E, G, H:  -, -, -
    Solid Harmonics ordering:            Gaussian

*** tstart() called on Joses-MacBook-Pro-2.local
*** at Thu Jul 17 11:22:41 2025

   => Loading Basis Set <=

    Name: CC-PVDZ
    Role: ORBITAL
    Keyword: BASIS
    atoms 1-2 entry MG         line   353 file /Users/joseantoniorodriguesromero/anaconda3/share/psi4/basis/cc-pvdz.gbs 


         ---------------------------------------------------------
                                   SCF
               by Justin Turney, Rob Parrish, Andy Simmonett
                          and Daniel G. A. Smith
                              UKS Reference
                        1 Threads,    500 MiB Core
         ---------------------------------------------------------

  ==> Geometry <==

    Molecular point group: d2h
    Full point group: D_inf_h

    Geometry (in Angstrom), charge = -1, multiplicity = 4:

       Center              X                  Y                   Z               Mass       
    ------------   -----------------  -----------------  -----------------  -----------------
         MG          -0.000000000000     1.352010608258     0.000000000000    23.985041697000
         MG           0.000000000000    -1.352010608258     0.000000000000    23.985041697000

  Running in d2h symmetry.

  Rotational constants: A = ************  B =      0.19225  C =      0.19225 [cm^-1]
  Rotational constants: A = ************  B =   5763.50305  C =   5763.50305 [MHz]
  Nuclear repulsion =   28.180813771370378

  Charge       = -1
  Multiplicity = 4
  Electrons    = 25
  Nalpha       = 14
  Nbeta        = 11

  ==> Algorithm <==

  SCF Algorithm Type is DF.
  DIIS enabled.
  MOM disabled.
  Fractional occupation disabled.
  Guess Type is READ.
  Energy threshold   = 1.00e-08
  Density threshold  = 1.00e-08
  Integral threshold = 1.00e-12

  ==> Primary Basis <==

  Basis Set: CC-PVDZ
    Blend: CC-PVDZ
    Number of shells: 16
    Number of basis functions: 36
    Number of Cartesian functions: 38
    Spherical Harmonics?: true
    Max angular momentum: 2

  ==> DFT Potential <==

   => LibXC <=

    Version 6.2.2
    S. Lehtola, C. Steigemann, M. J.T. Oliveira, and M. A.L. Marques.,  SoftwareX 7, 1–5 (2018) (10.1016/j.softx.2017.11.002)

   => Composite Functional: B3LYP <= 

    B3LYP Hyb-GGA Exchange-Correlation Functional

    P. J. Stephens, F. J. Devlin, C. F. Chabalowski, and M. J. Frisch.,  J. Phys. Chem. 98, 11623 (1994) (10.1021/j100096a001)

    Deriv               =              1
    GGA                 =           TRUE
    Meta                =          FALSE

    Exchange Hybrid     =           TRUE
    MP2 Hybrid          =          FALSE

   => Exchange Functionals <=

    0.0800   Slater exchange
    0.7200         Becke 88

   => Exact (HF) Exchange <=

    0.2000               HF 

   => Correlation Functionals <=

    0.1900   Vosko, Wilk & Nusair (VWN5_RPA)
    0.8100   Lee, Yang & Parr

   => LibXC Density Thresholds  <==

    XC_HYB_GGA_XC_B3LYP:  1.00E-15 

   => Molecular Quadrature <=

    Radial Scheme          =       TREUTLER
    Pruning Scheme         =           NONE
    Nuclear Scheme         =       TREUTLER

    Blocking Scheme        =         OCTREE
    BS radius alpha        =              1
    Pruning alpha          =              1
    Radial Points          =             75
    Spherical Points       =            302
    Total Points           =          42366
    Total Blocks           =            412
    Max Points             =            254
    Max Functions          =             36
    Weights Tolerance      =       1.00E-15

   => Loading Basis Set <=

    Name: (CC-PVDZ AUX)
    Role: JKFIT
    Keyword: DF_BASIS_SCF
    atoms 1-2 entry MG         line   576 file /Users/joseantoniorodriguesromero/anaconda3/share/psi4/basis/def2-universal-jkfit.gbs 

   => Loading Basis Set <=

    Name: CC-PVDZ
    Role: ORBITAL
    Keyword: BASIS
    atoms 1-2 entry MG         line   353 file /Users/joseantoniorodriguesromero/anaconda3/share/psi4/basis/cc-pvdz.gbs 

  Reading orbitals from file /tmp/quartet_MgMg.default.73104.180.npy, no projection.

  ==> Integral Setup <==

  DFHelper Memory: AOs need 0.003 GiB; user supplied 0.322 GiB. 
  Using in-core AOs.

  ==> MemDFJK: Density-Fitted J/K Matrices <==

    J tasked:                   Yes
    K tasked:                   Yes
    wK tasked:                   No
    OpenMP threads:               1
    Memory [MiB]:               329
    Algorithm:                 Core
    Schwarz Cutoff:           1E-12
    Mask sparsity (%):       0.0000
    Fitting Condition:        1E-10

   => Auxiliary Basis Set <=

  Basis Set: (CC-PVDZ AUX)
    Blend: DEF2-UNIVERSAL-JKFIT
    Number of shells: 68
    Number of basis functions: 224
    Number of Cartesian functions: 274
    Spherical Harmonics?: true
    Max angular momentum: 4

  Cached 100.0% of DFT collocation blocks in 0.045 [GiB].

  Minimum eigenvalue in the overlap matrix is 1.0158789793E-02.
  Reciprocal condition number of the overlap matrix is 2.7496823418E-03.
    Using symmetric orthogonalization.

  ==> Pre-Iterations <==

  SCF Guess: Orbitals guess was supplied from a previous computation.

   -------------------------------------------------------
    Irrep   Nso     Nmo     Nalpha   Nbeta   Ndocc  Nsocc
   -------------------------------------------------------
     Ag         9       9       4       4       4       0
     B1g        4       4       1       1       1       0
     B2g        1       1       0       0       0       0
     B3g        4       4       1       1       1       0
     Au         1       1       0       0       0       0
     B1u        4       4       2       1       1       1
     B2u        9       9       4       3       3       1
     B3u        4       4       2       1       1       1
   -------------------------------------------------------
    Total      36      36      14      11      11       3
   -------------------------------------------------------

  ==> Iterations <==

                           Total Energy        Delta E     RMS |[F,P]|

   @DF-UKS iter   0:  -400.13137037258934   -4.00131e+02   8.78338e-05 
   @DF-UKS iter   1:  -400.13135176457473    1.86080e-05   8.07972e-06 DIIS
   @DF-UKS iter   2:  -400.13135178420492   -1.96302e-08   6.27643e-06 DIIS/DAMP=1%
   @DF-UKS iter   3:  -400.13134495340000    6.83080e-06   2.24383e-07 DIIS/DAMP=1%
   @DF-UKS iter   4:  -400.13135163192658   -6.67853e-06   7.61963e-08 DIIS/DAMP=1%
   @DF-UKS iter   5:  -400.13135178358721   -1.51661e-07   2.93300e-08 DIIS/DAMP=1%
   @DF-UKS iter   6:  -400.13135180591507   -2.23279e-08   7.24791e-09 DIIS/DAMP=1%
   @DF-UKS iter   7:  -400.13135180756905   -1.65397e-09   1.06209e-09 DIIS/DAMP=1%
  Energy and wave function converged.


  ==> Post-Iterations <==

   Electrons on quadrature grid:
      Nalpha   =   14.0000000479 ; deviation = 4.788e-08
      Nbeta    =   11.0000000804 ; deviation = 8.037e-08
      Ntotal   =   25.0000001283 ; deviation = 1.283e-07 

   @Spin Contamination Metric:   1.427230713E-02
   @S^2 Expected:                3.750000000E+00
   @S^2 Observed:                3.764272307E+00
   @S   Expected:                1.500000000E+00
   @S   Observed:                1.500000000E+00

    Orbital Energies [Eh]
    ---------------------

    Alpha Occupied:                                                       

       1B2u  -46.669929     1Ag   -46.669927     2Ag    -2.951330  
       2B2u   -2.951277     3Ag    -1.696209     1B3u   -1.694636  
       1B1u   -1.694636     3B2u   -1.694593     1B1g   -1.694468  
       1B3g   -1.694468     4Ag    -0.102782     4B2u   -0.029145  
       2B3u    0.042542     2B1u    0.042542  

    Alpha Virtual:                                                        

       5Ag     0.082761     2B1g    0.120796     2B3g    0.120796  
       5B2u    0.167022     6Ag     0.219457     7Ag     0.256417  
       3B1u    0.276254     3B3u    0.276254     6B2u    0.283273  
       3B3g    0.317662     3B1g    0.317662     7B2u    0.400901  
       4B1u    0.410633     4B3u    0.410633     8Ag     0.431509  
       1B2g    0.431511     8B2u    0.500101     1Au     0.500103  
       9Ag     0.539124     4B1g    0.628962     4B3g    0.628962  
       9B2u    0.841255  

    Beta Occupied:                                                        

       1B2u  -46.667899     1Ag   -46.667898     2Ag    -2.948042  
       2B2u   -2.947992     3Ag    -1.694217     3B2u   -1.692543  
       1B3u   -1.691123     1B1u   -1.691123     1B1g   -1.690941  
       1B3g   -1.690941     4Ag    -0.068204  

    Beta Virtual:                                                         

       4B2u    0.040676     2B3u    0.104819     2B1u    0.104819  
       5Ag     0.105909     2B1g    0.152668     2B3g    0.152668  
       5B2u    0.181957     6Ag     0.239275     7Ag     0.268689  
       3B1u    0.294284     3B3u    0.294284     6B2u    0.304678  
       3B3g    0.341249     3B1g    0.341249     7B2u    0.420073  
       4B1u    0.438301     4B3u    0.438301     1B2g    0.467542  
       8Ag     0.467543     1Au     0.535131     8B2u    0.535132  
       9Ag     0.558975     4B1g    0.654978     4B3g    0.654978  
       9B2u    0.855587  

    Final Occupation by Irrep:
             Ag   B1g   B2g   B3g    Au   B1u   B2u   B3u 
    DOCC [     4,    1,    0,    1,    0,    1,    3,    1 ]
    SOCC [     0,    0,    0,    0,    0,    1,    1,    1 ]
    NA   [     4,    1,    0,    1,    0,    2,    4,    2 ]
    NB   [     4,    1,    0,    1,    0,    1,    3,    1 ]

  @DF-UKS Final Energy:  -400.13135180756905

   => Energetics <=

    Nuclear Repulsion Energy =             28.1808137713703779
    One-Electron Energy =                -618.6818459869651861
    Two-Electron Energy =                 217.0271395703487087
    DFT Exchange-Correlation Energy =     -26.6574591623229260
    Empirical Dispersion Energy =           0.0000000000000000
    VV10 Nonlocal Energy =                  0.0000000000000000
    Total Energy =                       -400.1313518075690467

  UHF NO Occupations:
  HONO-2 :    4B2u 1.0000000
  HONO-1 :    2B3u 1.0000000
  HONO-0 :    2B1u 1.0000000
  LUNO+0 :    5 Ag 0.0071603
  LUNO+1 :    6 Ag 0.0000004
  LUNO+2 :    2B1g 0.0000003
  LUNO+3 :    2B3g 0.0000003


Computation Completed


Properties will be evaluated at   0.000000,   0.000000,   0.000000 [a0]

Properties computed using the SCF density matrix


 Multipole Moments:

 ------------------------------------------------------------------------------------
     Multipole            Electronic (a.u.)      Nuclear  (a.u.)        Total (a.u.)
 ------------------------------------------------------------------------------------

 L = 1.  Multiply by 2.5417464519 to convert [e a0] to [Debye]
 Dipole X            :          0.0000000            0.0000000            0.0000000
 Dipole Y            :          0.0000000            0.0000000            0.0000000
 Dipole Z            :          0.0000000            0.0000000            0.0000000
 Magnitude           :                                                    0.0000000

 ------------------------------------------------------------------------------------

*** tstop() called on Joses-MacBook-Pro-2.local at Thu Jul 17 11:22:42 2025
Module time:
	user time   =       6.49 seconds =       0.11 minutes
	system time =       3.11 seconds =       0.05 minutes
	total time  =          1 seconds =       0.02 minutes
Total time:
	user time   =     144.36 seconds =       2.41 minutes
	system time =      90.12 seconds =       1.50 minutes
	total time  =         23 seconds =       0.38 minutes

*** tstart() called on Joses-MacBook-Pro-2.local
*** at Thu Jul 17 11:22:42 2025


         ------------------------------------------------------------
                                   SCF GRAD                          
                          Rob Parrish, Justin Turney,                
                       Andy Simmonett, and Alex Sokolov              
         ------------------------------------------------------------

  ==> Geometry <==

    Molecular point group: d2h
    Full point group: D_inf_h

    Geometry (in Angstrom), charge = -1, multiplicity = 4:

       Center              X                  Y                   Z               Mass       
    ------------   -----------------  -----------------  -----------------  -----------------
         MG          -0.000000000000     1.352010608258     0.000000000000    23.985041697000
         MG           0.000000000000    -1.352010608258     0.000000000000    23.985041697000

  Nuclear repulsion =   28.180813771370378

  ==> Basis Set <==

  Basis Set: CC-PVDZ
    Blend: CC-PVDZ
    Number of shells: 16
    Number of basis functions: 36
    Number of Cartesian functions: 38
    Spherical Harmonics?: true
    Max angular momentum: 2

  ==> DFJKGrad: Density-Fitted SCF Gradients <==

    Gradient:                    1
    J tasked:                  Yes
    K tasked:                  Yes
    wK tasked:                  No
    OpenMP threads:              1
    Integrals threads:           1
    Memory [MiB]:              375
    Schwarz Cutoff:          1E-12
    Fitting Condition:       1E-10

   => Auxiliary Basis Set <=

  Basis Set: (CC-PVDZ AUX)
    Blend: DEF2-UNIVERSAL-JKFIT
    Number of shells: 68
    Number of basis functions: 224
    Number of Cartesian functions: 274
    Spherical Harmonics?: true
    Max angular momentum: 4

  ==> DFT Potential <==

   => LibXC <=

    Version 6.2.2
    S. Lehtola, C. Steigemann, M. J.T. Oliveira, and M. A.L. Marques.,  SoftwareX 7, 1–5 (2018) (10.1016/j.softx.2017.11.002)

   => Composite Functional: B3LYP <= 

    B3LYP Hyb-GGA Exchange-Correlation Functional

    P. J. Stephens, F. J. Devlin, C. F. Chabalowski, and M. J. Frisch.,  J. Phys. Chem. 98, 11623 (1994) (10.1021/j100096a001)

    Deriv               =              1
    GGA                 =           TRUE
    Meta                =          FALSE

    Exchange Hybrid     =           TRUE
    MP2 Hybrid          =          FALSE

   => Exchange Functionals <=

    0.0800   Slater exchange
    0.7200         Becke 88

   => Exact (HF) Exchange <=

    0.2000               HF 

   => Correlation Functionals <=

    0.1900   Vosko, Wilk & Nusair (VWN5_RPA)
    0.8100   Lee, Yang & Parr

   => LibXC Density Thresholds  <==

    XC_HYB_GGA_XC_B3LYP:  1.00E-15 

   => Molecular Quadrature <=

    Radial Scheme          =       TREUTLER
    Pruning Scheme         =           NONE
    Nuclear Scheme         =       TREUTLER

    Blocking Scheme        =         OCTREE
    BS radius alpha        =              1
    Pruning alpha          =              1
    Radial Points          =             75
    Spherical Points       =            302
    Total Points           =          42366
    Total Blocks           =            412
    Max Points             =            254
    Max Functions          =             36
    Weights Tolerance      =       1.00E-15


  -Total Gradient:
     Atom            X                  Y                   Z
    ------   -----------------  -----------------  -----------------
       1        0.000000000000    -0.000030124406    -0.000000000000
       2       -0.000000000000     0.000030124406    -0.000000000000


*** tstop() called on Joses-MacBook-Pro-2.local at Thu Jul 17 11:22:42 2025
Module time:
	user time   =       2.39 seconds =       0.04 minutes
	system time =       2.84 seconds =       0.05 minutes
	total time  =          0 seconds =       0.00 minutes
Total time:
	user time   =     146.75 seconds =       2.45 minutes
	system time =      92.97 seconds =       1.55 minutes
	total time  =         23 seconds =       0.38 minutes

    			-----------------------------------------

    			 OPTKING 3.0: for geometry optimizations 

    			     By R.A. King, Bethel University     

    			        with contributions from          

    			    A.V. Copan, J. Cayton, A. Heide      

    			-----------------------------------------

    
	                            ===> Fragment 1 <== 

	 Z (Atomic Numbers)          Masses                          Geom                  
	      12.000000            23.985042         -0.00000000  2.55492977  0.00000000   
	      12.000000            23.985042          0.00000000 -2.55492977  0.00000000   

	 - Coordinate -           - BOHR/RAD -       - ANG/DEG -
	 R(1,2)           =         5.109860           2.704021


	        --- Internal Coordinate Step in ANG or DEG, aJ/ANG or AJ/DEG ---
	-------------------------------------------------------------------------------
	           Coordinate      Previous         Force          Change          New 
	           ----------      --------        ------          ------        ------
	               R(1,2)       2.70402        0.00025        0.00039       2.70441
	-------------------------------------------------------------------------------

	                                 ==> Convergence Check <==                                  
    
	Measures of convergence in internal coordinates in au.
    
	Criteria marked as inactive (o), active & met (*), and active & unmet ( ).

	----------------------------------------------------------------------------------------------
	   Step    Total Energy     Delta E     Max Force     RMS Force      Max Disp      RMS Disp   
	----------------------------------------------------------------------------------------------
	  Convergence Criteria     1.00e-06 *    3.00e-04 *             o    1.20e-03 *             o
	----------------------------------------------------------------------------------------------
	    15    -400.13135181   -3.99e-07 *    3.01e-05 *    3.01e-05 o    7.38e-04 *    7.38e-04 o  ~
	----------------------------------------------------------------------------------------------

Next Geometry in Ang 
	Fragment 1 (Ang)

	   Mg  -0.0000000000   1.3522057664   0.0000000000
	   Mg   0.0000000000  -1.3522057664   0.0000000000


    Final optimized geometry and variables:
    Molecular point group: d2h
    Full point group: D_inf_h

    Geometry (in Angstrom), charge = -1, multiplicity = 4:

    MG          -0.000000000000     1.352010608258     0.000000000000
    MG           0.000000000000    -1.352010608258     0.000000000000


    Psi4 stopped on: Thursday, 17 July 2025 11:22AM
    Psi4 wall time for execution: 0:00:23.89

*** Psi4 exiting successfully. Buy a developer a beer!
