
    -----------------------------------------------------------------------
          Psi4: An Open-Source Ab Initio Electronic Structure Package
                               Psi4 1.9.1 release

                         Git: Rev {} zzzzzzz 


    D. G. A. Smith, L. A. Burns, A. C. Simmonett, R. M. Parrish,
    M. C. Schieber, R. Galvelis, P. Kraus, H. Kruse, R. Di Remigio,
    A. Alenaizan, A. M. James, S. Lehtola, J. P. Misiewicz, M. Scheurer,
    R. A. Shaw, J. B. Schriber, Y. Xie, Z. L. Glick, D. A. Sirianni,
    J. S. O'Brien, J. M. Waldrop, A. Kumar, E. G. Hohenstein,
    B. P. Pritchard, B. R. Brooks, H. F. Schaefer III, A. Yu. Sokolov,
    K. Patkowski, A. E. DePrince III, U. Bozkaya, R. A. King,
    F. A. Evangelista, J. M. Turney, T. D. Crawford, C. D. Sherrill,
    J. Chem. Phys. 152(18) 184108 (2020). https://doi.org/10.1063/5.0006002

                            Additional Code Authors
    E. T. Seidl, C. L. Janssen, E. F. Valeev, M. L. Leininger,
    J. F. Gonthier, R. M. Richard, H. R. McAlexander, M. Saitow, X. Wang,
    P. Verma, M. H. Lechner, A. Jiang, S. Behnle, A. G. Heide,
    M. F. Herbst, and D. L. Poole

             Previous Authors, Complete List of Code Contributors,
                       and Citations for Specific Modules
    https://github.com/psi4/psi4/blob/master/codemeta.json
    https://github.com/psi4/psi4/graphs/contributors
    http://psicode.org/psi4manual/master/introduction.html#citing-psifour

    -----------------------------------------------------------------------


    Psi4 started on: Thursday, 17 July 2025 09:17AM

    Process ID: 71812
    Host:       Joses-MacBook-Pro-2.local
    PSIDATADIR: /Users/joseantoniorodriguesromero/anaconda3/share/psi4
    Memory:     500.0 MiB
    Threads:    1
    
  ==> Input File <==

--------------------------------------------------------------------------
molecule { 
-1 4
He   0.00000        0.60000        0.00000
He   0.00000       -0.60000        0.00000
}

set { 
basis              cc-pvdz
reference          uks
maxiter            500
geom_maxiter       500
DAMPING_PERCENTAGE 1
guess              SAP
}

optimize('b3lyp')
--------------------------------------------------------------------------

Scratch directory: /tmp/
gradient() will perform analytic gradient computation.
   => Libint2 <=

    Primary   basis highest AM E, G, H:  6, 6, 3
    Auxiliary basis highest AM E, G, H:  7, 7, 4
    Onebody   basis highest AM E, G, H:  -, -, -
    Solid Harmonics ordering:            Gaussian

*** tstart() called on Joses-MacBook-Pro-2.local
*** at Thu Jul 17 09:17:03 2025

   => Loading Basis Set <=

    Name: CC-PVDZ
    Role: ORBITAL
    Keyword: BASIS
    atoms 1-2 entry HE         line    32 file /Users/joseantoniorodriguesromero/anaconda3/share/psi4/basis/cc-pvdz.gbs 


         ---------------------------------------------------------
                                   SCF
               by Justin Turney, Rob Parrish, Andy Simmonett
                          and Daniel G. A. Smith
                              UKS Reference
                        1 Threads,    500 MiB Core
         ---------------------------------------------------------

  ==> Geometry <==

    Molecular point group: d2h
    Full point group: D_inf_h

    Geometry (in Angstrom), charge = -1, multiplicity = 4:

       Center              X                  Y                   Z               Mass       
    ------------   -----------------  -----------------  -----------------  -----------------
         HE          -0.000000000000     0.600000000000     0.000000000000     4.002603254130
         HE           0.000000000000    -0.600000000000     0.000000000000     4.002603254130

  Running in d2h symmetry.

  Rotational constants: A = ************  B =      5.84954  C =      5.84954 [cm^-1]
  Rotational constants: A = ************  B = 175364.69280  C = 175364.69280 [MHz]
  Nuclear repulsion =    1.763924035566667

  Charge       = -1
  Multiplicity = 4
  Electrons    = 5
  Nalpha       = 4
  Nbeta        = 1

  ==> Algorithm <==

  SCF Algorithm Type is DF.
  DIIS enabled.
  MOM disabled.
  Fractional occupation disabled.
  Guess Type is SAP.
  Energy threshold   = 1.00e-08
  Density threshold  = 1.00e-08
  Integral threshold = 1.00e-12

  ==> Primary Basis <==

  Basis Set: CC-PVDZ
    Blend: CC-PVDZ
    Number of shells: 6
    Number of basis functions: 10
    Number of Cartesian functions: 10
    Spherical Harmonics?: true
    Max angular momentum: 1

  ==> DFT Potential <==

   => LibXC <=

    Version 6.2.2
    S. Lehtola, C. Steigemann, M. J.T. Oliveira, and M. A.L. Marques.,  SoftwareX 7, 1–5 (2018) (10.1016/j.softx.2017.11.002)

   => Composite Functional: B3LYP <= 

    B3LYP Hyb-GGA Exchange-Correlation Functional

    P. J. Stephens, F. J. Devlin, C. F. Chabalowski, and M. J. Frisch.,  J. Phys. Chem. 98, 11623 (1994) (10.1021/j100096a001)

    Deriv               =              1
    GGA                 =           TRUE
    Meta                =          FALSE

    Exchange Hybrid     =           TRUE
    MP2 Hybrid          =          FALSE

   => Exchange Functionals <=

    0.0800   Slater exchange
    0.7200         Becke 88

   => Exact (HF) Exchange <=

    0.2000               HF 

   => Correlation Functionals <=

    0.1900   Vosko, Wilk & Nusair (VWN5_RPA)
    0.8100   Lee, Yang & Parr

   => LibXC Density Thresholds  <==

    XC_HYB_GGA_XC_B3LYP:  1.00E-15 

   => Molecular Quadrature <=

    Radial Scheme          =       TREUTLER
    Pruning Scheme         =           NONE
    Nuclear Scheme         =       TREUTLER

    Blocking Scheme        =         OCTREE
    BS radius alpha        =              1
    Pruning alpha          =              1
    Radial Points          =             75
    Spherical Points       =            302
    Total Points           =          44102
    Total Blocks           =            386
    Max Points             =            256
    Max Functions          =             10
    Weights Tolerance      =       1.00E-15

   => Loading Basis Set <=

    Name: (CC-PVDZ AUX)
    Role: JKFIT
    Keyword: DF_BASIS_SCF
    atoms 1-2 entry HE         line    34 file /Users/joseantoniorodriguesromero/anaconda3/share/psi4/basis/def2-universal-jkfit.gbs 

  ==> Integral Setup <==

  DFHelper Memory: AOs need 0.000 GiB; user supplied 0.353 GiB. 
  Using in-core AOs.

  ==> MemDFJK: Density-Fitted J/K Matrices <==

    J tasked:                   Yes
    K tasked:                   Yes
    wK tasked:                   No
    OpenMP threads:               1
    Memory [MiB]:               361
    Algorithm:                 Core
    Schwarz Cutoff:           1E-12
    Mask sparsity (%):       0.0000
    Fitting Condition:        1E-10

   => Auxiliary Basis Set <=

  Basis Set: (CC-PVDZ AUX)
    Blend: DEF2-UNIVERSAL-JKFIT
    Number of shells: 18
    Number of basis functions: 46
    Number of Cartesian functions: 50
    Spherical Harmonics?: true
    Max angular momentum: 2

  Cached 100.0% of DFT collocation blocks in 0.013 [GiB].

  Minimum eigenvalue in the overlap matrix is 3.3237076419E-01.
  Reciprocal condition number of the overlap matrix is 1.9330111725E-01.
    Using symmetric orthogonalization.

  ==> Pre-Iterations <==

  SCF Guess: Superposition of Atomic Potentials (doi:10.1021/acs.jctc.8b01089).

  ==> SAP guess <==

   => Molecular Quadrature <=

    Radial Scheme          =       TREUTLER
    Pruning Scheme         =           NONE
    Nuclear Scheme         =       TREUTLER

    Blocking Scheme        =         OCTREE
    BS radius alpha        =              1
    Pruning alpha          =              1
    Radial Points          =             75
    Spherical Points       =            302
    Total Points           =          44102
    Total Blocks           =            386
    Max Points             =            256
    Max Functions          =             10
    Weights Tolerance      =       1.00E-15

   -------------------------------------------------------
    Irrep   Nso     Nmo     Nalpha   Nbeta   Ndocc  Nsocc
   -------------------------------------------------------
     Ag         3       3       2       1       1       1
     B1g        1       1       0       0       0       0
     B2g        0       0       0       0       0       0
     B3g        1       1       0       0       0       0
     Au         0       0       0       0       0       0
     B1u        1       1       0       0       0       0
     B2u        3       3       2       0       0       2
     B3u        1       1       0       0       0       0
   -------------------------------------------------------
    Total      10      10       4       1       1       3
   -------------------------------------------------------

  ==> Iterations <==

                           Total Energy        Delta E     RMS |[F,P]|

   @DF-UKS iter   1:    -3.04127744044417   -3.04128e+00   4.36399e-02 ADIIS/DIIS
   @DF-UKS iter   2:    -3.06185432857165   -2.05769e-02   2.31249e-03 ADIIS/DIIS/DAMP=1%
   @DF-UKS iter   3:    -3.06190822854762   -5.39000e-05   1.90778e-04 ADIIS/DIIS/DAMP=1%
   @DF-UKS iter   4:    -3.06190561089005    2.61766e-06   1.62714e-05 DIIS/DAMP=1%
   @DF-UKS iter   5:    -3.06190412079660    1.49009e-06   4.52267e-07 DIIS/DAMP=1%
   @DF-UKS iter   6:    -3.06190412110518   -3.08582e-10   2.25272e-08 DIIS/DAMP=1%
   @DF-UKS iter   7:    -3.06190412051552    5.89657e-10   3.53589e-09 DIIS/DAMP=1%
  Energy and wave function converged.


  ==> Post-Iterations <==

   Electrons on quadrature grid:
      Nalpha   =    4.0000002146 ; deviation = 2.146e-07
      Nbeta    =    1.0000000206 ; deviation = 2.064e-08
      Ntotal   =    5.0000002352 ; deviation = 2.352e-07 

   @Spin Contamination Metric:   3.977926231E-04
   @S^2 Expected:                3.750000000E+00
   @S^2 Observed:                3.750397793E+00
   @S   Expected:                1.500000000E+00
   @S   Observed:                1.500000000E+00

    Orbital Energies [Eh]
    ---------------------

    Alpha Occupied:                                                       

       1Ag    -0.399665     1B2u   -0.167691     2B2u    1.347402  
       2Ag     1.375833  

    Alpha Virtual:                                                        

       3Ag     2.203297     1B1u    2.470459     1B3u    2.470459  
       1B1g    2.758580     1B3g    2.758580     3B2u    3.568397  

    Beta Occupied:                                                        

       1Ag    -0.167431  

    Beta Virtual:                                                         

       1B2u    0.178945     2B2u    1.712006     2Ag     1.755423  
       3Ag     2.294083     1B3u    2.566995     1B1u    2.566995  
       1B1g    2.863619     1B3g    2.863619     3B2u    3.680800  

    Final Occupation by Irrep:
             Ag   B1g   B2g   B3g    Au   B1u   B2u   B3u 
    DOCC [     1,    0,    0,    0,    0,    0,    0,    0 ]
    SOCC [     1,    0,    0,    0,    0,    0,    2,    0 ]
    NA   [     2,    0,    0,    0,    0,    0,    2,    0 ]
    NB   [     1,    0,    0,    0,    0,    0,    0,    0 ]

  @DF-UKS Final Energy:    -3.06190412051552

   => Energetics <=

    Nuclear Repulsion Energy =              1.7639240355666670
    One-Electron Energy =                  -9.9980216150870831
    Two-Electron Energy =                   7.4419957129589758
    DFT Exchange-Correlation Energy =      -2.2698022539540812
    Empirical Dispersion Energy =           0.0000000000000000
    VV10 Nonlocal Energy =                  0.0000000000000000
    Total Energy =                         -3.0619041205155213

  UHF NO Occupations:
  HONO-2 :    1B2u 1.0000000
  HONO-1 :    2B2u 1.0000000
  HONO-0 :    2 Ag 1.0000000
  LUNO+0 :    3 Ag 0.0001989
  LUNO+1 :    3B2u 0.0000000
  LUNO+2 :    1B3u 0.0000000
  LUNO+3 :    1B1u 0.0000000


Computation Completed


Properties will be evaluated at   0.000000,   0.000000,   0.000000 [a0]

Properties computed using the SCF density matrix


 Multipole Moments:

 ------------------------------------------------------------------------------------
     Multipole            Electronic (a.u.)      Nuclear  (a.u.)        Total (a.u.)
 ------------------------------------------------------------------------------------

 L = 1.  Multiply by 2.5417464519 to convert [e a0] to [Debye]
 Dipole X            :          0.0000000            0.0000000            0.0000000
 Dipole Y            :          0.0000000            0.0000000            0.0000000
 Dipole Z            :          0.0000000            0.0000000            0.0000000
 Magnitude           :                                                    0.0000000

 ------------------------------------------------------------------------------------

*** tstop() called on Joses-MacBook-Pro-2.local at Thu Jul 17 09:17:03 2025
Module time:
	user time   =       0.66 seconds =       0.01 minutes
	system time =       1.87 seconds =       0.03 minutes
	total time  =          0 seconds =       0.00 minutes
Total time:
	user time   =       0.66 seconds =       0.01 minutes
	system time =       1.87 seconds =       0.03 minutes
	total time  =          0 seconds =       0.00 minutes

*** tstart() called on Joses-MacBook-Pro-2.local
*** at Thu Jul 17 09:17:03 2025


         ------------------------------------------------------------
                                   SCF GRAD                          
                          Rob Parrish, Justin Turney,                
                       Andy Simmonett, and Alex Sokolov              
         ------------------------------------------------------------

  ==> Geometry <==

    Molecular point group: d2h
    Full point group: D_inf_h

    Geometry (in Angstrom), charge = -1, multiplicity = 4:

       Center              X                  Y                   Z               Mass       
    ------------   -----------------  -----------------  -----------------  -----------------
         HE          -0.000000000000     0.600000000000     0.000000000000     4.002603254130
         HE           0.000000000000    -0.600000000000     0.000000000000     4.002603254130

  Nuclear repulsion =    1.763924035566667

  ==> Basis Set <==

  Basis Set: CC-PVDZ
    Blend: CC-PVDZ
    Number of shells: 6
    Number of basis functions: 10
    Number of Cartesian functions: 10
    Spherical Harmonics?: true
    Max angular momentum: 1

  ==> DFJKGrad: Density-Fitted SCF Gradients <==

    Gradient:                    1
    J tasked:                  Yes
    K tasked:                  Yes
    wK tasked:                  No
    OpenMP threads:              1
    Integrals threads:           1
    Memory [MiB]:              375
    Schwarz Cutoff:          1E-12
    Fitting Condition:       1E-10

   => Auxiliary Basis Set <=

  Basis Set: (CC-PVDZ AUX)
    Blend: DEF2-UNIVERSAL-JKFIT
    Number of shells: 18
    Number of basis functions: 46
    Number of Cartesian functions: 50
    Spherical Harmonics?: true
    Max angular momentum: 2

  ==> DFT Potential <==

   => LibXC <=

    Version 6.2.2
    S. Lehtola, C. Steigemann, M. J.T. Oliveira, and M. A.L. Marques.,  SoftwareX 7, 1–5 (2018) (10.1016/j.softx.2017.11.002)

   => Composite Functional: B3LYP <= 

    B3LYP Hyb-GGA Exchange-Correlation Functional

    P. J. Stephens, F. J. Devlin, C. F. Chabalowski, and M. J. Frisch.,  J. Phys. Chem. 98, 11623 (1994) (10.1021/j100096a001)

    Deriv               =              1
    GGA                 =           TRUE
    Meta                =          FALSE

    Exchange Hybrid     =           TRUE
    MP2 Hybrid          =          FALSE

   => Exchange Functionals <=

    0.0800   Slater exchange
    0.7200         Becke 88

   => Exact (HF) Exchange <=

    0.2000               HF 

   => Correlation Functionals <=

    0.1900   Vosko, Wilk & Nusair (VWN5_RPA)
    0.8100   Lee, Yang & Parr

   => LibXC Density Thresholds  <==

    XC_HYB_GGA_XC_B3LYP:  1.00E-15 

   => Molecular Quadrature <=

    Radial Scheme          =       TREUTLER
    Pruning Scheme         =           NONE
    Nuclear Scheme         =       TREUTLER

    Blocking Scheme        =         OCTREE
    BS radius alpha        =              1
    Pruning alpha          =              1
    Radial Points          =             75
    Spherical Points       =            302
    Total Points           =          44102
    Total Blocks           =            386
    Max Points             =            256
    Max Functions          =             10
    Weights Tolerance      =       1.00E-15


  -Total Gradient:
     Atom            X                  Y                   Z
    ------   -----------------  -----------------  -----------------
       1       -0.000000000000     0.047874517750     0.000000000000
       2        0.000000000000    -0.047874517750     0.000000000000


*** tstop() called on Joses-MacBook-Pro-2.local at Thu Jul 17 09:17:03 2025
Module time:
	user time   =       0.11 seconds =       0.00 minutes
	system time =       0.32 seconds =       0.01 minutes
	total time  =          0 seconds =       0.00 minutes
Total time:
	user time   =       0.77 seconds =       0.01 minutes
	system time =       2.19 seconds =       0.04 minutes
	total time  =          0 seconds =       0.00 minutes

    			-----------------------------------------

    			 OPTKING 3.0: for geometry optimizations 

    			     By R.A. King, Bethel University     

    			        with contributions from          

    			    A.V. Copan, J. Cayton, A. Heide      

    			-----------------------------------------

    
	                            ===> Fragment 1 <== 

	 Z (Atomic Numbers)          Masses                          Geom                  
	       2.000000             4.002603         -0.00000000  1.13383568  0.00000000   
	       2.000000             4.002603          0.00000000 -1.13383568  0.00000000   

	 - Coordinate -           - BOHR/RAD -       - ANG/DEG -
	 R(1,2)           =         2.267671           1.200000


	        --- Internal Coordinate Step in ANG or DEG, aJ/ANG or AJ/DEG ---
	-------------------------------------------------------------------------------
	           Coordinate      Previous         Force          Change          New 
	           ----------      --------        ------          ------        ------
	               R(1,2)       1.20000       -0.39442       -0.19882       1.00118
	-------------------------------------------------------------------------------

	                                 ==> Convergence Check <==                                  
    
	Measures of convergence in internal coordinates in au.
    
	Criteria marked as inactive (o), active & met (*), and active & unmet ( ).

	----------------------------------------------------------------------------------------------
	   Step    Total Energy     Delta E     Max Force     RMS Force      Max Disp      RMS Disp   
	----------------------------------------------------------------------------------------------
	  Convergence Criteria     1.00e-06 *    3.00e-04 *             o    1.20e-03 *             o
	----------------------------------------------------------------------------------------------
	     1      -3.06190412   -3.06e+00      4.79e-02      4.79e-02 o    3.76e-01      3.76e-01 o  ~
	----------------------------------------------------------------------------------------------

Next Geometry in Ang 
	Fragment 1 (Ang)

	   He  -0.0000000000   0.5005906790   0.0000000000
	   He   0.0000000000  -0.5005906790   0.0000000000


    Structure for next step:
    Molecular point group: d2h
    Full point group: D_inf_h

    Geometry (in Angstrom), charge = -1, multiplicity = 4:

    HE          -0.000000000000     0.500590679050     0.000000000000
    HE           0.000000000000    -0.500590679050     0.000000000000


Scratch directory: /tmp/
gradient() will perform analytic gradient computation.
   => Libint2 <=

    Primary   basis highest AM E, G, H:  6, 6, 3
    Auxiliary basis highest AM E, G, H:  7, 7, 4
    Onebody   basis highest AM E, G, H:  -, -, -
    Solid Harmonics ordering:            Gaussian

*** tstart() called on Joses-MacBook-Pro-2.local
*** at Thu Jul 17 09:17:03 2025

   => Loading Basis Set <=

    Name: CC-PVDZ
    Role: ORBITAL
    Keyword: BASIS
    atoms 1-2 entry HE         line    32 file /Users/joseantoniorodriguesromero/anaconda3/share/psi4/basis/cc-pvdz.gbs 


         ---------------------------------------------------------
                                   SCF
               by Justin Turney, Rob Parrish, Andy Simmonett
                          and Daniel G. A. Smith
                              UKS Reference
                        1 Threads,    500 MiB Core
         ---------------------------------------------------------

  ==> Geometry <==

    Molecular point group: d2h
    Full point group: D_inf_h

    Geometry (in Angstrom), charge = -1, multiplicity = 4:

       Center              X                  Y                   Z               Mass       
    ------------   -----------------  -----------------  -----------------  -----------------
         HE          -0.000000000000     0.500590679050     0.000000000000     4.002603254130
         HE           0.000000000000    -0.500590679050     0.000000000000     4.002603254130

  Running in d2h symmetry.

  Rotational constants: A = ************  B =      8.40347  C =      8.40347 [cm^-1]
  Rotational constants: A = ************  B = 251929.56797  C = 251929.56797 [MHz]
  Nuclear repulsion =    2.114211202152465

  Charge       = -1
  Multiplicity = 4
  Electrons    = 5
  Nalpha       = 4
  Nbeta        = 1

  ==> Algorithm <==

  SCF Algorithm Type is DF.
  DIIS enabled.
  MOM disabled.
  Fractional occupation disabled.
  Guess Type is READ.
  Energy threshold   = 1.00e-08
  Density threshold  = 1.00e-08
  Integral threshold = 1.00e-12

  ==> Primary Basis <==

  Basis Set: CC-PVDZ
    Blend: CC-PVDZ
    Number of shells: 6
    Number of basis functions: 10
    Number of Cartesian functions: 10
    Spherical Harmonics?: true
    Max angular momentum: 1

  ==> DFT Potential <==

   => LibXC <=

    Version 6.2.2
    S. Lehtola, C. Steigemann, M. J.T. Oliveira, and M. A.L. Marques.,  SoftwareX 7, 1–5 (2018) (10.1016/j.softx.2017.11.002)

   => Composite Functional: B3LYP <= 

    B3LYP Hyb-GGA Exchange-Correlation Functional

    P. J. Stephens, F. J. Devlin, C. F. Chabalowski, and M. J. Frisch.,  J. Phys. Chem. 98, 11623 (1994) (10.1021/j100096a001)

    Deriv               =              1
    GGA                 =           TRUE
    Meta                =          FALSE

    Exchange Hybrid     =           TRUE
    MP2 Hybrid          =          FALSE

   => Exchange Functionals <=

    0.0800   Slater exchange
    0.7200         Becke 88

   => Exact (HF) Exchange <=

    0.2000               HF 

   => Correlation Functionals <=

    0.1900   Vosko, Wilk & Nusair (VWN5_RPA)
    0.8100   Lee, Yang & Parr

   => LibXC Density Thresholds  <==

    XC_HYB_GGA_XC_B3LYP:  1.00E-15 

   => Molecular Quadrature <=

    Radial Scheme          =       TREUTLER
    Pruning Scheme         =           NONE
    Nuclear Scheme         =       TREUTLER

    Blocking Scheme        =         OCTREE
    BS radius alpha        =              1
    Pruning alpha          =              1
    Radial Points          =             75
    Spherical Points       =            302
    Total Points           =          44064
    Total Blocks           =            384
    Max Points             =            256
    Max Functions          =             10
    Weights Tolerance      =       1.00E-15

   => Loading Basis Set <=

    Name: (CC-PVDZ AUX)
    Role: JKFIT
    Keyword: DF_BASIS_SCF
    atoms 1-2 entry HE         line    34 file /Users/joseantoniorodriguesromero/anaconda3/share/psi4/basis/def2-universal-jkfit.gbs 

   => Loading Basis Set <=

    Name: CC-PVDZ
    Role: ORBITAL
    Keyword: BASIS
    atoms 1-2 entry HE         line    32 file /Users/joseantoniorodriguesromero/anaconda3/share/psi4/basis/cc-pvdz.gbs 

  Reading orbitals from file /tmp/quartet_HeHe.default.71812.180.npy, no projection.

  ==> Integral Setup <==

  DFHelper Memory: AOs need 0.000 GiB; user supplied 0.353 GiB. 
  Using in-core AOs.

  ==> MemDFJK: Density-Fitted J/K Matrices <==

    J tasked:                   Yes
    K tasked:                   Yes
    wK tasked:                   No
    OpenMP threads:               1
    Memory [MiB]:               361
    Algorithm:                 Core
    Schwarz Cutoff:           1E-12
    Mask sparsity (%):       0.0000
    Fitting Condition:        1E-10

   => Auxiliary Basis Set <=

  Basis Set: (CC-PVDZ AUX)
    Blend: DEF2-UNIVERSAL-JKFIT
    Number of shells: 18
    Number of basis functions: 46
    Number of Cartesian functions: 50
    Spherical Harmonics?: true
    Max angular momentum: 2

  Cached 100.0% of DFT collocation blocks in 0.013 [GiB].

  Minimum eigenvalue in the overlap matrix is 3.1266394017E-01.
  Reciprocal condition number of the overlap matrix is 1.7820208047E-01.
    Using symmetric orthogonalization.

  ==> Pre-Iterations <==

  SCF Guess: Orbitals guess was supplied from a previous computation.

   -------------------------------------------------------
    Irrep   Nso     Nmo     Nalpha   Nbeta   Ndocc  Nsocc
   -------------------------------------------------------
     Ag         3       3       2       1       1       1
     B1g        1       1       0       0       0       0
     B2g        0       0       0       0       0       0
     B3g        1       1       0       0       0       0
     Au         0       0       0       0       0       0
     B1u        1       1       0       0       0       0
     B2u        3       3       2       0       0       2
     B3u        1       1       0       0       0       0
   -------------------------------------------------------
    Total      10      10       4       1       1       3
   -------------------------------------------------------

  ==> Iterations <==

                           Total Energy        Delta E     RMS |[F,P]|

   @DF-UKS iter   0:    -3.23116921061980   -3.23117e+00   5.77957e-02 
   @DF-UKS iter   1:    -3.11665412545665    1.14515e-01   6.25441e-03 ADIIS/DIIS
   @DF-UKS iter   2:    -3.11727616326085   -6.22038e-04   6.96016e-04 ADIIS/DIIS/DAMP=1%
   @DF-UKS iter   3:    -3.11728391122376   -7.74796e-06   9.38637e-05 DIIS/DAMP=1%
   @DF-UKS iter   4:    -3.11728526576518   -1.35454e-06   7.16407e-06 DIIS/DAMP=1%
   @DF-UKS iter   5:    -3.11728572651653   -4.60751e-07   2.72890e-07 DIIS/DAMP=1%
   @DF-UKS iter   6:    -3.11728571092387    1.55927e-08   9.58892e-09 DIIS/DAMP=1%
   @DF-UKS iter   7:    -3.11728571168648   -7.62611e-10   3.73335e-10 DIIS/DAMP=1%
  Energy and wave function converged.


  ==> Post-Iterations <==

   Electrons on quadrature grid:
      Nalpha   =    4.0000000023 ; deviation = 2.263e-09
      Nbeta    =    0.9999999926 ; deviation = -7.369e-09
      Ntotal   =    4.9999999949 ; deviation = -5.106e-09 

   @Spin Contamination Metric:   1.076858759E-03
   @S^2 Expected:                3.750000000E+00
   @S^2 Observed:                3.751076859E+00
   @S   Expected:                1.500000000E+00
   @S   Observed:                1.500000000E+00

    Orbital Energies [Eh]
    ---------------------

    Alpha Occupied:                                                       

       1Ag    -0.465531     1B2u   -0.088200     2B2u    1.325801  
       2Ag     1.341069  

    Alpha Virtual:                                                        

       3Ag     2.341129     1B1u    2.350347     1B3u    2.350347  
       1B3g    2.902909     1B1g    2.902909     3B2u    3.984134  

    Beta Occupied:                                                        

       1Ag    -0.237018  

    Beta Virtual:                                                         

       1B2u    0.253058     2Ag     1.681663     2B2u    1.692626  
       1B1u    2.437534     1B3u    2.437534     3Ag     2.451153  
       1B3g    3.009346     1B1g    3.009346     3B2u    4.106032  

    Final Occupation by Irrep:
             Ag   B1g   B2g   B3g    Au   B1u   B2u   B3u 
    DOCC [     1,    0,    0,    0,    0,    0,    0,    0 ]
    SOCC [     1,    0,    0,    0,    0,    0,    2,    0 ]
    NA   [     2,    0,    0,    0,    0,    0,    2,    0 ]
    NB   [     1,    0,    0,    0,    0,    0,    0,    0 ]

  @DF-UKS Final Energy:    -3.11728571168648

   => Energetics <=

    Nuclear Repulsion Energy =              2.1142112021524655
    One-Electron Energy =                 -10.6949321380537477
    Two-Electron Energy =                   7.7379745480617279
    DFT Exchange-Correlation Energy =      -2.2745393238469220
    Empirical Dispersion Energy =           0.0000000000000000
    VV10 Nonlocal Energy =                  0.0000000000000000
    Total Energy =                         -3.1172857116864772

  UHF NO Occupations:
  HONO-2 :    2 Ag 1.0000000
  HONO-1 :    1B2u 1.0000000
  HONO-0 :    2B2u 1.0000000
  LUNO+0 :    3 Ag 0.0005386
  LUNO+1 :    3B2u 0.0000000
  LUNO+2 :    1B3u 0.0000000
  LUNO+3 :    1B1u 0.0000000


Computation Completed


Properties will be evaluated at   0.000000,   0.000000,   0.000000 [a0]

Properties computed using the SCF density matrix


 Multipole Moments:

 ------------------------------------------------------------------------------------
     Multipole            Electronic (a.u.)      Nuclear  (a.u.)        Total (a.u.)
 ------------------------------------------------------------------------------------

 L = 1.  Multiply by 2.5417464519 to convert [e a0] to [Debye]
 Dipole X            :          0.0000000            0.0000000            0.0000000
 Dipole Y            :          0.0000000            0.0000000            0.0000000
 Dipole Z            :          0.0000000            0.0000000            0.0000000
 Magnitude           :                                                    0.0000000

 ------------------------------------------------------------------------------------

*** tstop() called on Joses-MacBook-Pro-2.local at Thu Jul 17 09:17:03 2025
Module time:
	user time   =       0.57 seconds =       0.01 minutes
	system time =       2.63 seconds =       0.04 minutes
	total time  =          0 seconds =       0.00 minutes
Total time:
	user time   =       1.38 seconds =       0.02 minutes
	system time =       5.00 seconds =       0.08 minutes
	total time  =          0 seconds =       0.00 minutes

*** tstart() called on Joses-MacBook-Pro-2.local
*** at Thu Jul 17 09:17:03 2025


         ------------------------------------------------------------
                                   SCF GRAD                          
                          Rob Parrish, Justin Turney,                
                       Andy Simmonett, and Alex Sokolov              
         ------------------------------------------------------------

  ==> Geometry <==

    Molecular point group: d2h
    Full point group: D_inf_h

    Geometry (in Angstrom), charge = -1, multiplicity = 4:

       Center              X                  Y                   Z               Mass       
    ------------   -----------------  -----------------  -----------------  -----------------
         HE          -0.000000000000     0.500590679050     0.000000000000     4.002603254130
         HE           0.000000000000    -0.500590679050     0.000000000000     4.002603254130

  Nuclear repulsion =    2.114211202152465

  ==> Basis Set <==

  Basis Set: CC-PVDZ
    Blend: CC-PVDZ
    Number of shells: 6
    Number of basis functions: 10
    Number of Cartesian functions: 10
    Spherical Harmonics?: true
    Max angular momentum: 1

  ==> DFJKGrad: Density-Fitted SCF Gradients <==

    Gradient:                    1
    J tasked:                  Yes
    K tasked:                  Yes
    wK tasked:                  No
    OpenMP threads:              1
    Integrals threads:           1
    Memory [MiB]:              375
    Schwarz Cutoff:          1E-12
    Fitting Condition:       1E-10

   => Auxiliary Basis Set <=

  Basis Set: (CC-PVDZ AUX)
    Blend: DEF2-UNIVERSAL-JKFIT
    Number of shells: 18
    Number of basis functions: 46
    Number of Cartesian functions: 50
    Spherical Harmonics?: true
    Max angular momentum: 2

  ==> DFT Potential <==

   => LibXC <=

    Version 6.2.2
    S. Lehtola, C. Steigemann, M. J.T. Oliveira, and M. A.L. Marques.,  SoftwareX 7, 1–5 (2018) (10.1016/j.softx.2017.11.002)

   => Composite Functional: B3LYP <= 

    B3LYP Hyb-GGA Exchange-Correlation Functional

    P. J. Stephens, F. J. Devlin, C. F. Chabalowski, and M. J. Frisch.,  J. Phys. Chem. 98, 11623 (1994) (10.1021/j100096a001)

    Deriv               =              1
    GGA                 =           TRUE
    Meta                =          FALSE

    Exchange Hybrid     =           TRUE
    MP2 Hybrid          =          FALSE

   => Exchange Functionals <=

    0.0800   Slater exchange
    0.7200         Becke 88

   => Exact (HF) Exchange <=

    0.2000               HF 

   => Correlation Functionals <=

    0.1900   Vosko, Wilk & Nusair (VWN5_RPA)
    0.8100   Lee, Yang & Parr

   => LibXC Density Thresholds  <==

    XC_HYB_GGA_XC_B3LYP:  1.00E-15 

   => Molecular Quadrature <=

    Radial Scheme          =       TREUTLER
    Pruning Scheme         =           NONE
    Nuclear Scheme         =       TREUTLER

    Blocking Scheme        =         OCTREE
    BS radius alpha        =              1
    Pruning alpha          =              1
    Radial Points          =             75
    Spherical Points       =            302
    Total Points           =          44064
    Total Blocks           =            384
    Max Points             =            256
    Max Functions          =             10
    Weights Tolerance      =       1.00E-15


  -Total Gradient:
     Atom            X                  Y                   Z
    ------   -----------------  -----------------  -----------------
       1       -0.000000000000     0.212235163216    -0.000000000000
       2        0.000000000000    -0.212235163216     0.000000000000


*** tstop() called on Joses-MacBook-Pro-2.local at Thu Jul 17 09:17:03 2025
Module time:
	user time   =       0.12 seconds =       0.00 minutes
	system time =       0.36 seconds =       0.01 minutes
	total time  =          0 seconds =       0.00 minutes
Total time:
	user time   =       1.50 seconds =       0.03 minutes
	system time =       5.36 seconds =       0.09 minutes
	total time  =          0 seconds =       0.00 minutes

    			-----------------------------------------

    			 OPTKING 3.0: for geometry optimizations 

    			     By R.A. King, Bethel University     

    			        with contributions from          

    			    A.V. Copan, J. Cayton, A. Heide      

    			-----------------------------------------

    
	                            ===> Fragment 1 <== 

	 Z (Atomic Numbers)          Masses                          Geom                  
	       2.000000             4.002603         -0.00000000  0.94597928  0.00000000   
	       2.000000             4.002603          0.00000000 -0.94597928  0.00000000   

	 - Coordinate -           - BOHR/RAD -       - ANG/DEG -
	 R(1,2)           =         1.891959           1.001181


	        --- Internal Coordinate Step in ANG or DEG, aJ/ANG or AJ/DEG ---
	-------------------------------------------------------------------------------
	           Coordinate      Previous         Force          Change          New 
	           ----------      --------        ------          ------        ------
	               R(1,2)       1.00118       -1.74855       -0.52918       0.47200
	-------------------------------------------------------------------------------

	                                 ==> Convergence Check <==                                  
    
	Measures of convergence in internal coordinates in au.
    
	Criteria marked as inactive (o), active & met (*), and active & unmet ( ).

	----------------------------------------------------------------------------------------------
	   Step    Total Energy     Delta E     Max Force     RMS Force      Max Disp      RMS Disp   
	----------------------------------------------------------------------------------------------
	  Convergence Criteria     1.00e-06 *    3.00e-04 *             o    1.20e-03 *             o
	----------------------------------------------------------------------------------------------
	     2      -3.11728571   -5.54e-02      2.12e-01      2.12e-01 o    1.00e+00      1.00e+00 o  ~
	----------------------------------------------------------------------------------------------

Next Geometry in Ang 
	Fragment 1 (Ang)

	   He  -0.0000000000   0.2360017969   0.0000000000
	   He   0.0000000000  -0.2360017969   0.0000000000


    Structure for next step:
    Molecular point group: d2h
    Full point group: D_inf_h

    Geometry (in Angstrom), charge = -1, multiplicity = 4:

    HE          -0.000000000000     0.236001796930     0.000000000000
    HE           0.000000000000    -0.236001796930     0.000000000000


Scratch directory: /tmp/
gradient() will perform analytic gradient computation.
   => Libint2 <=

    Primary   basis highest AM E, G, H:  6, 6, 3
    Auxiliary basis highest AM E, G, H:  7, 7, 4
    Onebody   basis highest AM E, G, H:  -, -, -
    Solid Harmonics ordering:            Gaussian

*** tstart() called on Joses-MacBook-Pro-2.local
*** at Thu Jul 17 09:17:03 2025

   => Loading Basis Set <=

    Name: CC-PVDZ
    Role: ORBITAL
    Keyword: BASIS
    atoms 1-2 entry HE         line    32 file /Users/joseantoniorodriguesromero/anaconda3/share/psi4/basis/cc-pvdz.gbs 


         ---------------------------------------------------------
                                   SCF
               by Justin Turney, Rob Parrish, Andy Simmonett
                          and Daniel G. A. Smith
                              UKS Reference
                        1 Threads,    500 MiB Core
         ---------------------------------------------------------

  ==> Geometry <==

    Molecular point group: d2h
    Full point group: D_inf_h

    Geometry (in Angstrom), charge = -1, multiplicity = 4:

       Center              X                  Y                   Z               Mass       
    ------------   -----------------  -----------------  -----------------  -----------------
         HE          -0.000000000000     0.236001796930     0.000000000000     4.002603254130
         HE           0.000000000000    -0.236001796930     0.000000000000     4.002603254130

  Running in d2h symmetry.

  Rotational constants: A = ************  B =     37.80884  C =     37.80884 [cm^-1]
  Rotational constants: A = ************  B = 1133480.46615  C = 1133480.46615 [MHz]
  Nuclear repulsion =    4.484518487185865

  Charge       = -1
  Multiplicity = 4
  Electrons    = 5
  Nalpha       = 4
  Nbeta        = 1

  ==> Algorithm <==

  SCF Algorithm Type is DF.
  DIIS enabled.
  MOM disabled.
  Fractional occupation disabled.
  Guess Type is READ.
  Energy threshold   = 1.00e-08
  Density threshold  = 1.00e-08
  Integral threshold = 1.00e-12

  ==> Primary Basis <==

  Basis Set: CC-PVDZ
    Blend: CC-PVDZ
    Number of shells: 6
    Number of basis functions: 10
    Number of Cartesian functions: 10
    Spherical Harmonics?: true
    Max angular momentum: 1

  ==> DFT Potential <==

   => LibXC <=

    Version 6.2.2
    S. Lehtola, C. Steigemann, M. J.T. Oliveira, and M. A.L. Marques.,  SoftwareX 7, 1–5 (2018) (10.1016/j.softx.2017.11.002)

   => Composite Functional: B3LYP <= 

    B3LYP Hyb-GGA Exchange-Correlation Functional

    P. J. Stephens, F. J. Devlin, C. F. Chabalowski, and M. J. Frisch.,  J. Phys. Chem. 98, 11623 (1994) (10.1021/j100096a001)

    Deriv               =              1
    GGA                 =           TRUE
    Meta                =          FALSE

    Exchange Hybrid     =           TRUE
    MP2 Hybrid          =          FALSE

   => Exchange Functionals <=

    0.0800   Slater exchange
    0.7200         Becke 88

   => Exact (HF) Exchange <=

    0.2000               HF 

   => Correlation Functionals <=

    0.1900   Vosko, Wilk & Nusair (VWN5_RPA)
    0.8100   Lee, Yang & Parr

   => LibXC Density Thresholds  <==

    XC_HYB_GGA_XC_B3LYP:  1.00E-15 

   => Molecular Quadrature <=

    Radial Scheme          =       TREUTLER
    Pruning Scheme         =           NONE
    Nuclear Scheme         =       TREUTLER

    Blocking Scheme        =         OCTREE
    BS radius alpha        =              1
    Pruning alpha          =              1
    Radial Points          =             75
    Spherical Points       =            302
    Total Points           =          43882
    Total Blocks           =            374
    Max Points             =            256
    Max Functions          =             10
    Weights Tolerance      =       1.00E-15

   => Loading Basis Set <=

    Name: (CC-PVDZ AUX)
    Role: JKFIT
    Keyword: DF_BASIS_SCF
    atoms 1-2 entry HE         line    34 file /Users/joseantoniorodriguesromero/anaconda3/share/psi4/basis/def2-universal-jkfit.gbs 

   => Loading Basis Set <=

    Name: CC-PVDZ
    Role: ORBITAL
    Keyword: BASIS
    atoms 1-2 entry HE         line    32 file /Users/joseantoniorodriguesromero/anaconda3/share/psi4/basis/cc-pvdz.gbs 

  Reading orbitals from file /tmp/quartet_HeHe.default.71812.180.npy, no projection.

  ==> Integral Setup <==

  DFHelper Memory: AOs need 0.000 GiB; user supplied 0.353 GiB. 
  Using in-core AOs.

  ==> MemDFJK: Density-Fitted J/K Matrices <==

    J tasked:                   Yes
    K tasked:                   Yes
    wK tasked:                   No
    OpenMP threads:               1
    Memory [MiB]:               361
    Algorithm:                 Core
    Schwarz Cutoff:           1E-12
    Mask sparsity (%):       0.0000
    Fitting Condition:        1E-10

   => Auxiliary Basis Set <=

  Basis Set: (CC-PVDZ AUX)
    Blend: DEF2-UNIVERSAL-JKFIT
    Number of shells: 18
    Number of basis functions: 46
    Number of Cartesian functions: 50
    Spherical Harmonics?: true
    Max angular momentum: 2

  Cached 100.0% of DFT collocation blocks in 0.013 [GiB].

  Minimum eigenvalue in the overlap matrix is 8.9140209578E-02.
  Reciprocal condition number of the overlap matrix is 3.7712900830E-02.
    Using symmetric orthogonalization.

  ==> Pre-Iterations <==

  SCF Guess: Orbitals guess was supplied from a previous computation.

   -------------------------------------------------------
    Irrep   Nso     Nmo     Nalpha   Nbeta   Ndocc  Nsocc
   -------------------------------------------------------
     Ag         3       3       2       1       1       1
     B1g        1       1       0       0       0       0
     B2g        0       0       0       0       0       0
     B3g        1       1       0       0       0       0
     Au         0       0       0       0       0       0
     B1u        1       1       0       0       0       0
     B2u        3       3       2       0       0       2
     B3u        1       1       0       0       0       0
   -------------------------------------------------------
    Total      10      10       4       1       1       3
   -------------------------------------------------------

  ==> Iterations <==

                           Total Energy        Delta E     RMS |[F,P]|

   @DF-UKS iter   0:    -3.59123380862662   -3.59123e+00   2.14945e-01 
   @DF-UKS iter   1:    -2.78566328146502    8.05571e-01   5.65625e-02 ADIIS/DIIS
   @DF-UKS iter   2:    -2.81366183980543   -2.79986e-02   7.39151e-03 ADIIS/DIIS/DAMP=1%
   @DF-UKS iter   3:    -2.81397248719237   -3.10647e-04   6.15825e-04 ADIIS/DIIS/DAMP=1%
   @DF-UKS iter   4:    -2.81390503041178    6.74568e-05   8.31843e-06 DIIS/DAMP=1%
   @DF-UKS iter   5:    -2.81390703655571   -2.00614e-06   3.55900e-07 DIIS/DAMP=1%
   @DF-UKS iter   6:    -2.81390699700136    3.95544e-08   1.05262e-08 DIIS/DAMP=1%
   @DF-UKS iter   7:    -2.81390699986129   -2.85993e-09   4.94741e-10 DIIS/DAMP=1%
  Energy and wave function converged.


  ==> Post-Iterations <==

   Electrons on quadrature grid:
      Nalpha   =    4.0000000103 ; deviation = 1.033e-08
      Nbeta    =    1.0000000026 ; deviation = 2.613e-09
      Ntotal   =    5.0000000129 ; deviation = 1.295e-08 

   @Spin Contamination Metric:   5.867560396E-04
   @S^2 Expected:                3.750000000E+00
   @S^2 Observed:                3.750586756E+00
   @S   Expected:                1.500000000E+00
   @S   Observed:                1.500000000E+00

    Orbital Energies [Eh]
    ---------------------

    Alpha Occupied:                                                       

       1Ag    -1.002836     1B2u    0.340347     2Ag     0.940332  
       2B2u    1.470627  

    Alpha Virtual:                                                        

       1B3u    2.094882     1B1u    2.094882     1B3g    3.513208  
       1B1g    3.513208     3Ag     3.539539     3B2u    6.359559  

    Beta Occupied:                                                        

       1Ag    -0.798938  

    Beta Virtual:                                                         

       1B2u    0.621216     2Ag     1.179451     2B2u    1.824935  
       1B1u    2.157623     1B3u    2.157623     1B3g    3.633815  
       1B1g    3.633815     3Ag     3.700259     3B2u    6.623804  

    Final Occupation by Irrep:
             Ag   B1g   B2g   B3g    Au   B1u   B2u   B3u 
    DOCC [     1,    0,    0,    0,    0,    0,    0,    0 ]
    SOCC [     1,    0,    0,    0,    0,    0,    2,    0 ]
    NA   [     2,    0,    0,    0,    0,    0,    2,    0 ]
    NB   [     1,    0,    0,    0,    0,    0,    0,    0 ]

  @DF-UKS Final Energy:    -2.81390699986129

   => Energetics <=

    Nuclear Repulsion Energy =              4.4845184871858645
    One-Electron Energy =                 -13.8520751689523927
    Two-Electron Energy =                   8.9135432854030689
    DFT Exchange-Correlation Energy =      -2.3598936034978353
    Empirical Dispersion Energy =           0.0000000000000000
    VV10 Nonlocal Energy =                  0.0000000000000000
    Total Energy =                         -2.8139069998612944

  UHF NO Occupations:
  HONO-2 :    1B2u 1.0000000
  HONO-1 :    2B2u 1.0000000
  HONO-0 :    2 Ag 1.0000000
  LUNO+0 :    3 Ag 0.0002934
  LUNO+1 :    1B3u 0.0000000
  LUNO+2 :    1B1u 0.0000000
  LUNO+3 :    1B3g 0.0000000


Computation Completed


Properties will be evaluated at   0.000000,   0.000000,   0.000000 [a0]

Properties computed using the SCF density matrix


 Multipole Moments:

 ------------------------------------------------------------------------------------
     Multipole            Electronic (a.u.)      Nuclear  (a.u.)        Total (a.u.)
 ------------------------------------------------------------------------------------

 L = 1.  Multiply by 2.5417464519 to convert [e a0] to [Debye]
 Dipole X            :          0.0000000            0.0000000            0.0000000
 Dipole Y            :          0.0000000            0.0000000            0.0000000
 Dipole Z            :          0.0000000            0.0000000            0.0000000
 Magnitude           :                                                    0.0000000

 ------------------------------------------------------------------------------------

*** tstop() called on Joses-MacBook-Pro-2.local at Thu Jul 17 09:17:04 2025
Module time:
	user time   =       0.62 seconds =       0.01 minutes
	system time =       2.54 seconds =       0.04 minutes
	total time  =          1 seconds =       0.02 minutes
Total time:
	user time   =       2.16 seconds =       0.04 minutes
	system time =       8.07 seconds =       0.13 minutes
	total time  =          1 seconds =       0.02 minutes

*** tstart() called on Joses-MacBook-Pro-2.local
*** at Thu Jul 17 09:17:04 2025


         ------------------------------------------------------------
                                   SCF GRAD                          
                          Rob Parrish, Justin Turney,                
                       Andy Simmonett, and Alex Sokolov              
         ------------------------------------------------------------

  ==> Geometry <==

    Molecular point group: d2h
    Full point group: D_inf_h

    Geometry (in Angstrom), charge = -1, multiplicity = 4:

       Center              X                  Y                   Z               Mass       
    ------------   -----------------  -----------------  -----------------  -----------------
         HE          -0.000000000000     0.236001796930     0.000000000000     4.002603254130
         HE           0.000000000000    -0.236001796930     0.000000000000     4.002603254130

  Nuclear repulsion =    4.484518487185865

  ==> Basis Set <==

  Basis Set: CC-PVDZ
    Blend: CC-PVDZ
    Number of shells: 6
    Number of basis functions: 10
    Number of Cartesian functions: 10
    Spherical Harmonics?: true
    Max angular momentum: 1

  ==> DFJKGrad: Density-Fitted SCF Gradients <==

    Gradient:                    1
    J tasked:                  Yes
    K tasked:                  Yes
    wK tasked:                  No
    OpenMP threads:              1
    Integrals threads:           1
    Memory [MiB]:              375
    Schwarz Cutoff:          1E-12
    Fitting Condition:       1E-10

   => Auxiliary Basis Set <=

  Basis Set: (CC-PVDZ AUX)
    Blend: DEF2-UNIVERSAL-JKFIT
    Number of shells: 18
    Number of basis functions: 46
    Number of Cartesian functions: 50
    Spherical Harmonics?: true
    Max angular momentum: 2

  ==> DFT Potential <==

   => LibXC <=

    Version 6.2.2
    S. Lehtola, C. Steigemann, M. J.T. Oliveira, and M. A.L. Marques.,  SoftwareX 7, 1–5 (2018) (10.1016/j.softx.2017.11.002)

   => Composite Functional: B3LYP <= 

    B3LYP Hyb-GGA Exchange-Correlation Functional

    P. J. Stephens, F. J. Devlin, C. F. Chabalowski, and M. J. Frisch.,  J. Phys. Chem. 98, 11623 (1994) (10.1021/j100096a001)

    Deriv               =              1
    GGA                 =           TRUE
    Meta                =          FALSE

    Exchange Hybrid     =           TRUE
    MP2 Hybrid          =          FALSE

   => Exchange Functionals <=

    0.0800   Slater exchange
    0.7200         Becke 88

   => Exact (HF) Exchange <=

    0.2000               HF 

   => Correlation Functionals <=

    0.1900   Vosko, Wilk & Nusair (VWN5_RPA)
    0.8100   Lee, Yang & Parr

   => LibXC Density Thresholds  <==

    XC_HYB_GGA_XC_B3LYP:  1.00E-15 

   => Molecular Quadrature <=

    Radial Scheme          =       TREUTLER
    Pruning Scheme         =           NONE
    Nuclear Scheme         =       TREUTLER

    Blocking Scheme        =         OCTREE
    BS radius alpha        =              1
    Pruning alpha          =              1
    Radial Points          =             75
    Spherical Points       =            302
    Total Points           =          43882
    Total Blocks           =            374
    Max Points             =            256
    Max Functions          =             10
    Weights Tolerance      =       1.00E-15


  -Total Gradient:
     Atom            X                  Y                   Z
    ------   -----------------  -----------------  -----------------
       1        0.000000000000    -2.163018061361     0.000000000000
       2       -0.000000000000     2.163018061361     0.000000000000


*** tstop() called on Joses-MacBook-Pro-2.local at Thu Jul 17 09:17:04 2025
Module time:
	user time   =       0.18 seconds =       0.00 minutes
	system time =       0.33 seconds =       0.01 minutes
	total time  =          0 seconds =       0.00 minutes
Total time:
	user time   =       2.34 seconds =       0.04 minutes
	system time =       8.40 seconds =       0.14 minutes
	total time  =          1 seconds =       0.02 minutes

    			-----------------------------------------

    			 OPTKING 3.0: for geometry optimizations 

    			     By R.A. King, Bethel University     

    			        with contributions from          

    			    A.V. Copan, J. Cayton, A. Heide      

    			-----------------------------------------

    
	                            ===> Fragment 1 <== 

	 Z (Atomic Numbers)          Masses                          Geom                  
	       2.000000             4.002603         -0.00000000  0.44597876  0.00000000   
	       2.000000             4.002603          0.00000000 -0.44597876  0.00000000   

	 - Coordinate -           - BOHR/RAD -       - ANG/DEG -
	 R(1,2)           =         0.891958           0.472004


	        --- Internal Coordinate Step in ANG or DEG, aJ/ANG or AJ/DEG ---
	-------------------------------------------------------------------------------
	           Coordinate      Previous         Force          Change          New 
	           ----------      --------        ------          ------        ------
	               R(1,2)       0.47200       17.82051        0.13230       0.60430
	-------------------------------------------------------------------------------

	                                 ==> Convergence Check <==                                  
    
	Measures of convergence in internal coordinates in au.
    
	Criteria marked as inactive (o), active & met (*), and active & unmet ( ).

	----------------------------------------------------------------------------------------------
	   Step    Total Energy     Delta E     Max Force     RMS Force      Max Disp      RMS Disp   
	----------------------------------------------------------------------------------------------
	  Convergence Criteria     1.00e-06 *    3.00e-04 *             o    1.20e-03 *             o
	----------------------------------------------------------------------------------------------
	     3      -2.81390700    3.03e-01      2.16e+00      2.16e+00 o    2.50e-01      2.50e-01 o  ~
	----------------------------------------------------------------------------------------------

Next Geometry in Ang 
	Fragment 1 (Ang)

	   He  -0.0000000000   0.3021493422   0.0000000000
	   He   0.0000000000  -0.3021493422   0.0000000000


    Structure for next step:
    Molecular point group: d2h
    Full point group: D_inf_h

    Geometry (in Angstrom), charge = -1, multiplicity = 4:

    HE          -0.000000000000     0.302149342190     0.000000000000
    HE           0.000000000000    -0.302149342190     0.000000000000


Scratch directory: /tmp/
gradient() will perform analytic gradient computation.
   => Libint2 <=

    Primary   basis highest AM E, G, H:  6, 6, 3
    Auxiliary basis highest AM E, G, H:  7, 7, 4
    Onebody   basis highest AM E, G, H:  -, -, -
    Solid Harmonics ordering:            Gaussian

*** tstart() called on Joses-MacBook-Pro-2.local
*** at Thu Jul 17 09:17:04 2025

   => Loading Basis Set <=

    Name: CC-PVDZ
    Role: ORBITAL
    Keyword: BASIS
    atoms 1-2 entry HE         line    32 file /Users/joseantoniorodriguesromero/anaconda3/share/psi4/basis/cc-pvdz.gbs 


         ---------------------------------------------------------
                                   SCF
               by Justin Turney, Rob Parrish, Andy Simmonett
                          and Daniel G. A. Smith
                              UKS Reference
                        1 Threads,    500 MiB Core
         ---------------------------------------------------------

  ==> Geometry <==

    Molecular point group: d2h
    Full point group: D_inf_h

    Geometry (in Angstrom), charge = -1, multiplicity = 4:

       Center              X                  Y                   Z               Mass       
    ------------   -----------------  -----------------  -----------------  -----------------
         HE          -0.000000000000     0.302149342190     0.000000000000     4.002603254130
         HE           0.000000000000    -0.302149342190     0.000000000000     4.002603254130

  Running in d2h symmetry.

  Rotational constants: A = ************  B =     23.06644  C =     23.06644 [cm^-1]
  Rotational constants: A = ************  B = 691514.59929  C = 691514.59929 [MHz]
  Nuclear repulsion =    3.502752690666321

  Charge       = -1
  Multiplicity = 4
  Electrons    = 5
  Nalpha       = 4
  Nbeta        = 1

  ==> Algorithm <==

  SCF Algorithm Type is DF.
  DIIS enabled.
  MOM disabled.
  Fractional occupation disabled.
  Guess Type is READ.
  Energy threshold   = 1.00e-08
  Density threshold  = 1.00e-08
  Integral threshold = 1.00e-12

  ==> Primary Basis <==

  Basis Set: CC-PVDZ
    Blend: CC-PVDZ
    Number of shells: 6
    Number of basis functions: 10
    Number of Cartesian functions: 10
    Spherical Harmonics?: true
    Max angular momentum: 1

  ==> DFT Potential <==

   => LibXC <=

    Version 6.2.2
    S. Lehtola, C. Steigemann, M. J.T. Oliveira, and M. A.L. Marques.,  SoftwareX 7, 1–5 (2018) (10.1016/j.softx.2017.11.002)

   => Composite Functional: B3LYP <= 

    B3LYP Hyb-GGA Exchange-Correlation Functional

    P. J. Stephens, F. J. Devlin, C. F. Chabalowski, and M. J. Frisch.,  J. Phys. Chem. 98, 11623 (1994) (10.1021/j100096a001)

    Deriv               =              1
    GGA                 =           TRUE
    Meta                =          FALSE

    Exchange Hybrid     =           TRUE
    MP2 Hybrid          =          FALSE

   => Exchange Functionals <=

    0.0800   Slater exchange
    0.7200         Becke 88

   => Exact (HF) Exchange <=

    0.2000               HF 

   => Correlation Functionals <=

    0.1900   Vosko, Wilk & Nusair (VWN5_RPA)
    0.8100   Lee, Yang & Parr

   => LibXC Density Thresholds  <==

    XC_HYB_GGA_XC_B3LYP:  1.00E-15 

   => Molecular Quadrature <=

    Radial Scheme          =       TREUTLER
    Pruning Scheme         =           NONE
    Nuclear Scheme         =       TREUTLER

    Blocking Scheme        =         OCTREE
    BS radius alpha        =              1
    Pruning alpha          =              1
    Radial Points          =             75
    Spherical Points       =            302
    Total Points           =          43968
    Total Blocks           =            376
    Max Points             =            252
    Max Functions          =             10
    Weights Tolerance      =       1.00E-15

   => Loading Basis Set <=

    Name: (CC-PVDZ AUX)
    Role: JKFIT
    Keyword: DF_BASIS_SCF
    atoms 1-2 entry HE         line    34 file /Users/joseantoniorodriguesromero/anaconda3/share/psi4/basis/def2-universal-jkfit.gbs 

   => Loading Basis Set <=

    Name: CC-PVDZ
    Role: ORBITAL
    Keyword: BASIS
    atoms 1-2 entry HE         line    32 file /Users/joseantoniorodriguesromero/anaconda3/share/psi4/basis/cc-pvdz.gbs 

  Reading orbitals from file /tmp/quartet_HeHe.default.71812.180.npy, no projection.

  ==> Integral Setup <==

  DFHelper Memory: AOs need 0.000 GiB; user supplied 0.353 GiB. 
  Using in-core AOs.

  ==> MemDFJK: Density-Fitted J/K Matrices <==

    J tasked:                   Yes
    K tasked:                   Yes
    wK tasked:                   No
    OpenMP threads:               1
    Memory [MiB]:               361
    Algorithm:                 Core
    Schwarz Cutoff:           1E-12
    Mask sparsity (%):       0.0000
    Fitting Condition:        1E-10

   => Auxiliary Basis Set <=

  Basis Set: (CC-PVDZ AUX)
    Blend: DEF2-UNIVERSAL-JKFIT
    Number of shells: 18
    Number of basis functions: 46
    Number of Cartesian functions: 50
    Spherical Harmonics?: true
    Max angular momentum: 2

  Cached 100.0% of DFT collocation blocks in 0.013 [GiB].

  Minimum eigenvalue in the overlap matrix is 1.5407984989E-01.
  Reciprocal condition number of the overlap matrix is 6.5514742910E-02.
    Using symmetric orthogonalization.

  ==> Pre-Iterations <==

  SCF Guess: Orbitals guess was supplied from a previous computation.

   -------------------------------------------------------
    Irrep   Nso     Nmo     Nalpha   Nbeta   Ndocc  Nsocc
   -------------------------------------------------------
     Ag         3       3       2       1       1       1
     B1g        1       1       0       0       0       0
     B2g        0       0       0       0       0       0
     B3g        1       1       0       0       0       0
     Au         0       0       0       0       0       0
     B1u        1       1       0       0       0       0
     B2u        3       3       2       0       0       2
     B3u        1       1       0       0       0       0
   -------------------------------------------------------
    Total      10      10       4       1       1       3
   -------------------------------------------------------

  ==> Iterations <==

                           Total Energy        Delta E     RMS |[F,P]|

   @DF-UKS iter   0:    -2.87982552952983   -2.87983e+00   1.17001e-01 
   @DF-UKS iter   1:    -3.12364066636616   -2.43815e-01   1.94211e-02 ADIIS/DIIS
   @DF-UKS iter   2:    -3.12726586152450   -3.62520e-03   2.32752e-03 ADIIS/DIIS/DAMP=1%
   @DF-UKS iter   3:    -3.12727148975047   -5.62823e-06   2.01836e-04 ADIIS/DIIS/DAMP=1%
   @DF-UKS iter   4:    -3.12729736105442   -2.58713e-05   4.90269e-06 DIIS/DAMP=1%
   @DF-UKS iter   5:    -3.12729636697562    9.94079e-07   2.47115e-07 DIIS/DAMP=1%
   @DF-UKS iter   6:    -3.12729641283010   -4.58545e-08   7.69609e-09 DIIS/DAMP=1%
   @DF-UKS iter   7:    -3.12729640982884    3.00126e-09   8.19531e-10 DIIS/DAMP=1%
  Energy and wave function converged.


  ==> Post-Iterations <==

   Electrons on quadrature grid:
      Nalpha   =    3.9999999809 ; deviation = -1.909e-08
      Nbeta    =    0.9999999964 ; deviation = -3.610e-09
      Ntotal   =    4.9999999773 ; deviation = -2.270e-08 

   @Spin Contamination Metric:   7.607353204E-04
   @S^2 Expected:                3.750000000E+00
   @S^2 Observed:                3.750760735E+00
   @S   Expected:                1.500000000E+00
   @S   Observed:                1.500000000E+00

    Orbital Energies [Eh]
    ---------------------

    Alpha Occupied:                                                       

       1Ag    -0.782768     1B2u    0.207766     2Ag     1.071936  
       2B2u    1.352453  

    Alpha Virtual:                                                        

       1B3u    2.134874     1B1u    2.134874     3Ag     3.226992  
       1B1g    3.344934     1B3g    3.344934     3B2u    5.021699  

    Beta Occupied:                                                        

       1Ag    -0.564217  

    Beta Virtual:                                                         

       1B2u    0.508297     2Ag     1.335102     2B2u    1.706873  
       1B3u    2.201001     1B1u    2.201001     3Ag     3.378264  
       1B1g    3.457629     1B3g    3.457629     3B2u    5.238218  

    Final Occupation by Irrep:
             Ag   B1g   B2g   B3g    Au   B1u   B2u   B3u 
    DOCC [     1,    0,    0,    0,    0,    0,    0,    0 ]
    SOCC [     1,    0,    0,    0,    0,    0,    2,    0 ]
    NA   [     2,    0,    0,    0,    0,    0,    2,    0 ]
    NB   [     1,    0,    0,    0,    0,    0,    0,    0 ]

  @DF-UKS Final Energy:    -3.12729640982884

   => Energetics <=

    Nuclear Repulsion Energy =              3.5027526906663211
    One-Electron Energy =                 -12.8732534015756759
    Two-Electron Energy =                   8.5663954018749120
    DFT Exchange-Correlation Energy =      -2.3231911007943946
    Empirical Dispersion Energy =           0.0000000000000000
    VV10 Nonlocal Energy =                  0.0000000000000000
    Total Energy =                         -3.1272964098288369

  UHF NO Occupations:
  HONO-2 :    2 Ag 1.0000000
  HONO-1 :    1B2u 1.0000000
  HONO-0 :    2B2u 1.0000000
  LUNO+0 :    3 Ag 0.0003804
  LUNO+1 :    1B3u 0.0000000
  LUNO+2 :    1B1u 0.0000000
  LUNO+3 :    1B3g 0.0000000


Computation Completed


Properties will be evaluated at   0.000000,   0.000000,   0.000000 [a0]

Properties computed using the SCF density matrix


 Multipole Moments:

 ------------------------------------------------------------------------------------
     Multipole            Electronic (a.u.)      Nuclear  (a.u.)        Total (a.u.)
 ------------------------------------------------------------------------------------

 L = 1.  Multiply by 2.5417464519 to convert [e a0] to [Debye]
 Dipole X            :          0.0000000            0.0000000            0.0000000
 Dipole Y            :          0.0000000            0.0000000            0.0000000
 Dipole Z            :          0.0000000            0.0000000            0.0000000
 Magnitude           :                                                    0.0000000

 ------------------------------------------------------------------------------------

*** tstop() called on Joses-MacBook-Pro-2.local at Thu Jul 17 09:17:04 2025
Module time:
	user time   =       0.55 seconds =       0.01 minutes
	system time =       2.64 seconds =       0.04 minutes
	total time  =          0 seconds =       0.00 minutes
Total time:
	user time   =       2.92 seconds =       0.05 minutes
	system time =      11.21 seconds =       0.19 minutes
	total time  =          1 seconds =       0.02 minutes

*** tstart() called on Joses-MacBook-Pro-2.local
*** at Thu Jul 17 09:17:04 2025


         ------------------------------------------------------------
                                   SCF GRAD                          
                          Rob Parrish, Justin Turney,                
                       Andy Simmonett, and Alex Sokolov              
         ------------------------------------------------------------

  ==> Geometry <==

    Molecular point group: d2h
    Full point group: D_inf_h

    Geometry (in Angstrom), charge = -1, multiplicity = 4:

       Center              X                  Y                   Z               Mass       
    ------------   -----------------  -----------------  -----------------  -----------------
         HE          -0.000000000000     0.302149342190     0.000000000000     4.002603254130
         HE           0.000000000000    -0.302149342190     0.000000000000     4.002603254130

  Nuclear repulsion =    3.502752690666321

  ==> Basis Set <==

  Basis Set: CC-PVDZ
    Blend: CC-PVDZ
    Number of shells: 6
    Number of basis functions: 10
    Number of Cartesian functions: 10
    Spherical Harmonics?: true
    Max angular momentum: 1

  ==> DFJKGrad: Density-Fitted SCF Gradients <==

    Gradient:                    1
    J tasked:                  Yes
    K tasked:                  Yes
    wK tasked:                  No
    OpenMP threads:              1
    Integrals threads:           1
    Memory [MiB]:              375
    Schwarz Cutoff:          1E-12
    Fitting Condition:       1E-10

   => Auxiliary Basis Set <=

  Basis Set: (CC-PVDZ AUX)
    Blend: DEF2-UNIVERSAL-JKFIT
    Number of shells: 18
    Number of basis functions: 46
    Number of Cartesian functions: 50
    Spherical Harmonics?: true
    Max angular momentum: 2

  ==> DFT Potential <==

   => LibXC <=

    Version 6.2.2
    S. Lehtola, C. Steigemann, M. J.T. Oliveira, and M. A.L. Marques.,  SoftwareX 7, 1–5 (2018) (10.1016/j.softx.2017.11.002)

   => Composite Functional: B3LYP <= 

    B3LYP Hyb-GGA Exchange-Correlation Functional

    P. J. Stephens, F. J. Devlin, C. F. Chabalowski, and M. J. Frisch.,  J. Phys. Chem. 98, 11623 (1994) (10.1021/j100096a001)

    Deriv               =              1
    GGA                 =           TRUE
    Meta                =          FALSE

    Exchange Hybrid     =           TRUE
    MP2 Hybrid          =          FALSE

   => Exchange Functionals <=

    0.0800   Slater exchange
    0.7200         Becke 88

   => Exact (HF) Exchange <=

    0.2000               HF 

   => Correlation Functionals <=

    0.1900   Vosko, Wilk & Nusair (VWN5_RPA)
    0.8100   Lee, Yang & Parr

   => LibXC Density Thresholds  <==

    XC_HYB_GGA_XC_B3LYP:  1.00E-15 

   => Molecular Quadrature <=

    Radial Scheme          =       TREUTLER
    Pruning Scheme         =           NONE
    Nuclear Scheme         =       TREUTLER

    Blocking Scheme        =         OCTREE
    BS radius alpha        =              1
    Pruning alpha          =              1
    Radial Points          =             75
    Spherical Points       =            302
    Total Points           =          43968
    Total Blocks           =            376
    Max Points             =            252
    Max Functions          =             10
    Weights Tolerance      =       1.00E-15


  -Total Gradient:
     Atom            X                  Y                   Z
    ------   -----------------  -----------------  -----------------
       1        0.000000000000    -0.586086211284     0.000000000000
       2       -0.000000000000     0.586086211284     0.000000000000


*** tstop() called on Joses-MacBook-Pro-2.local at Thu Jul 17 09:17:04 2025
Module time:
	user time   =       0.33 seconds =       0.01 minutes
	system time =       0.09 seconds =       0.00 minutes
	total time  =          0 seconds =       0.00 minutes
Total time:
	user time   =       3.25 seconds =       0.05 minutes
	system time =      11.30 seconds =       0.19 minutes
	total time  =          1 seconds =       0.02 minutes

    			-----------------------------------------

    			 OPTKING 3.0: for geometry optimizations 

    			     By R.A. King, Bethel University     

    			        with contributions from          

    			    A.V. Copan, J. Cayton, A. Heide      

    			-----------------------------------------

    
	                            ===> Fragment 1 <== 

	 Z (Atomic Numbers)          Masses                          Geom                  
	       2.000000             4.002603         -0.00000000  0.57097951  0.00000000   
	       2.000000             4.002603          0.00000000 -0.57097951  0.00000000   

	 - Coordinate -           - BOHR/RAD -       - ANG/DEG -
	 R(1,2)           =         1.141959           0.604299


	        --- Internal Coordinate Step in ANG or DEG, aJ/ANG or AJ/DEG ---
	-------------------------------------------------------------------------------
	           Coordinate      Previous         Force          Change          New 
	           ----------      --------        ------          ------        ------
	               R(1,2)       0.60430        4.82860        0.13229       0.73659
	-------------------------------------------------------------------------------

	                                 ==> Convergence Check <==                                  
    
	Measures of convergence in internal coordinates in au.
    
	Criteria marked as inactive (o), active & met (*), and active & unmet ( ).

	----------------------------------------------------------------------------------------------
	   Step    Total Energy     Delta E     Max Force     RMS Force      Max Disp      RMS Disp   
	----------------------------------------------------------------------------------------------
	  Convergence Criteria     1.00e-06 *    3.00e-04 *             o    1.20e-03 *             o
	----------------------------------------------------------------------------------------------
	     4      -3.12729641   -3.13e-01      5.86e-01      5.86e-01 o    2.50e-01      2.50e-01 o  ~
	----------------------------------------------------------------------------------------------

Next Geometry in Ang 
	Fragment 1 (Ang)

	   He  -0.0000000000   0.3682965065   0.0000000000
	   He   0.0000000000  -0.3682965065   0.0000000000


    Structure for next step:
    Molecular point group: d2h
    Full point group: D_inf_h

    Geometry (in Angstrom), charge = -1, multiplicity = 4:

    HE          -0.000000000000     0.368296506477     0.000000000000
    HE           0.000000000000    -0.368296506477     0.000000000000


Scratch directory: /tmp/
gradient() will perform analytic gradient computation.
   => Libint2 <=

    Primary   basis highest AM E, G, H:  6, 6, 3
    Auxiliary basis highest AM E, G, H:  7, 7, 4
    Onebody   basis highest AM E, G, H:  -, -, -
    Solid Harmonics ordering:            Gaussian

*** tstart() called on Joses-MacBook-Pro-2.local
*** at Thu Jul 17 09:17:04 2025

   => Loading Basis Set <=

    Name: CC-PVDZ
    Role: ORBITAL
    Keyword: BASIS
    atoms 1-2 entry HE         line    32 file /Users/joseantoniorodriguesromero/anaconda3/share/psi4/basis/cc-pvdz.gbs 


         ---------------------------------------------------------
                                   SCF
               by Justin Turney, Rob Parrish, Andy Simmonett
                          and Daniel G. A. Smith
                              UKS Reference
                        1 Threads,    500 MiB Core
         ---------------------------------------------------------

  ==> Geometry <==

    Molecular point group: d2h
    Full point group: D_inf_h

    Geometry (in Angstrom), charge = -1, multiplicity = 4:

       Center              X                  Y                   Z               Mass       
    ------------   -----------------  -----------------  -----------------  -----------------
         HE          -0.000000000000     0.368296506477     0.000000000000     4.002603254130
         HE           0.000000000000    -0.368296506477     0.000000000000     4.002603254130

  Running in d2h symmetry.

  Rotational constants: A = ************  B =     15.52490  C =     15.52490 [cm^-1]
  Rotational constants: A = ************  B = 465424.73582  C = 465424.73582 [MHz]
  Nuclear repulsion =    2.873647734166900

  Charge       = -1
  Multiplicity = 4
  Electrons    = 5
  Nalpha       = 4
  Nbeta        = 1

  ==> Algorithm <==

  SCF Algorithm Type is DF.
  DIIS enabled.
  MOM disabled.
  Fractional occupation disabled.
  Guess Type is READ.
  Energy threshold   = 1.00e-08
  Density threshold  = 1.00e-08
  Integral threshold = 1.00e-12

  ==> Primary Basis <==

  Basis Set: CC-PVDZ
    Blend: CC-PVDZ
    Number of shells: 6
    Number of basis functions: 10
    Number of Cartesian functions: 10
    Spherical Harmonics?: true
    Max angular momentum: 1

  ==> DFT Potential <==

   => LibXC <=

    Version 6.2.2
    S. Lehtola, C. Steigemann, M. J.T. Oliveira, and M. A.L. Marques.,  SoftwareX 7, 1–5 (2018) (10.1016/j.softx.2017.11.002)

   => Composite Functional: B3LYP <= 

    B3LYP Hyb-GGA Exchange-Correlation Functional

    P. J. Stephens, F. J. Devlin, C. F. Chabalowski, and M. J. Frisch.,  J. Phys. Chem. 98, 11623 (1994) (10.1021/j100096a001)

    Deriv               =              1
    GGA                 =           TRUE
    Meta                =          FALSE

    Exchange Hybrid     =           TRUE
    MP2 Hybrid          =          FALSE

   => Exchange Functionals <=

    0.0800   Slater exchange
    0.7200         Becke 88

   => Exact (HF) Exchange <=

    0.2000               HF 

   => Correlation Functionals <=

    0.1900   Vosko, Wilk & Nusair (VWN5_RPA)
    0.8100   Lee, Yang & Parr

   => LibXC Density Thresholds  <==

    XC_HYB_GGA_XC_B3LYP:  1.00E-15 

   => Molecular Quadrature <=

    Radial Scheme          =       TREUTLER
    Pruning Scheme         =           NONE
    Nuclear Scheme         =       TREUTLER

    Blocking Scheme        =         OCTREE
    BS radius alpha        =              1
    Pruning alpha          =              1
    Radial Points          =             75
    Spherical Points       =            302
    Total Points           =          44038
    Total Blocks           =            382
    Max Points             =            255
    Max Functions          =             10
    Weights Tolerance      =       1.00E-15

   => Loading Basis Set <=

    Name: (CC-PVDZ AUX)
    Role: JKFIT
    Keyword: DF_BASIS_SCF
    atoms 1-2 entry HE         line    34 file /Users/joseantoniorodriguesromero/anaconda3/share/psi4/basis/def2-universal-jkfit.gbs 

   => Loading Basis Set <=

    Name: CC-PVDZ
    Role: ORBITAL
    Keyword: BASIS
    atoms 1-2 entry HE         line    32 file /Users/joseantoniorodriguesromero/anaconda3/share/psi4/basis/cc-pvdz.gbs 

  Reading orbitals from file /tmp/quartet_HeHe.default.71812.180.npy, no projection.

  ==> Integral Setup <==

  DFHelper Memory: AOs need 0.000 GiB; user supplied 0.353 GiB. 
  Using in-core AOs.

  ==> MemDFJK: Density-Fitted J/K Matrices <==

    J tasked:                   Yes
    K tasked:                   Yes
    wK tasked:                   No
    OpenMP threads:               1
    Memory [MiB]:               361
    Algorithm:                 Core
    Schwarz Cutoff:           1E-12
    Mask sparsity (%):       0.0000
    Fitting Condition:        1E-10

   => Auxiliary Basis Set <=

  Basis Set: (CC-PVDZ AUX)
    Blend: DEF2-UNIVERSAL-JKFIT
    Number of shells: 18
    Number of basis functions: 46
    Number of Cartesian functions: 50
    Spherical Harmonics?: true
    Max angular momentum: 2

  Cached 100.0% of DFT collocation blocks in 0.013 [GiB].

  Minimum eigenvalue in the overlap matrix is 2.7895044461E-01.
  Reciprocal condition number of the overlap matrix is 1.3094944385E-01.
    Using symmetric orthogonalization.

  ==> Pre-Iterations <==

  SCF Guess: Orbitals guess was supplied from a previous computation.

   -------------------------------------------------------
    Irrep   Nso     Nmo     Nalpha   Nbeta   Ndocc  Nsocc
   -------------------------------------------------------
     Ag         3       3       2       1       1       1
     B1g        1       1       0       0       0       0
     B2g        0       0       0       0       0       0
     B3g        1       1       0       0       0       0
     Au         0       0       0       0       0       0
     B1u        1       1       0       0       0       0
     B2u        3       3       2       0       0       2
     B3u        1       1       0       0       0       0
   -------------------------------------------------------
    Total      10      10       4       1       1       3
   -------------------------------------------------------

  ==> Iterations <==

                           Total Energy        Delta E     RMS |[F,P]|

   @DF-UKS iter   0:    -3.01829284703331   -3.01829e+00   1.07811e-01 
   @DF-UKS iter   1:    -3.18792860761337   -1.69636e-01   1.47470e-02 ADIIS/DIIS
   @DF-UKS iter   2:    -3.19018662464697   -2.25802e-03   1.54114e-03 ADIIS/DIIS/DAMP=1%
   @DF-UKS iter   3:    -3.19019104350955   -4.41886e-06   1.55866e-04 ADIIS/DIIS/DAMP=1%
   @DF-UKS iter   4:    -3.19020328390414   -1.22404e-05   5.65091e-06 DIIS/DAMP=1%
   @DF-UKS iter   5:    -3.19020240386183    8.80042e-07   2.54954e-07 DIIS/DAMP=1%
   @DF-UKS iter   6:    -3.19020243145856   -2.75967e-08   5.12419e-09 DIIS/DAMP=1%
   @DF-UKS iter   7:    -3.19020243016458    1.29398e-09   4.79885e-10 DIIS/DAMP=1%
  Energy and wave function converged.


  ==> Post-Iterations <==

   Electrons on quadrature grid:
      Nalpha   =    3.9999999870 ; deviation = -1.300e-08
      Nbeta    =    0.9999999980 ; deviation = -1.955e-09
      Ntotal   =    4.9999999850 ; deviation = -1.496e-08 

   @Spin Contamination Metric:   9.316945099E-04
   @S^2 Expected:                3.750000000E+00
   @S^2 Observed:                3.750931695E+00
   @S   Expected:                1.500000000E+00
   @S   Observed:                1.500000000E+00

    Orbital Energies [Eh]
    ---------------------

    Alpha Occupied:                                                       

       1Ag    -0.631243     1B2u    0.088782     2Ag     1.184954  
       2B2u    1.327326  

    Alpha Virtual:                                                        

       1B1u    2.193324     1B3u    2.193324     3Ag     2.893601  
[...]

    			-----------------------------------------

    			 OPTKING 3.0: for geometry optimizations 

    			     By R.A. King, Bethel University     

    			        with contributions from          

    			    A.V. Copan, J. Cayton, A. Heide      

    			-----------------------------------------

    
	                            ===> Fragment 1 <== 

	 Z (Atomic Numbers)          Masses                          Geom                  
	       2.000000             4.002603         -0.00000000  0.70487778  0.00000000   
	       2.000000             4.002603          0.00000000 -0.70487778  0.00000000   

	 - Coordinate -           - BOHR/RAD -       - ANG/DEG -
	 R(1,2)           =         1.409756           0.746011


	        --- Internal Coordinate Step in ANG or DEG, aJ/ANG or AJ/DEG ---
	-------------------------------------------------------------------------------
	           Coordinate      Previous         Force          Change          New 
	           ----------      --------        ------          ------        ------
	               R(1,2)       0.74601       -0.00760       -0.00045       0.74556
	-------------------------------------------------------------------------------

	                                 ==> Convergence Check <==                                  
    
	Measures of convergence in internal coordinates in au.
    
	Criteria marked as inactive (o), active & met (*), and active & unmet ( ).

	----------------------------------------------------------------------------------------------
	   Step    Total Energy     Delta E     Max Force     RMS Force      Max Disp      RMS Disp   
	----------------------------------------------------------------------------------------------
	  Convergence Criteria     1.00e-06 *    3.00e-04 *             o    1.20e-03 *             o
	----------------------------------------------------------------------------------------------
	     6      -3.19037110   -1.69e-04      9.22e-04      9.22e-04 o    8.45e-04 *    8.45e-04 o  ~
	----------------------------------------------------------------------------------------------

Next Geometry in Ang 
	Fragment 1 (Ang)

	   He  -0.0000000000   0.3727817538   0.0000000000
	   He   0.0000000000  -0.3727817538   0.0000000000


    Structure for next step:
    Molecular point group: d2h
    Full point group: D_inf_h

    Geometry (in Angstrom), charge = -1, multiplicity = 4:

    HE          -0.000000000000     0.372781753763     0.000000000000
    HE           0.000000000000    -0.372781753763     0.000000000000


Scratch directory: /tmp/
gradient() will perform analytic gradient computation.
   => Libint2 <=

    Primary   basis highest AM E, G, H:  6, 6, 3
    Auxiliary basis highest AM E, G, H:  7, 7, 4
    Onebody   basis highest AM E, G, H:  -, -, -
    Solid Harmonics ordering:            Gaussian

*** tstart() called on Joses-MacBook-Pro-2.local
*** at Thu Jul 17 09:17:05 2025

   => Loading Basis Set <=

    Name: CC-PVDZ
    Role: ORBITAL
    Keyword: BASIS
    atoms 1-2 entry HE         line    32 file /Users/joseantoniorodriguesromero/anaconda3/share/psi4/basis/cc-pvdz.gbs 


         ---------------------------------------------------------
                                   SCF
               by Justin Turney, Rob Parrish, Andy Simmonett
                          and Daniel G. A. Smith
                              UKS Reference
                        1 Threads,    500 MiB Core
         ---------------------------------------------------------

  ==> Geometry <==

    Molecular point group: d2h
    Full point group: D_inf_h

    Geometry (in Angstrom), charge = -1, multiplicity = 4:

       Center              X                  Y                   Z               Mass       
    ------------   -----------------  -----------------  -----------------  -----------------
         HE          -0.000000000000     0.372781753763     0.000000000000     4.002603254130
         HE           0.000000000000    -0.372781753763     0.000000000000     4.002603254130

  Running in d2h symmetry.

  Rotational constants: A = ************  B =     15.15356  C =     15.15356 [cm^-1]
  Rotational constants: A = ************  B = 454292.28893  C = 454292.28893 [MHz]
  Nuclear repulsion =    2.839072488543155

  Charge       = -1
  Multiplicity = 4
  Electrons    = 5
  Nalpha       = 4
  Nbeta        = 1

  ==> Algorithm <==

  SCF Algorithm Type is DF.
  DIIS enabled.
  MOM disabled.
  Fractional occupation disabled.
  Guess Type is READ.
  Energy threshold   = 1.00e-08
  Density threshold  = 1.00e-08
  Integral threshold = 1.00e-12

  ==> Primary Basis <==

  Basis Set: CC-PVDZ
    Blend: CC-PVDZ
    Number of shells: 6
    Number of basis functions: 10
    Number of Cartesian functions: 10
    Spherical Harmonics?: true
    Max angular momentum: 1

  ==> DFT Potential <==

   => LibXC <=

    Version 6.2.2
    S. Lehtola, C. Steigemann, M. J.T. Oliveira, and M. A.L. Marques.,  SoftwareX 7, 1–5 (2018) (10.1016/j.softx.2017.11.002)

   => Composite Functional: B3LYP <= 

    B3LYP Hyb-GGA Exchange-Correlation Functional

    P. J. Stephens, F. J. Devlin, C. F. Chabalowski, and M. J. Frisch.,  J. Phys. Chem. 98, 11623 (1994) (10.1021/j100096a001)

    Deriv               =              1
    GGA                 =           TRUE
    Meta                =          FALSE

    Exchange Hybrid     =           TRUE
    MP2 Hybrid          =          FALSE

   => Exchange Functionals <=

    0.0800   Slater exchange
    0.7200         Becke 88

   => Exact (HF) Exchange <=

    0.2000               HF 

   => Correlation Functionals <=

    0.1900   Vosko, Wilk & Nusair (VWN5_RPA)
    0.8100   Lee, Yang & Parr

   => LibXC Density Thresholds  <==

    XC_HYB_GGA_XC_B3LYP:  1.00E-15 

   => Molecular Quadrature <=

    Radial Scheme          =       TREUTLER
    Pruning Scheme         =           NONE
    Nuclear Scheme         =       TREUTLER

    Blocking Scheme        =         OCTREE
    BS radius alpha        =              1
    Pruning alpha          =              1
    Radial Points          =             75
    Spherical Points       =            302
    Total Points           =          44038
    Total Blocks           =            382
    Max Points             =            255
    Max Functions          =             10
    Weights Tolerance      =       1.00E-15

   => Loading Basis Set <=

    Name: (CC-PVDZ AUX)
    Role: JKFIT
    Keyword: DF_BASIS_SCF
    atoms 1-2 entry HE         line    34 file /Users/joseantoniorodriguesromero/anaconda3/share/psi4/basis/def2-universal-jkfit.gbs 

   => Loading Basis Set <=

    Name: CC-PVDZ
    Role: ORBITAL
    Keyword: BASIS
    atoms 1-2 entry HE         line    32 file /Users/joseantoniorodriguesromero/anaconda3/share/psi4/basis/cc-pvdz.gbs 

  Reading orbitals from file /tmp/quartet_HeHe.default.71812.180.npy, no projection.

  ==> Integral Setup <==

  DFHelper Memory: AOs need 0.000 GiB; user supplied 0.353 GiB. 
  Using in-core AOs.

  ==> MemDFJK: Density-Fitted J/K Matrices <==

    J tasked:                   Yes
    K tasked:                   Yes
    wK tasked:                   No
    OpenMP threads:               1
    Memory [MiB]:               361
    Algorithm:                 Core
    Schwarz Cutoff:           1E-12
    Mask sparsity (%):       0.0000
    Fitting Condition:        1E-10

   => Auxiliary Basis Set <=

  Basis Set: (CC-PVDZ AUX)
    Blend: DEF2-UNIVERSAL-JKFIT
    Number of shells: 18
    Number of basis functions: 46
    Number of Cartesian functions: 50
    Spherical Harmonics?: true
    Max angular momentum: 2

  Cached 100.0% of DFT collocation blocks in 0.013 [GiB].

  Minimum eigenvalue in the overlap matrix is 2.8041009742E-01.
  Reciprocal condition number of the overlap matrix is 1.3628789047E-01.
    Using symmetric orthogonalization.

  ==> Pre-Iterations <==

  SCF Guess: Orbitals guess was supplied from a previous computation.

   -------------------------------------------------------
    Irrep   Nso     Nmo     Nalpha   Nbeta   Ndocc  Nsocc
   -------------------------------------------------------
     Ag         3       3       2       1       1       1
     B1g        1       1       0       0       0       0
     B2g        0       0       0       0       0       0
     B3g        1       1       0       0       0       0
     Au         0       0       0       0       0       0
     B1u        1       1       0       0       0       0
     B2u        3       3       2       0       0       2
     B3u        1       1       0       0       0       0
   -------------------------------------------------------
    Total      10      10       4       1       1       3
   -------------------------------------------------------

  ==> Iterations <==

                           Total Energy        Delta E     RMS |[F,P]|

   @DF-UKS iter   0:    -3.19075511726758   -3.19076e+00   2.74824e-04 
   @DF-UKS iter   1:    -3.19037144902422    3.83668e-04   4.31300e-05 DIIS
   @DF-UKS iter   2:    -3.19037146827641   -1.92522e-08   4.48005e-06 DIIS/DAMP=1%
   @DF-UKS iter   3:    -3.19037149961913   -3.13427e-08   4.52102e-07 DIIS/DAMP=1%
   @DF-UKS iter   4:    -3.19037146577245    3.38467e-08   1.58560e-08 DIIS/DAMP=1%
   @DF-UKS iter   5:    -3.19037146848628   -2.71383e-09   7.83864e-10 DIIS/DAMP=1%
  Energy and wave function converged.


  ==> Post-Iterations <==

   Electrons on quadrature grid:
      Nalpha   =    3.9999999912 ; deviation = -8.835e-09
      Nbeta    =    0.9999999990 ; deviation = -1.002e-09
      Ntotal   =    4.9999999902 ; deviation = -9.837e-09 

   @Spin Contamination Metric:   9.430926149E-04
   @S^2 Expected:                3.750000000E+00
   @S^2 Observed:                3.750943093E+00
   @S   Expected:                1.500000000E+00
   @S   Observed:                1.500000000E+00

    Orbital Energies [Eh]
    ---------------------

    Alpha Occupied:                                                       

       1Ag    -0.623062     1B2u    0.081422     2Ag     1.191770  
       2B2u    1.326804  

    Alpha Virtual:                                                        

       1B3u    2.197865     1B1u    2.197865     3Ag     2.871204  
       1B3g    3.173016     1B1g    3.173016     3B2u    4.468202  

    Beta Occupied:                                                        

       1Ag    -0.397006  

    Beta Virtual:                                                         

       1B2u    0.402335     2Ag     1.482764     2B2u    1.688148  
       1B3u    2.271439     1B1u    2.271439     3Ag     3.010925  
       1B3g    3.282392     1B1g    3.282392     3B2u    4.629274  

    Final Occupation by Irrep:
             Ag   B1g   B2g   B3g    Au   B1u   B2u   B3u 
    DOCC [     1,    0,    0,    0,    0,    0,    0,    0 ]
    SOCC [     1,    0,    0,    0,    0,    0,    2,    0 ]
    NA   [     2,    0,    0,    0,    0,    0,    2,    0 ]
    NB   [     1,    0,    0,    0,    0,    0,    0,    0 ]

  @DF-UKS Final Energy:    -3.19037146848628

   => Energetics <=

    Nuclear Repulsion Energy =              2.8390724885431551
    One-Electron Energy =                 -11.9792045295959273
    Two-Electron Energy =                   8.2510738617662511
    DFT Exchange-Correlation Energy =      -2.3013132891997614
    Empirical Dispersion Energy =           0.0000000000000000
    VV10 Nonlocal Energy =                  0.0000000000000000
    Total Energy =                         -3.1903714684862834

  UHF NO Occupations:
  HONO-2 :    1B2u 1.0000000
  HONO-1 :    2 Ag 1.0000000
  HONO-0 :    2B2u 1.0000000
  LUNO+0 :    3 Ag 0.0004717
  LUNO+1 :    1B3u 0.0000000
  LUNO+2 :    1B1u 0.0000000
  LUNO+3 :    1B3g 0.0000000


Computation Completed


Properties will be evaluated at   0.000000,   0.000000,   0.000000 [a0]

Properties computed using the SCF density matrix


 Multipole Moments:

 ------------------------------------------------------------------------------------
     Multipole            Electronic (a.u.)      Nuclear  (a.u.)        Total (a.u.)
 ------------------------------------------------------------------------------------

 L = 1.  Multiply by 2.5417464519 to convert [e a0] to [Debye]
 Dipole X            :          0.0000000            0.0000000            0.0000000
 Dipole Y            :          0.0000000            0.0000000            0.0000000
 Dipole Z            :          0.0000000            0.0000000            0.0000000
 Magnitude           :                                                    0.0000000

 ------------------------------------------------------------------------------------

*** tstop() called on Joses-MacBook-Pro-2.local at Thu Jul 17 09:17:05 2025
Module time:
	user time   =       0.46 seconds =       0.01 minutes
	system time =       2.18 seconds =       0.04 minutes
	total time  =          0 seconds =       0.00 minutes
Total time:
	user time   =       5.59 seconds =       0.09 minutes
	system time =      19.44 seconds =       0.32 minutes
	total time  =          2 seconds =       0.03 minutes

*** tstart() called on Joses-MacBook-Pro-2.local
*** at Thu Jul 17 09:17:05 2025


         ------------------------------------------------------------
                                   SCF GRAD                          
                          Rob Parrish, Justin Turney,                
                       Andy Simmonett, and Alex Sokolov              
         ------------------------------------------------------------

  ==> Geometry <==

    Molecular point group: d2h
    Full point group: D_inf_h

    Geometry (in Angstrom), charge = -1, multiplicity = 4:

       Center              X                  Y                   Z               Mass       
    ------------   -----------------  -----------------  -----------------  -----------------
         HE          -0.000000000000     0.372781753763     0.000000000000     4.002603254130
         HE           0.000000000000    -0.372781753763     0.000000000000     4.002603254130

  Nuclear repulsion =    2.839072488543155

  ==> Basis Set <==

  Basis Set: CC-PVDZ
    Blend: CC-PVDZ
    Number of shells: 6
    Number of basis functions: 10
    Number of Cartesian functions: 10
    Spherical Harmonics?: true
    Max angular momentum: 1

  ==> DFJKGrad: Density-Fitted SCF Gradients <==

    Gradient:                    1
    J tasked:                  Yes
    K tasked:                  Yes
    wK tasked:                  No
    OpenMP threads:              1
    Integrals threads:           1
    Memory [MiB]:              375
    Schwarz Cutoff:          1E-12
    Fitting Condition:       1E-10

   => Auxiliary Basis Set <=

  Basis Set: (CC-PVDZ AUX)
    Blend: DEF2-UNIVERSAL-JKFIT
    Number of shells: 18
    Number of basis functions: 46
    Number of Cartesian functions: 50
    Spherical Harmonics?: true
    Max angular momentum: 2

  ==> DFT Potential <==

   => LibXC <=

    Version 6.2.2
    S. Lehtola, C. Steigemann, M. J.T. Oliveira, and M. A.L. Marques.,  SoftwareX 7, 1–5 (2018) (10.1016/j.softx.2017.11.002)

   => Composite Functional: B3LYP <= 

    B3LYP Hyb-GGA Exchange-Correlation Functional

    P. J. Stephens, F. J. Devlin, C. F. Chabalowski, and M. J. Frisch.,  J. Phys. Chem. 98, 11623 (1994) (10.1021/j100096a001)

    Deriv               =              1
    GGA                 =           TRUE
    Meta                =          FALSE

    Exchange Hybrid     =           TRUE
    MP2 Hybrid          =          FALSE

   => Exchange Functionals <=

    0.0800   Slater exchange
    0.7200         Becke 88

   => Exact (HF) Exchange <=

    0.2000               HF 

   => Correlation Functionals <=

    0.1900   Vosko, Wilk & Nusair (VWN5_RPA)
    0.8100   Lee, Yang & Parr

   => LibXC Density Thresholds  <==

    XC_HYB_GGA_XC_B3LYP:  1.00E-15 

   => Molecular Quadrature <=

    Radial Scheme          =       TREUTLER
    Pruning Scheme         =           NONE
    Nuclear Scheme         =       TREUTLER

    Blocking Scheme        =         OCTREE
    BS radius alpha        =              1
    Pruning alpha          =              1
    Radial Points          =             75
    Spherical Points       =            302
    Total Points           =          44038
    Total Blocks           =            382
    Max Points             =            255
    Max Functions          =             10
    Weights Tolerance      =       1.00E-15


  -Total Gradient:
     Atom            X                  Y                   Z
    ------   -----------------  -----------------  -----------------
       1        0.000000000000    -0.000041159888     0.000000000000
       2       -0.000000000000     0.000041159888     0.000000000000


*** tstop() called on Joses-MacBook-Pro-2.local at Thu Jul 17 09:17:06 2025
Module time:
	user time   =       0.12 seconds =       0.00 minutes
	system time =       0.45 seconds =       0.01 minutes
	total time  =          1 seconds =       0.02 minutes
Total time:
	user time   =       5.71 seconds =       0.10 minutes
	system time =      19.89 seconds =       0.33 minutes
	total time  =          3 seconds =       0.05 minutes

    			-----------------------------------------

    			 OPTKING 3.0: for geometry optimizations 

    			     By R.A. King, Bethel University     

    			        with contributions from          

    			    A.V. Copan, J. Cayton, A. Heide      

    			-----------------------------------------

    
	                            ===> Fragment 1 <== 

	 Z (Atomic Numbers)          Masses                          Geom                  
	       2.000000             4.002603         -0.00000000  0.70445542  0.00000000   
	       2.000000             4.002603          0.00000000 -0.70445542  0.00000000   

	 - Coordinate -           - BOHR/RAD -       - ANG/DEG -
	 R(1,2)           =         1.408911           0.745564


	        --- Internal Coordinate Step in ANG or DEG, aJ/ANG or AJ/DEG ---
	-------------------------------------------------------------------------------
	           Coordinate      Previous         Force          Change          New 
	           ----------      --------        ------          ------        ------
	               R(1,2)       0.74556        0.00034        0.00002       0.74558
	-------------------------------------------------------------------------------

	                                 ==> Convergence Check <==                                  
    
	Measures of convergence in internal coordinates in au.
    
	Criteria marked as inactive (o), active & met (*), and active & unmet ( ).

	----------------------------------------------------------------------------------------------
	   Step    Total Energy     Delta E     Max Force     RMS Force      Max Disp      RMS Disp   
	----------------------------------------------------------------------------------------------
	  Convergence Criteria     1.00e-06 *    3.00e-04 *             o    1.20e-03 *             o
	----------------------------------------------------------------------------------------------
	     7      -3.19037147   -3.72e-07 *    4.12e-05 *    4.12e-05 o    3.77e-05 *    3.77e-05 o  ~
	----------------------------------------------------------------------------------------------

Next Geometry in Ang 
	Fragment 1 (Ang)

	   He  -0.0000000000   0.3727917165   0.0000000000
	   He   0.0000000000  -0.3727917165   0.0000000000


    Final optimized geometry and variables:
    Molecular point group: d2h
    Full point group: D_inf_h

    Geometry (in Angstrom), charge = -1, multiplicity = 4:

    HE          -0.000000000000     0.372781753763     0.000000000000
    HE           0.000000000000    -0.372781753763     0.000000000000


    Psi4 stopped on: Thursday, 17 July 2025 09:17AM
    Psi4 wall time for execution: 0:00:03.61

*** Psi4 exiting successfully. Buy a developer a beer!
