
    -----------------------------------------------------------------------
          Psi4: An Open-Source Ab Initio Electronic Structure Package
                               Psi4 1.9.1 release

                         Git: Rev {} zzzzzzz 


    D. G. A. Smith, L. A. Burns, A. C. Simmonett, R. M. Parrish,
    M. C. Schieber, R. Galvelis, P. Kraus, H. Kruse, R. Di Remigio,
    A. Alenaizan, A. M. James, S. Lehtola, J. P. Misiewicz, M. Scheurer,
    R. A. Shaw, J. B. Schriber, Y. Xie, Z. L. Glick, D. A. Sirianni,
    J. S. O'Brien, J. M. Waldrop, A. Kumar, E. G. Hohenstein,
    B. P. Pritchard, B. R. Brooks, H. F. Schaefer III, A. Yu. Sokolov,
    K. Patkowski, A. E. DePrince III, U. Bozkaya, R. A. King,
    F. A. Evangelista, J. M. Turney, T. D. Crawford, C. D. Sherrill,
    J. Chem. Phys. 152(18) 184108 (2020). https://doi.org/10.1063/5.0006002

                            Additional Code Authors
    E. T. Seidl, C. L. Janssen, E. F. Valeev, M. L. Leininger,
    J. F. Gonthier, R. M. Richard, H. R. McAlexander, M. Saitow, X. Wang,
    P. Verma, M. H. Lechner, A. Jiang, S. Behnle, A. G. Heide,
    M. F. Herbst, and D. L. Poole

             Previous Authors, Complete List of Code Contributors,
                       and Citations for Specific Modules
    https://github.com/psi4/psi4/blob/master/codemeta.json
    https://github.com/psi4/psi4/graphs/contributors
    http://psicode.org/psi4manual/master/introduction.html#citing-psifour

    -----------------------------------------------------------------------


    Psi4 started on: Thursday, 17 July 2025 10:39AM

    Process ID: 72706
    Host:       Joses-MacBook-Pro-2.local
    PSIDATADIR: /Users/joseantoniorodriguesromero/anaconda3/share/psi4
    Memory:     500.0 MiB
    Threads:    1
    
  ==> Input File <==

--------------------------------------------------------------------------
molecule { 
-1 4
O   0.00000        0.60000        0.00000
Ne   0.00000       -0.60000        0.00000
}

set { 
basis              cc-pvdz
reference          uks
maxiter            500
geom_maxiter       500
DAMPING_PERCENTAGE 1
guess              SAP
}

optimize('b3lyp')
--------------------------------------------------------------------------

Scratch directory: /tmp/
gradient() will perform analytic gradient computation.
   => Libint2 <=

    Primary   basis highest AM E, G, H:  6, 6, 3
    Auxiliary basis highest AM E, G, H:  7, 7, 4
    Onebody   basis highest AM E, G, H:  -, -, -
    Solid Harmonics ordering:            Gaussian

*** tstart() called on Joses-MacBook-Pro-2.local
*** at Thu Jul 17 10:39:25 2025

   => Loading Basis Set <=

    Name: CC-PVDZ
    Role: ORBITAL
    Keyword: BASIS
    atoms 1 entry O          line   198 file /Users/joseantoniorodriguesromero/anaconda3/share/psi4/basis/cc-pvdz.gbs 
    atoms 2 entry NE         line   258 file /Users/joseantoniorodriguesromero/anaconda3/share/psi4/basis/cc-pvdz.gbs 


         ---------------------------------------------------------
                                   SCF
               by Justin Turney, Rob Parrish, Andy Simmonett
                          and Daniel G. A. Smith
                              UKS Reference
                        1 Threads,    500 MiB Core
         ---------------------------------------------------------

  ==> Geometry <==

    Molecular point group: c2v
    Full point group: C_inf_v

    Geometry (in Angstrom), charge = -1, multiplicity = 4:

       Center              X                  Y                   Z               Mass       
    ------------   -----------------  -----------------  -----------------  -----------------
         O            0.000000000000     0.000000000000     0.666648836726    15.994914619570
         NE           0.000000000000     0.000000000000    -0.533351163274    19.992440176200

  Running in c2v symmetry.

  Rotational constants: A = ************  B =      1.31746  C =      1.31746 [cm^-1]
  Rotational constants: A = ************  B =  39496.34443  C =  39496.34443 [MHz]
  Nuclear repulsion =   35.278480711333337

  Charge       = -1
  Multiplicity = 4
  Electrons    = 19
  Nalpha       = 11
  Nbeta        = 8

  ==> Algorithm <==

  SCF Algorithm Type is DF.
  DIIS enabled.
  MOM disabled.
  Fractional occupation disabled.
  Guess Type is SAP.
  Energy threshold   = 1.00e-08
  Density threshold  = 1.00e-08
  Integral threshold = 1.00e-12

  ==> Primary Basis <==

  Basis Set: CC-PVDZ
    Blend: CC-PVDZ
    Number of shells: 12
    Number of basis functions: 28
    Number of Cartesian functions: 30
    Spherical Harmonics?: true
    Max angular momentum: 2

  ==> DFT Potential <==

   => LibXC <=

    Version 6.2.2
    S. Lehtola, C. Steigemann, M. J.T. Oliveira, and M. A.L. Marques.,  SoftwareX 7, 1–5 (2018) (10.1016/j.softx.2017.11.002)

   => Composite Functional: B3LYP <= 

    B3LYP Hyb-GGA Exchange-Correlation Functional

    P. J. Stephens, F. J. Devlin, C. F. Chabalowski, and M. J. Frisch.,  J. Phys. Chem. 98, 11623 (1994) (10.1021/j100096a001)

    Deriv               =              1
    GGA                 =           TRUE
    Meta                =          FALSE

    Exchange Hybrid     =           TRUE
    MP2 Hybrid          =          FALSE

   => Exchange Functionals <=

    0.0800   Slater exchange
    0.7200         Becke 88

   => Exact (HF) Exchange <=

    0.2000               HF 

   => Correlation Functionals <=

    0.1900   Vosko, Wilk & Nusair (VWN5_RPA)
    0.8100   Lee, Yang & Parr

   => LibXC Density Thresholds  <==

    XC_HYB_GGA_XC_B3LYP:  1.00E-15 

   => Molecular Quadrature <=

    Radial Scheme          =       TREUTLER
    Pruning Scheme         =           NONE
    Nuclear Scheme         =       TREUTLER

    Blocking Scheme        =         OCTREE
    BS radius alpha        =              1
    Pruning alpha          =              1
    Radial Points          =             75
    Spherical Points       =            302
    Total Points           =          42225
    Total Blocks           =            367
    Max Points             =            255
    Max Functions          =             28
    Weights Tolerance      =       1.00E-15

   => Loading Basis Set <=

    Name: (CC-PVDZ AUX)
    Role: JKFIT
    Keyword: DF_BASIS_SCF
    atoms 1 entry O          line   221 file /Users/joseantoniorodriguesromero/anaconda3/share/psi4/basis/cc-pvdz-jkfit.gbs 
    atoms 2 entry NE         line   321 file /Users/joseantoniorodriguesromero/anaconda3/share/psi4/basis/cc-pvdz-jkfit.gbs 

  ==> Integral Setup <==

  DFHelper Memory: AOs need 0.001 GiB; user supplied 0.333 GiB. 
  Using in-core AOs.

  ==> MemDFJK: Density-Fitted J/K Matrices <==

    J tasked:                   Yes
    K tasked:                   Yes
    wK tasked:                   No
    OpenMP threads:               1
    Memory [MiB]:               340
    Algorithm:                 Core
    Schwarz Cutoff:           1E-12
    Mask sparsity (%):       0.0000
    Fitting Condition:        1E-10

   => Auxiliary Basis Set <=

  Basis Set: (CC-PVDZ AUX)
    Blend: CC-PVDZ-JKFIT
    Number of shells: 48
    Number of basis functions: 140
    Number of Cartesian functions: 162
    Spherical Harmonics?: true
    Max angular momentum: 3

  Cached 100.0% of DFT collocation blocks in 0.033 [GiB].

  Minimum eigenvalue in the overlap matrix is 4.0425988497E-02.
  Reciprocal condition number of the overlap matrix is 1.5181834797E-02.
    Using symmetric orthogonalization.

  ==> Pre-Iterations <==

  SCF Guess: Superposition of Atomic Potentials (doi:10.1021/acs.jctc.8b01089).

  ==> SAP guess <==

   => Molecular Quadrature <=

    Radial Scheme          =       TREUTLER
    Pruning Scheme         =           NONE
    Nuclear Scheme         =       TREUTLER

    Blocking Scheme        =         OCTREE
    BS radius alpha        =              1
    Pruning alpha          =              1
    Radial Points          =             75
    Spherical Points       =            302
    Total Points           =          42225
    Total Blocks           =            367
    Max Points             =            255
    Max Functions          =             28
    Weights Tolerance      =       1.00E-15

   -------------------------------------------------------
    Irrep   Nso     Nmo     Nalpha   Nbeta   Ndocc  Nsocc
   -------------------------------------------------------
     A1        14      14       7       5       5       2
     A2         2       2       0       0       0       0
     B1         6       6       2       1       1       1
     B2         6       6       2       2       2       0
   -------------------------------------------------------
    Total      28      28      11       8       8       3
   -------------------------------------------------------

  ==> Iterations <==

                           Total Energy        Delta E     RMS |[F,P]|

   @DF-UKS iter   1:  -202.36935605966974   -2.02369e+02   4.85527e-02 ADIIS/DIIS
   @DF-UKS iter   2:  -202.34329145287674    2.60646e-02   5.23022e-02 ADIIS/DIIS/DAMP=1%
   @DF-UKS iter   3:  -202.60246067475202   -2.59169e-01   7.66789e-03 ADIIS/DIIS/DAMP=1%
   @DF-UKS iter   4:  -202.60602108969371   -3.56041e-03   3.92696e-03 ADIIS/DIIS/DAMP=1%
   @DF-UKS iter   5:  -202.61386937521246   -7.84829e-03   2.46438e-04 ADIIS/DIIS/DAMP=1%
   @DF-UKS iter   6:  -202.61210649150894    1.76288e-03   7.15535e-05 DIIS/DAMP=1%
   @DF-UKS iter   7:  -202.61221302844183   -1.06537e-04   1.17673e-05 DIIS/DAMP=1%
   @DF-UKS iter   8:  -202.61220426950484    8.75894e-06   2.09667e-06 DIIS/DAMP=1%
   @DF-UKS iter   9:  -202.61219887338115    5.39612e-06   2.96321e-07 DIIS/DAMP=1%
   @DF-UKS iter  10:  -202.61219996368732   -1.09031e-06   3.98447e-08 DIIS/DAMP=1%
   @DF-UKS iter  11:  -202.61219984406236    1.19625e-07   7.14310e-09 DIIS/DAMP=1%
   @DF-UKS iter  12:  -202.61219985344019   -9.37783e-09   4.66719e-10 DIIS/DAMP=1%
  Energy and wave function converged.


  ==> Post-Iterations <==

   Electrons on quadrature grid:
      Nalpha   =   11.0000011718 ; deviation = 1.172e-06
      Nbeta    =    8.0000010793 ; deviation = 1.079e-06
      Ntotal   =   19.0000022511 ; deviation = 2.251e-06 

   @Spin Contamination Metric:   2.350905374E-03
   @S^2 Expected:                3.750000000E+00
   @S^2 Observed:                3.752350905E+00
   @S   Expected:                1.500000000E+00
   @S   Observed:                1.500000000E+00

    Orbital Energies [Eh]
    ---------------------

    Alpha Occupied:                                                       

       1A1   -30.691147     2A1   -18.620863     3A1    -1.295747  
       4A1    -0.624154     1B1    -0.352155     1B2    -0.337643  
       5A1    -0.245158     2B1     0.075764     2B2     0.140765  
       6A1     0.335600     7A1     1.085279  

    Alpha Virtual:                                                        

       3B1     1.253981     3B2     1.301647     8A1     1.504937  
       4B1     1.671754     4B2     1.683865     9A1     1.702749  
      10A1     2.812814     5B1     2.938930     1A2     2.966360  
      11A1     2.966682     5B2     2.988283    12A1     3.433207  
      13A1     4.951601     2A2     4.951622     6B1     5.152167  
       6B2     5.165149    14A1     5.748151  

    Beta Occupied:                                                        

       1A1   -30.668808     2A1   -18.555656     3A1    -1.245943  
       4A1    -0.518098     1B2    -0.315836     1B1    -0.310916  
       5A1    -0.126666     2B2     0.195204  

    Beta Virtual:                                                         

       2B1     0.330078     6A1     0.611400     7A1     1.315114  
       3B2     1.352128     3B1     1.386019     8A1     1.604379  
       4B1     1.703926     4B2     1.704318     9A1     1.778799  
      10A1     2.861021     1A2     3.055707     5B2     3.056847  
      11A1     3.065375     5B1     3.069590    12A1     3.522859  
       2A2     4.970112    13A1     4.970178     6B1     5.196495  
       6B2     5.197754    14A1     5.810656  

    Final Occupation by Irrep:
             A1    A2    B1    B2 
    DOCC [     5,    0,    1,    2 ]
    SOCC [     2,    0,    1,    0 ]
    NA   [     7,    0,    2,    2 ]
    NB   [     5,    0,    1,    2 ]

  @DF-UKS Final Energy:  -202.61219985344019

   => Energetics <=

    Nuclear Repulsion Energy =             35.2784807113333372
    One-Electron Energy =                -361.1658218290831428
    Two-Electron Energy =                 140.7849078475729527
    DFT Exchange-Correlation Energy =     -17.5097665832633069
    Empirical Dispersion Energy =           0.0000000000000000
    VV10 Nonlocal Energy =                  0.0000000000000000
    Total Energy =                       -202.6121998534401882

  UHF NO Occupations:
  HONO-2 :    6 A1 1.0000000
  HONO-1 :    2 B1 1.0000000
  HONO-0 :    7 A1 1.0000000
  LUNO+0 :    8 A1 0.0005536
  LUNO+1 :    3 B2 0.0002852
  LUNO+2 :    9 A1 0.0002028
  LUNO+3 :    3 B1 0.0001040


Computation Completed


Properties will be evaluated at   0.000000,   0.000000,   0.000000 [a0]

Properties computed using the SCF density matrix


 Multipole Moments:

 ------------------------------------------------------------------------------------
     Multipole            Electronic (a.u.)      Nuclear  (a.u.)        Total (a.u.)
 ------------------------------------------------------------------------------------

 L = 1.  Multiply by 2.5417464519 to convert [e a0] to [Debye]
 Dipole X            :          0.0000000            0.0000000            0.0000000
 Dipole Y            :          0.0000000            0.0000000            0.0000000
 Dipole Z            :         -2.0132426           -0.0006065           -2.0138491
 Magnitude           :                                                    2.0138491

 ------------------------------------------------------------------------------------

*** tstop() called on Joses-MacBook-Pro-2.local at Thu Jul 17 10:39:26 2025
Module time:
	user time   =       3.15 seconds =       0.05 minutes
	system time =       4.96 seconds =       0.08 minutes
	total time  =          1 seconds =       0.02 minutes
Total time:
	user time   =       3.15 seconds =       0.05 minutes
	system time =       4.96 seconds =       0.08 minutes
	total time  =          1 seconds =       0.02 minutes

*** tstart() called on Joses-MacBook-Pro-2.local
*** at Thu Jul 17 10:39:26 2025


         ------------------------------------------------------------
                                   SCF GRAD                          
                          Rob Parrish, Justin Turney,                
                       Andy Simmonett, and Alex Sokolov              
         ------------------------------------------------------------

  ==> Geometry <==

    Molecular point group: c2v
    Full point group: C_inf_v

    Geometry (in Angstrom), charge = -1, multiplicity = 4:

       Center              X                  Y                   Z               Mass       
    ------------   -----------------  -----------------  -----------------  -----------------
         O            0.000000000000     0.000000000000     0.666648836726    15.994914619570
         NE           0.000000000000     0.000000000000    -0.533351163274    19.992440176200

  Nuclear repulsion =   35.278480711333337

  ==> Basis Set <==

  Basis Set: CC-PVDZ
    Blend: CC-PVDZ
    Number of shells: 12
    Number of basis functions: 28
    Number of Cartesian functions: 30
    Spherical Harmonics?: true
    Max angular momentum: 2

  ==> DFJKGrad: Density-Fitted SCF Gradients <==

    Gradient:                    1
    J tasked:                  Yes
    K tasked:                  Yes
    wK tasked:                  No
    OpenMP threads:              1
    Integrals threads:           1
    Memory [MiB]:              375
    Schwarz Cutoff:          1E-12
    Fitting Condition:       1E-10

   => Auxiliary Basis Set <=

  Basis Set: (CC-PVDZ AUX)
    Blend: CC-PVDZ-JKFIT
    Number of shells: 48
    Number of basis functions: 140
    Number of Cartesian functions: 162
    Spherical Harmonics?: true
    Max angular momentum: 3

  ==> DFT Potential <==

   => LibXC <=

    Version 6.2.2
    S. Lehtola, C. Steigemann, M. J.T. Oliveira, and M. A.L. Marques.,  SoftwareX 7, 1–5 (2018) (10.1016/j.softx.2017.11.002)

   => Composite Functional: B3LYP <= 

    B3LYP Hyb-GGA Exchange-Correlation Functional

    P. J. Stephens, F. J. Devlin, C. F. Chabalowski, and M. J. Frisch.,  J. Phys. Chem. 98, 11623 (1994) (10.1021/j100096a001)

    Deriv               =              1
    GGA                 =           TRUE
    Meta                =          FALSE

    Exchange Hybrid     =           TRUE
    MP2 Hybrid          =          FALSE

   => Exchange Functionals <=

    0.0800   Slater exchange
    0.7200         Becke 88

   => Exact (HF) Exchange <=

    0.2000               HF 

   => Correlation Functionals <=

    0.1900   Vosko, Wilk & Nusair (VWN5_RPA)
    0.8100   Lee, Yang & Parr

   => LibXC Density Thresholds  <==

    XC_HYB_GGA_XC_B3LYP:  1.00E-15 

   => Molecular Quadrature <=

    Radial Scheme          =       TREUTLER
    Pruning Scheme         =           NONE
    Nuclear Scheme         =       TREUTLER

    Blocking Scheme        =         OCTREE
    BS radius alpha        =              1
    Pruning alpha          =              1
    Radial Points          =             75
    Spherical Points       =            302
    Total Points           =          42225
    Total Blocks           =            367
    Max Points             =            255
    Max Functions          =             28
    Weights Tolerance      =       1.00E-15


  -Total Gradient:
     Atom            X                  Y                   Z
    ------   -----------------  -----------------  -----------------
       1        0.000000000000     0.000000000000    -0.786268670116
       2        0.000000000000    -0.000000000000     0.786289860703


*** tstop() called on Joses-MacBook-Pro-2.local at Thu Jul 17 10:39:26 2025
Module time:
	user time   =       0.87 seconds =       0.01 minutes
	system time =       0.85 seconds =       0.01 minutes
	total time  =          0 seconds =       0.00 minutes
Total time:
	user time   =       4.03 seconds =       0.07 minutes
	system time =       5.81 seconds =       0.10 minutes
	total time  =          1 seconds =       0.02 minutes

    			-----------------------------------------

    			 OPTKING 3.0: for geometry optimizations 

    			     By R.A. King, Bethel University     

    			        with contributions from          

    			    A.V. Copan, J. Cayton, A. Heide      

    			-----------------------------------------

    
	                            ===> Fragment 1 <== 

	 Z (Atomic Numbers)          Masses                          Geom                  
	       8.000000            15.994915          0.00000000  0.00000000  1.25978372   
	      10.000000            19.992440          0.00000000  0.00000000 -1.00788763   

	 - Coordinate -           - BOHR/RAD -       - ANG/DEG -
	 R(1,2)           =         2.267671           1.200000


	        --- Internal Coordinate Step in ANG or DEG, aJ/ANG or AJ/DEG ---
	-------------------------------------------------------------------------------
	           Coordinate      Previous         Force          Change          New 
	           ----------      --------        ------          ------        ------
	               R(1,2)       1.20000        6.47794        0.26459       1.46459
	-------------------------------------------------------------------------------

	                                 ==> Convergence Check <==                                  
    
	Measures of convergence in internal coordinates in au.
    
	Criteria marked as inactive (o), active & met (*), and active & unmet ( ).

	----------------------------------------------------------------------------------------------
	   Step    Total Energy     Delta E     Max Force     RMS Force      Max Disp      RMS Disp   
	----------------------------------------------------------------------------------------------
	  Convergence Criteria     1.00e-06 *    3.00e-04 *             o    1.20e-03 *             o
	----------------------------------------------------------------------------------------------
	     1    -202.61219985   -2.03e+02      7.86e-01      7.86e-01 o    5.00e-01      5.00e-01 o  ~
	----------------------------------------------------------------------------------------------

Next Geometry in Ang 
	Fragment 1 (Ang)

	    O   0.0000000000   0.0000000000   0.7989431413
	   Ne   0.0000000000   0.0000000000  -0.6656454678


    Structure for next step:
    Molecular point group: c2v
    Full point group: C_inf_v

    Geometry (in Angstrom), charge = -1, multiplicity = 4:

    O            0.000000000000     0.000000000000     0.813638577104
    NE           0.000000000000     0.000000000000    -0.650950031975


Scratch directory: /tmp/
gradient() will perform analytic gradient computation.
   => Libint2 <=

    Primary   basis highest AM E, G, H:  6, 6, 3
    Auxiliary basis highest AM E, G, H:  7, 7, 4
    Onebody   basis highest AM E, G, H:  -, -, -
    Solid Harmonics ordering:            Gaussian

*** tstart() called on Joses-MacBook-Pro-2.local
*** at Thu Jul 17 10:39:26 2025

   => Loading Basis Set <=

    Name: CC-PVDZ
    Role: ORBITAL
    Keyword: BASIS
    atoms 1 entry O          line   198 file /Users/joseantoniorodriguesromero/anaconda3/share/psi4/basis/cc-pvdz.gbs 
    atoms 2 entry NE         line   258 file /Users/joseantoniorodriguesromero/anaconda3/share/psi4/basis/cc-pvdz.gbs 


         ---------------------------------------------------------
                                   SCF
               by Justin Turney, Rob Parrish, Andy Simmonett
                          and Daniel G. A. Smith
                              UKS Reference
                        1 Threads,    500 MiB Core
         ---------------------------------------------------------

  ==> Geometry <==

    Molecular point group: c2v
    Full point group: C_inf_v

    Geometry (in Angstrom), charge = -1, multiplicity = 4:

       Center              X                  Y                   Z               Mass       
    ------------   -----------------  -----------------  -----------------  -----------------
         O            0.000000000000     0.000000000000     0.813638577104    15.994914619570
         NE           0.000000000000     0.000000000000    -0.650950031975    19.992440176200

  Running in c2v symmetry.

  Rotational constants: A = ************  B =      0.88444  C =      0.88444 [cm^-1]
  Rotational constants: A = ************  B =  26514.78375  C =  26514.78375 [MHz]
  Nuclear repulsion =   28.905165990754433

  Charge       = -1
  Multiplicity = 4
  Electrons    = 19
  Nalpha       = 11
  Nbeta        = 8

  ==> Algorithm <==

  SCF Algorithm Type is DF.
  DIIS enabled.
  MOM disabled.
  Fractional occupation disabled.
  Guess Type is READ.
  Energy threshold   = 1.00e-08
  Density threshold  = 1.00e-08
  Integral threshold = 1.00e-12

  ==> Primary Basis <==

  Basis Set: CC-PVDZ
    Blend: CC-PVDZ
    Number of shells: 12
    Number of basis functions: 28
    Number of Cartesian functions: 30
    Spherical Harmonics?: true
    Max angular momentum: 2

  ==> DFT Potential <==

   => LibXC <=

    Version 6.2.2
    S. Lehtola, C. Steigemann, M. J.T. Oliveira, and M. A.L. Marques.,  SoftwareX 7, 1–5 (2018) (10.1016/j.softx.2017.11.002)

   => Composite Functional: B3LYP <= 

    B3LYP Hyb-GGA Exchange-Correlation Functional

    P. J. Stephens, F. J. Devlin, C. F. Chabalowski, and M. J. Frisch.,  J. Phys. Chem. 98, 11623 (1994) (10.1021/j100096a001)

    Deriv               =              1
    GGA                 =           TRUE
    Meta                =          FALSE

    Exchange Hybrid     =           TRUE
    MP2 Hybrid          =          FALSE

   => Exchange Functionals <=

    0.0800   Slater exchange
    0.7200         Becke 88

   => Exact (HF) Exchange <=

    0.2000               HF 

   => Correlation Functionals <=

    0.1900   Vosko, Wilk & Nusair (VWN5_RPA)
    0.8100   Lee, Yang & Parr

   => LibXC Density Thresholds  <==

    XC_HYB_GGA_XC_B3LYP:  1.00E-15 

   => Molecular Quadrature <=

    Radial Scheme          =       TREUTLER
    Pruning Scheme         =           NONE
    Nuclear Scheme         =       TREUTLER

    Blocking Scheme        =         OCTREE
    BS radius alpha        =              1
    Pruning alpha          =              1
    Radial Points          =             75
    Spherical Points       =            302
    Total Points           =          42275
    Total Blocks           =            371
    Max Points             =            253
    Max Functions          =             28
    Weights Tolerance      =       1.00E-15

   => Loading Basis Set <=

    Name: (CC-PVDZ AUX)
    Role: JKFIT
    Keyword: DF_BASIS_SCF
    atoms 1 entry O          line   221 file /Users/joseantoniorodriguesromero/anaconda3/share/psi4/basis/cc-pvdz-jkfit.gbs 
    atoms 2 entry NE         line   321 file /Users/joseantoniorodriguesromero/anaconda3/share/psi4/basis/cc-pvdz-jkfit.gbs 

   => Loading Basis Set <=

    Name: CC-PVDZ
    Role: ORBITAL
    Keyword: BASIS
    atoms 1 entry O          line   198 file /Users/joseantoniorodriguesromero/anaconda3/share/psi4/basis/cc-pvdz.gbs 
    atoms 2 entry NE         line   258 file /Users/joseantoniorodriguesromero/anaconda3/share/psi4/basis/cc-pvdz.gbs 

  Reading orbitals from file /tmp/quartet_ONe.default.72706.180.npy, no projection.

  ==> Integral Setup <==

  DFHelper Memory: AOs need 0.001 GiB; user supplied 0.333 GiB. 
  Using in-core AOs.

  ==> MemDFJK: Density-Fitted J/K Matrices <==

    J tasked:                   Yes
    K tasked:                   Yes
    wK tasked:                   No
    OpenMP threads:               1
    Memory [MiB]:               341
    Algorithm:                 Core
    Schwarz Cutoff:           1E-12
    Mask sparsity (%):       0.0000
    Fitting Condition:        1E-10

   => Auxiliary Basis Set <=

  Basis Set: (CC-PVDZ AUX)
    Blend: CC-PVDZ-JKFIT
    Number of shells: 48
    Number of basis functions: 140
    Number of Cartesian functions: 162
    Spherical Harmonics?: true
    Max angular momentum: 3

  Cached 100.0% of DFT collocation blocks in 0.033 [GiB].

  Minimum eigenvalue in the overlap matrix is 7.3113282265E-02.
  Reciprocal condition number of the overlap matrix is 3.0857340671E-02.
    Using symmetric orthogonalization.

  ==> Pre-Iterations <==

  SCF Guess: Orbitals guess was supplied from a previous computation.

   -------------------------------------------------------
    Irrep   Nso     Nmo     Nalpha   Nbeta   Ndocc  Nsocc
   -------------------------------------------------------
     A1        14      14       7       5       5       2
     A2         2       2       0       0       0       0
     B1         6       6       2       1       1       1
     B2         6       6       2       2       2       0
   -------------------------------------------------------
    Total      28      28      11       8       8       3
   -------------------------------------------------------

  ==> Iterations <==

                           Total Energy        Delta E     RMS |[F,P]|

   @DF-UKS iter   0:  -202.85636664573161   -2.02856e+02   1.72419e-01 
   @DF-UKS iter   1:  -202.76493002032078    9.14366e-02   2.59283e-02 ADIIS/DIIS
   @DF-UKS iter   2:  -202.79080391979386   -2.58739e-02   2.15009e-02 ADIIS/DIIS/DAMP=1%
   @DF-UKS iter   3:  -202.83729597731798   -4.64921e-02   3.03205e-03 ADIIS/DIIS/DAMP=1%
   @DF-UKS iter   4:  -202.82601083134443    1.12851e-02   8.23754e-04 ADIIS/DIIS/DAMP=1%
   @DF-UKS iter   5:  -202.82692606392101   -9.15233e-04   1.37163e-04 ADIIS/DIIS/DAMP=1%
   @DF-UKS iter   6:  -202.82688484550144    4.12184e-05   3.77193e-05 DIIS/DAMP=1%
   @DF-UKS iter   7:  -202.82686353477300    2.13107e-05   6.71482e-06 DIIS/DAMP=1%
   @DF-UKS iter   8:  -202.82686414086135   -6.06088e-07   1.28429e-06 DIIS/DAMP=1%
   @DF-UKS iter   9:  -202.82686551414753   -1.37329e-06   1.12910e-07 DIIS/DAMP=1%
   @DF-UKS iter  10:  -202.82686536256818    1.51579e-07   8.51241e-09 DIIS/DAMP=1%
   @DF-UKS iter  11:  -202.82686534834716    1.42210e-08   9.47896e-10 DIIS/DAMP=1%
   @DF-UKS iter  12:  -202.82686535086762   -2.52047e-09   7.80287e-11 DIIS/DAMP=1%
  Energy and wave function converged.


  ==> Post-Iterations <==

   Electrons on quadrature grid:
      Nalpha   =   10.9999988208 ; deviation = -1.179e-06
      Nbeta    =    7.9999989544 ; deviation = -1.046e-06
      Ntotal   =   18.9999977753 ; deviation = -2.225e-06 

   @Spin Contamination Metric:   2.502593024E-03
   @S^2 Expected:                3.750000000E+00
   @S^2 Observed:                3.752502593E+00
   @S   Expected:                1.500000000E+00
   @S   Observed:                1.500000000E+00

    Orbital Energies [Eh]
    ---------------------

    Alpha Occupied:                                                       

       1A1   -30.691467     2A1   -18.637124     3A1    -1.206205  
       4A1    -0.560860     1B1    -0.303292     1B2    -0.297235  
       5A1    -0.276394     2B1     0.048245     2B2     0.116618  
       6A1     0.146347     7A1     1.163392  

    Alpha Virtual:                                                        

       3B1     1.241470     3B2     1.289081     8A1     1.544877  
       4B1     1.653963     4B2     1.662790     9A1     1.753284  
      10A1     2.436540     5B1     2.973659     1A2     2.975334  
      11A1     2.975418     5B2     3.027440    12A1     3.397321  
       2A2     4.974464    13A1     4.974484     6B1     5.001264  
       6B2     5.005695    14A1     5.311808  

    Beta Occupied:                                                        

       1A1   -30.681297     2A1   -18.567168     3A1    -1.186121  
       4A1    -0.442552     1B2    -0.287836     1B1    -0.286963  
       5A1    -0.180787     2B2     0.173321  

    Beta Virtual:                                                         

       2B1     0.310662     6A1     0.451248     3B2     1.338700  
       3B1     1.372944     7A1     1.419425     8A1     1.648943  
       4B2     1.675235     4B1     1.675554     9A1     1.814549  
      10A1     2.493451     1A2     3.064506    11A1     3.074779  
       5B2     3.118635     5B1     3.138073    12A1     3.489534  
       2A2     4.982214    13A1     4.982248     6B1     5.018065  
       6B2     5.019556    14A1     5.342628  

    Final Occupation by Irrep:
             A1    A2    B1    B2 
    DOCC [     5,    0,    1,    2 ]
    SOCC [     2,    0,    1,    0 ]
    NA   [     7,    0,    2,    2 ]
    NB   [     5,    0,    1,    2 ]

  @DF-UKS Final Energy:  -202.82686535086762

   => Energetics <=

    Nuclear Repulsion Energy =             28.9051659907544334
    One-Electron Energy =                -349.0229185264927878
    Two-Electron Energy =                 134.7161302792700042
    DFT Exchange-Correlation Energy =     -17.4252430943992707
    Empirical Dispersion Energy =           0.0000000000000000
    VV10 Nonlocal Energy =                  0.0000000000000000
    Total Energy =                       -202.8268653508676209

  UHF NO Occupations:
  HONO-2 :    6 A1 1.0000000
  HONO-1 :    2 B1 1.0000000
  HONO-0 :    7 A1 1.0000000
  LUNO+0 :    8 A1 0.0008389
  LUNO+1 :    3 B2 0.0003046
  LUNO+2 :    9 A1 0.0000761
  LUNO+3 :    3 B1 0.0000247


Computation Completed


Properties will be evaluated at   0.000000,   0.000000,   0.000000 [a0]

Properties computed using the SCF density matrix


 Multipole Moments:

 ------------------------------------------------------------------------------------
     Multipole            Electronic (a.u.)      Nuclear  (a.u.)        Total (a.u.)
 ------------------------------------------------------------------------------------

 L = 1.  Multiply by 2.5417464519 to convert [e a0] to [Debye]
 Dipole X            :          0.0000000            0.0000000            0.0000000
 Dipole Y            :          0.0000000            0.0000000            0.0000000
 Dipole Z            :         -2.2271184           -0.0007402           -2.2278586
 Magnitude           :                                                    2.2278586

 ------------------------------------------------------------------------------------

*** tstop() called on Joses-MacBook-Pro-2.local at Thu Jul 17 10:39:27 2025
Module time:
	user time   =       3.38 seconds =       0.06 minutes
	system time =       4.53 seconds =       0.08 minutes
	total time  =          1 seconds =       0.02 minutes
Total time:
	user time   =       7.45 seconds =       0.12 minutes
	system time =      10.60 seconds =       0.18 minutes
	total time  =          2 seconds =       0.03 minutes

*** tstart() called on Joses-MacBook-Pro-2.local
*** at Thu Jul 17 10:39:27 2025


         ------------------------------------------------------------
                                   SCF GRAD                          
                          Rob Parrish, Justin Turney,                
                       Andy Simmonett, and Alex Sokolov              
         ------------------------------------------------------------

  ==> Geometry <==

    Molecular point group: c2v
    Full point group: C_inf_v

    Geometry (in Angstrom), charge = -1, multiplicity = 4:

       Center              X                  Y                   Z               Mass       
    ------------   -----------------  -----------------  -----------------  -----------------
         O            0.000000000000     0.000000000000     0.813638577104    15.994914619570
         NE           0.000000000000     0.000000000000    -0.650950031975    19.992440176200

  Nuclear repulsion =   28.905165990754433

  ==> Basis Set <==

  Basis Set: CC-PVDZ
    Blend: CC-PVDZ
    Number of shells: 12
    Number of basis functions: 28
    Number of Cartesian functions: 30
    Spherical Harmonics?: true
    Max angular momentum: 2

  ==> DFJKGrad: Density-Fitted SCF Gradients <==

    Gradient:                    1
    J tasked:                  Yes
    K tasked:                  Yes
    wK tasked:                  No
    OpenMP threads:              1
    Integrals threads:           1
    Memory [MiB]:              375
    Schwarz Cutoff:          1E-12
    Fitting Condition:       1E-10

   => Auxiliary Basis Set <=

  Basis Set: (CC-PVDZ AUX)
    Blend: CC-PVDZ-JKFIT
    Number of shells: 48
    Number of basis functions: 140
    Number of Cartesian functions: 162
    Spherical Harmonics?: true
    Max angular momentum: 3

  ==> DFT Potential <==

   => LibXC <=

    Version 6.2.2
    S. Lehtola, C. Steigemann, M. J.T. Oliveira, and M. A.L. Marques.,  SoftwareX 7, 1–5 (2018) (10.1016/j.softx.2017.11.002)

   => Composite Functional: B3LYP <= 

    B3LYP Hyb-GGA Exchange-Correlation Functional

    P. J. Stephens, F. J. Devlin, C. F. Chabalowski, and M. J. Frisch.,  J. Phys. Chem. 98, 11623 (1994) (10.1021/j100096a001)

    Deriv               =              1
    GGA                 =           TRUE
    Meta                =          FALSE

    Exchange Hybrid     =           TRUE
    MP2 Hybrid          =          FALSE

   => Exchange Functionals <=

    0.0800   Slater exchange
    0.7200         Becke 88

   => Exact (HF) Exchange <=

    0.2000               HF 

   => Correlation Functionals <=

    0.1900   Vosko, Wilk & Nusair (VWN5_RPA)
    0.8100   Lee, Yang & Parr

   => LibXC Density Thresholds  <==

    XC_HYB_GGA_XC_B3LYP:  1.00E-15 

   => Molecular Quadrature <=

    Radial Scheme          =       TREUTLER
    Pruning Scheme         =           NONE
    Nuclear Scheme         =       TREUTLER

    Blocking Scheme        =         OCTREE
    BS radius alpha        =              1
    Pruning alpha          =              1
    Radial Points          =             75
    Spherical Points       =            302
    Total Points           =          42275
    Total Blocks           =            371
    Max Points             =            253
    Max Functions          =             28
    Weights Tolerance      =       1.00E-15


  -Total Gradient:
     Atom            X                  Y                   Z
    ------   -----------------  -----------------  -----------------
       1        0.000000000000     0.000000000000    -0.211205233001
       2        0.000000000000     0.000000000000     0.211225310169


*** tstop() called on Joses-MacBook-Pro-2.local at Thu Jul 17 10:39:27 2025
Module time:
	user time   =       0.60 seconds =       0.01 minutes
	system time =       1.04 seconds =       0.02 minutes
	total time  =          0 seconds =       0.00 minutes
Total time:
	user time   =       8.06 seconds =       0.13 minutes
	system time =      11.64 seconds =       0.19 minutes
	total time  =          2 seconds =       0.03 minutes

    			-----------------------------------------

    			 OPTKING 3.0: for geometry optimizations 

    			     By R.A. King, Bethel University     

    			        with contributions from          

    			    A.V. Copan, J. Cayton, A. Heide      

    			-----------------------------------------

    
	                            ===> Fragment 1 <== 

	 Z (Atomic Numbers)          Masses                          Geom                  
	       8.000000            15.994915          0.00000000  0.00000000  1.53755408   
	      10.000000            19.992440          0.00000000  0.00000000 -1.23011728   

	 - Coordinate -           - BOHR/RAD -       - ANG/DEG -
	 R(1,2)           =         2.767671           1.464589


	        --- Internal Coordinate Step in ANG or DEG, aJ/ANG or AJ/DEG ---
	-------------------------------------------------------------------------------
	           Coordinate      Previous         Force          Change          New 
	           ----------      --------        ------          ------        ------
	               R(1,2)       1.46459        1.74014        0.09411       1.55870
	-------------------------------------------------------------------------------

	                                 ==> Convergence Check <==                                  
    
	Measures of convergence in internal coordinates in au.
    
	Criteria marked as inactive (o), active & met (*), and active & unmet ( ).

	----------------------------------------------------------------------------------------------
	   Step    Total Energy     Delta E     Max Force     RMS Force      Max Disp      RMS Disp   
	----------------------------------------------------------------------------------------------
	  Convergence Criteria     1.00e-06 *    3.00e-04 *             o    1.20e-03 *             o
	----------------------------------------------------------------------------------------------
	     2    -202.82686535   -2.15e-01      2.11e-01      2.11e-01 o    1.78e-01      1.78e-01 o  ~
	----------------------------------------------------------------------------------------------

Next Geometry in Ang 
	Fragment 1 (Ang)

	    O   0.0000000000   0.0000000000   0.8606922360
	   Ne   0.0000000000   0.0000000000  -0.6980036908


    Structure for next step:
    Molecular point group: c2v
    Full point group: C_inf_v

    Geometry (in Angstrom), charge = -1, multiplicity = 4:

    O            0.000000000000     0.000000000000     0.865919021998
    NE           0.000000000000     0.000000000000    -0.692776904782


Scratch directory: /tmp/
gradient() will perform analytic gradient computation.
   => Libint2 <=

    Primary   basis highest AM E, G, H:  6, 6, 3
    Auxiliary basis highest AM E, G, H:  7, 7, 4
    Onebody   basis highest AM E, G, H:  -, -, -
    Solid Harmonics ordering:            Gaussian

*** tstart() called on Joses-MacBook-Pro-2.local
*** at Thu Jul 17 10:39:27 2025

   => Loading Basis Set <=

    Name: CC-PVDZ
    Role: ORBITAL
    Keyword: BASIS
    atoms 1 entry O          line   198 file /Users/joseantoniorodriguesromero/anaconda3/share/psi4/basis/cc-pvdz.gbs 
    atoms 2 entry NE         line   258 file /Users/joseantoniorodriguesromero/anaconda3/share/psi4/basis/cc-pvdz.gbs 


         ---------------------------------------------------------
                                   SCF
               by Justin Turney, Rob Parrish, Andy Simmonett
                          and Daniel G. A. Smith
                              UKS Reference
                        1 Threads,    500 MiB Core
         ---------------------------------------------------------

  ==> Geometry <==

    Molecular point group: c2v
    Full point group: C_inf_v

    Geometry (in Angstrom), charge = -1, multiplicity = 4:

       Center              X                  Y                   Z               Mass       
    ------------   -----------------  -----------------  -----------------  -----------------
         O            0.000000000000     0.000000000000     0.865919021998    15.994914619570
         NE           0.000000000000     0.000000000000    -0.692776904782    19.992440176200

  Running in c2v symmetry.

  Rotational constants: A = ************  B =      0.78086  C =      0.78086 [cm^-1]
  Rotational constants: A = ************  B =  23409.74013  C =  23409.74013 [MHz]
  Nuclear repulsion =   27.159997101586228

  Charge       = -1
  Multiplicity = 4
  Electrons    = 19
  Nalpha       = 11
  Nbeta        = 8

  ==> Algorithm <==

  SCF Algorithm Type is DF.
  DIIS enabled.
  MOM disabled.
  Fractional occupation disabled.
  Guess Type is READ.
  Energy threshold   = 1.00e-08
  Density threshold  = 1.00e-08
  Integral threshold = 1.00e-12

  ==> Primary Basis <==

  Basis Set: CC-PVDZ
    Blend: CC-PVDZ
    Number of shells: 12
    Number of basis functions: 28
    Number of Cartesian functions: 30
    Spherical Harmonics?: true
    Max angular momentum: 2

  ==> DFT Potential <==

   => LibXC <=

    Version 6.2.2
    S. Lehtola, C. Steigemann, M. J.T. Oliveira, and M. A.L. Marques.,  SoftwareX 7, 1–5 (2018) (10.1016/j.softx.2017.11.002)

   => Composite Functional: B3LYP <= 

    B3LYP Hyb-GGA Exchange-Correlation Functional

    P. J. Stephens, F. J. Devlin, C. F. Chabalowski, and M. J. Frisch.,  J. Phys. Chem. 98, 11623 (1994) (10.1021/j100096a001)

    Deriv               =              1
    GGA                 =           TRUE
    Meta                =          FALSE

    Exchange Hybrid     =           TRUE
    MP2 Hybrid          =          FALSE

   => Exchange Functionals <=

    0.0800   Slater exchange
    0.7200         Becke 88

   => Exact (HF) Exchange <=

    0.2000               HF 

   => Correlation Functionals <=

    0.1900   Vosko, Wilk & Nusair (VWN5_RPA)
    0.8100   Lee, Yang & Parr

   => LibXC Density Thresholds  <==

    XC_HYB_GGA_XC_B3LYP:  1.00E-15 

   => Molecular Quadrature <=

    Radial Scheme          =       TREUTLER
    Pruning Scheme         =           NONE
    Nuclear Scheme         =       TREUTLER

    Blocking Scheme        =         OCTREE
    BS radius alpha        =              1
    Pruning alpha          =              1
    Radial Points          =             75
    Spherical Points       =            302
    Total Points           =          42293
    Total Blocks           =            369
    Max Points             =            253
    Max Functions          =             28
    Weights Tolerance      =       1.00E-15

   => Loading Basis Set <=

    Name: (CC-PVDZ AUX)
    Role: JKFIT
    Keyword: DF_BASIS_SCF
    atoms 1 entry O          line   221 file /Users/joseantoniorodriguesromero/anaconda3/share/psi4/basis/cc-pvdz-jkfit.gbs 
    atoms 2 entry NE         line   321 file /Users/joseantoniorodriguesromero/anaconda3/share/psi4/basis/cc-pvdz-jkfit.gbs 

   => Loading Basis Set <=

    Name: CC-PVDZ
    Role: ORBITAL
    Keyword: BASIS
    atoms 1 entry O          line   198 file /Users/joseantoniorodriguesromero/anaconda3/share/psi4/basis/cc-pvdz.gbs 
    atoms 2 entry NE         line   258 file /Users/joseantoniorodriguesromero/anaconda3/share/psi4/basis/cc-pvdz.gbs 

  Reading orbitals from file /tmp/quartet_ONe.default.72706.180.npy, no projection.

  ==> Integral Setup <==

  DFHelper Memory: AOs need 0.001 GiB; user supplied 0.333 GiB. 
  Using in-core AOs.

  ==> MemDFJK: Density-Fitted J/K Matrices <==

    J tasked:                   Yes
    K tasked:                   Yes
    wK tasked:                   No
    OpenMP threads:               1
    Memory [MiB]:               341
    Algorithm:                 Core
    Schwarz Cutoff:           1E-12
    Mask sparsity (%):       0.0000
    Fitting Condition:        1E-10

   => Auxiliary Basis Set <=

  Basis Set: (CC-PVDZ AUX)
    Blend: CC-PVDZ-JKFIT
    Number of shells: 48
    Number of basis functions: 140
    Number of Cartesian functions: 162
    Spherical Harmonics?: true
    Max angular momentum: 3

  Cached 100.0% of DFT collocation blocks in 0.033 [GiB].

  Minimum eigenvalue in the overlap matrix is 8.7469583985E-02.
  Reciprocal condition number of the overlap matrix is 3.8517299818E-02.
    Using symmetric orthogonalization.

  ==> Pre-Iterations <==

  SCF Guess: Orbitals guess was supplied from a previous computation.

   -------------------------------------------------------
    Irrep   Nso     Nmo     Nalpha   Nbeta   Ndocc  Nsocc
   -------------------------------------------------------
     A1        14      14       7       5       5       2
     A2         2       2       0       0       0       0
     B1         6       6       2       1       1       1
     B2         6       6       2       2       2       0
   -------------------------------------------------------
    Total      28      28      11       8       8       3
   -------------------------------------------------------

  ==> Iterations <==

                           Total Energy        Delta E     RMS |[F,P]|

   @DF-UKS iter   0:  -202.82946570789397   -2.02829e+02   3.15739e-02 
   @DF-UKS iter   1:  -202.85639753732875   -2.69318e-02   3.66592e-03 ADIIS/DIIS
   @DF-UKS iter   2:  -202.85698065873220   -5.83121e-04   3.21446e-03 ADIIS/DIIS/DAMP=1%
   @DF-UKS iter   3:  -202.85930411340397   -2.32345e-03   3.65630e-04 ADIIS/DIIS/DAMP=1%
   @DF-UKS iter   4:  -202.85775767764920    1.54644e-03   1.63617e-04 ADIIS/DIIS/DAMP=1%
   @DF-UKS iter   5:  -202.85776784647641   -1.01688e-05   2.32784e-05 DIIS/DAMP=1%
   @DF-UKS iter   6:  -202.85777040027887   -2.55380e-06   4.84156e-06 DIIS/DAMP=1%
   @DF-UKS iter   7:  -202.85776505219820    5.34808e-06   1.01391e-06 DIIS/DAMP=1%
   @DF-UKS iter   8:  -202.85776564987168   -5.97673e-07   2.58497e-07 DIIS/DAMP=1%
   @DF-UKS iter   9:  -202.85776578189660   -1.32025e-07   2.28873e-08 DIIS/DAMP=1%
   @DF-UKS iter  10:  -202.85776575989416    2.20024e-08   1.45230e-09 DIIS/DAMP=1%
   @DF-UKS iter  11:  -202.85776575873422    1.15995e-09   1.72109e-10 DIIS/DAMP=1%
  Energy and wave function converged.


  ==> Post-Iterations <==

   Electrons on quadrature grid:
      Nalpha   =   10.9999973400 ; deviation = -2.660e-06
      Nbeta    =    7.9999973627 ; deviation = -2.637e-06
      Ntotal   =   18.9999947027 ; deviation = -5.297e-06 

   @Spin Contamination Metric:   2.473068845E-03
   @S^2 Expected:                3.750000000E+00
   @S^2 Observed:                3.752473069E+00
   @S   Expected:                1.500000000E+00
   @S   Observed:                1.500000000E+00

    Orbital Energies [Eh]
    ---------------------

    Alpha Occupied:                                                       

       1A1   -30.695745     2A1   -18.638121     3A1    -1.195096  
       4A1    -0.546425     1B1    -0.297439     1B2    -0.293076  
       5A1    -0.281124     2B1     0.045389     6A1     0.113007  
       2B2     0.114253     7A1     1.181721  

    Alpha Virtual:                                                        

       3B1     1.236611     3B2     1.283928     8A1     1.552855  
       4B1     1.648746     4B2     1.656659     9A1     1.731984  
      10A1     2.367366     5B1     2.969786    11A1     2.977272  
       1A2     2.977455     5B2     3.024305    12A1     3.389082  
       2A2     4.976733    13A1     4.976770     6B1     4.989924  
       6B2     4.992965    14A1     5.186769  

    Beta Occupied:                                                        

       1A1   -30.688284     2A1   -18.566833     3A1    -1.180734  
       4A1    -0.422003     1B2    -0.286135     1B1    -0.285916  
       5A1    -0.200716     2B2     0.172020  

    Beta Virtual:                                                         

       2B1     0.309801     6A1     0.424658     3B2     1.334241  
       3B1     1.368482     7A1     1.452002     8A1     1.657397  
       4B2     1.667251     4B1     1.667937     9A1     1.779160  
      10A1     2.424227     1A2     3.066810    11A1     3.077182  
       5B2     3.119311     5B1     3.139864    12A1     3.490183  
       2A2     4.982480    13A1     4.982525     6B1     5.001516  
       6B2     5.002818    14A1     5.207757  

    Final Occupation by Irrep:
             A1    A2    B1    B2 
    DOCC [     5,    0,    1,    2 ]
    SOCC [     2,    0,    1,    0 ]
    NA   [     7,    0,    2,    2 ]
    NB   [     5,    0,    1,    2 ]

  @DF-UKS Final Energy:  -202.85776575873422

   => Energetics <=

    Nuclear Repulsion Energy =             27.1599971015862280
    One-Electron Energy =                -345.6113741881335955
    Two-Electron Energy =                 133.0023673105649777
    DFT Exchange-Correlation Energy =     -17.4087559827518277
    Empirical Dispersion Energy =           0.0000000000000000
    VV10 Nonlocal Energy =                  0.0000000000000000
    Total Energy =                       -202.8577657587342173

  UHF NO Occupations:
  HONO-2 :    6 A1 1.0000000
  HONO-1 :    7 A1 1.0000000
  HONO-0 :    2 B1 1.0000000
  LUNO+0 :    8 A1 0.0008576
  LUNO+1 :    3 B2 0.0003191
  LUNO+2 :    9 A1 0.0000428
  LUNO+3 :    3 B1 0.0000133


Computation Completed


Properties will be evaluated at   0.000000,   0.000000,   0.000000 [a0]

Properties computed using the SCF density matrix


 Multipole Moments:

 ------------------------------------------------------------------------------------
     Multipole            Electronic (a.u.)      Nuclear  (a.u.)        Total (a.u.)
 ------------------------------------------------------------------------------------

 L = 1.  Multiply by 2.5417464519 to convert [e a0] to [Debye]
 Dipole X            :          0.0000000            0.0000000            0.0000000
 Dipole Y            :          0.0000000            0.0000000            0.0000000
 Dipole Z            :         -2.3044907           -0.0007878           -2.3052785
 Magnitude           :                                                    2.3052785

 ------------------------------------------------------------------------------------

*** tstop() called on Joses-MacBook-Pro-2.local at Thu Jul 17 10:39:28 2025
Module time:
	user time   =       3.59 seconds =       0.06 minutes
	system time =       3.56 seconds =       0.06 minutes
	total time  =          1 seconds =       0.02 minutes
Total time:
	user time   =      11.68 seconds =       0.19 minutes
	system time =      15.43 seconds =       0.26 minutes
	total time  =          3 seconds =       0.05 minutes

*** tstart() called on Joses-MacBook-Pro-2.local
*** at Thu Jul 17 10:39:28 2025


         ------------------------------------------------------------
                                   SCF GRAD                          
                          Rob Parrish, Justin Turney,                
                       Andy Simmonett, and Alex Sokolov              
         ------------------------------------------------------------

  ==> Geometry <==

    Molecular point group: c2v
    Full point group: C_inf_v

    Geometry (in Angstrom), charge = -1, multiplicity = 4:

       Center              X                  Y                   Z               Mass       
    ------------   -----------------  -----------------  -----------------  -----------------
         O            0.000000000000     0.000000000000     0.865919021998    15.994914619570
         NE           0.000000000000     0.000000000000    -0.692776904782    19.992440176200

  Nuclear repulsion =   27.159997101586228

  ==> Basis Set <==

  Basis Set: CC-PVDZ
    Blend: CC-PVDZ
    Number of shells: 12
    Number of basis functions: 28
    Number of Cartesian functions: 30
    Spherical Harmonics?: true
    Max angular momentum: 2

  ==> DFJKGrad: Density-Fitted SCF Gradients <==

    Gradient:                    1
    J tasked:                  Yes
    K tasked:                  Yes
    wK tasked:                  No
    OpenMP threads:              1
    Integrals threads:           1
    Memory [MiB]:              375
    Schwarz Cutoff:          1E-12
    Fitting Condition:       1E-10

   => Auxiliary Basis Set <=

  Basis Set: (CC-PVDZ AUX)
    Blend: CC-PVDZ-JKFIT
    Number of shells: 48
    Number of basis functions: 140
    Number of Cartesian functions: 162
    Spherical Harmonics?: true
    Max angular momentum: 3

  ==> DFT Potential <==

   => LibXC <=

    Version 6.2.2
    S. Lehtola, C. Steigemann, M. J.T. Oliveira, and M. A.L. Marques.,  SoftwareX 7, 1–5 (2018) (10.1016/j.softx.2017.11.002)

   => Composite Functional: B3LYP <= 

    B3LYP Hyb-GGA Exchange-Correlation Functional

    P. J. Stephens, F. J. Devlin, C. F. Chabalowski, and M. J. Frisch.,  J. Phys. Chem. 98, 11623 (1994) (10.1021/j100096a001)

    Deriv               =              1
    GGA                 =           TRUE
    Meta                =          FALSE

    Exchange Hybrid     =           TRUE
    MP2 Hybrid          =          FALSE

   => Exchange Functionals <=

    0.0800   Slater exchange
    0.7200         Becke 88

   => Exact (HF) Exchange <=

    0.2000               HF 

   => Correlation Functionals <=

    0.1900   Vosko, Wilk & Nusair (VWN5_RPA)
    0.8100   Lee, Yang & Parr

   => LibXC Density Thresholds  <==

    XC_HYB_GGA_XC_B3LYP:  1.00E-15 

   => Molecular Quadrature <=

    Radial Scheme          =       TREUTLER
    Pruning Scheme         =           NONE
    Nuclear Scheme         =       TREUTLER

    Blocking Scheme        =         OCTREE
    BS radius alpha        =              1
    Pruning alpha          =              1
    Radial Points          =             75
    Spherical Points       =            302
    Total Points           =          42293
    Total Blocks           =            369
    Max Points             =            253
    Max Functions          =             28
    Weights Tolerance      =       1.00E-15


  -Total Gradient:
     Atom            X                  Y                   Z
    ------   -----------------  -----------------  -----------------
       1        0.000000000000    -0.000000000000    -0.142647726228
       2       -0.000000000000     0.000000000000     0.142673544156


*** tstop() called on Joses-MacBook-Pro-2.local at Thu Jul 17 10:39:28 2025
Module time:
	user time   =       0.44 seconds =       0.01 minutes
	system time =       1.05 seconds =       0.02 minutes
	total time  =          0 seconds =       0.00 minutes
Total time:
	user time   =      12.12 seconds =       0.20 minutes
	system time =      16.49 seconds =       0.27 minutes
	total time  =          3 seconds =       0.05 minutes

    			-----------------------------------------

    			 OPTKING 3.0: for geometry optimizations 

    			     By R.A. King, Bethel University     

    			        with contributions from          

    			    A.V. Copan, J. Cayton, A. Heide      

    			-----------------------------------------

    
	                            ===> Fragment 1 <== 

	 Z (Atomic Numbers)          Masses                          Geom                  
	       8.000000            15.994915          0.00000000  0.00000000  1.63634980   
	      10.000000            19.992440          0.00000000  0.00000000 -1.30915862   

	 - Coordinate -           - BOHR/RAD -       - ANG/DEG -
	 R(1,2)           =         2.945508           1.558696


	        --- Internal Coordinate Step in ANG or DEG, aJ/ANG or AJ/DEG ---
	-------------------------------------------------------------------------------
	           Coordinate      Previous         Force          Change          New 
	           ----------      --------        ------          ------        ------
	               R(1,2)       1.55870        1.17534        0.17453       1.73323
	-------------------------------------------------------------------------------

	                                 ==> Convergence Check <==                                  
    
	Measures of convergence in internal coordinates in au.
    
	Criteria marked as inactive (o), active & met (*), and active & unmet ( ).

	----------------------------------------------------------------------------------------------
	   Step    Total Energy     Delta E     Max Force     RMS Force      Max Disp      RMS Disp   
	----------------------------------------------------------------------------------------------
	  Convergence Criteria     1.00e-06 *    3.00e-04 *             o    1.20e-03 *             o
	----------------------------------------------------------------------------------------------
	     3    -202.85776576   -3.09e-02      1.43e-01      1.43e-01 o    3.30e-01      3.30e-01 o  ~
	----------------------------------------------------------------------------------------------

Next Geometry in Ang 
	Fragment 1 (Ang)

	    O   0.0000000000   0.0000000000   0.9531851384
	   Ne   0.0000000000   0.0000000000  -0.7800430212


    Structure for next step:
    Molecular point group: c2v
    Full point group: C_inf_v

    Geometry (in Angstrom), charge = -1, multiplicity = 4:

    O            0.000000000000     0.000000000000     0.962878780270
    NE           0.000000000000     0.000000000000    -0.770349379249


Scratch directory: /tmp/
gradient() will perform analytic gradient computation.
   => Libint2 <=

    Primary   basis highest AM E, G, H:  6, 6, 3
    Auxiliary basis highest AM E, G, H:  7, 7, 4
    Onebody   basis highest AM E, G, H:  -, -, -
    Solid Harmonics ordering:            Gaussian

*** tstart() called on Joses-MacBook-Pro-2.local
*** at Thu Jul 17 10:39:28 2025

   => Loading Basis Set <=

    Name: CC-PVDZ
    Role: ORBITAL
    Keyword: BASIS
    atoms 1 entry O          line   198 file /Users/joseantoniorodriguesromero/anaconda3/share/psi4/basis/cc-pvdz.gbs 
    atoms 2 entry NE         line   258 file /Users/joseantoniorodriguesromero/anaconda3/share/psi4/basis/cc-pvdz.gbs 


         ---------------------------------------------------------
                                   SCF
               by Justin Turney, Rob Parrish, Andy Simmonett
                          and Daniel G. A. Smith
                              UKS Reference
                        1 Threads,    500 MiB Core
         ---------------------------------------------------------

  ==> Geometry <==

    Molecular point group: c2v
    Full point group: C_inf_v

    Geometry (in Angstrom), charge = -1, multiplicity = 4:

       Center              X                  Y                   Z               Mass       
    ------------   -----------------  -----------------  -----------------  -----------------
         O            0.000000000000     0.000000000000     0.962878780270    15.994914619570
         NE           0.000000000000     0.000000000000    -0.770349379249    19.992440176200

  Running in c2v symmetry.

  Rotational constants: A = ************  B =      0.63152  C =      0.63152 [cm^-1]
  Rotational constants: A = ************  B =  18932.49806  C =  18932.49806 [MHz]
  Nuclear repulsion =   24.425045612784153

  Charge       = -1
  Multiplicity = 4
  Electrons    = 19
  Nalpha       = 11
  Nbeta        = 8

  ==> Algorithm <==

  SCF Algorithm Type is DF.
  DIIS enabled.
  MOM disabled.
  Fractional occupation disabled.
  Guess Type is READ.
  Energy threshold   = 1.00e-08
  Density threshold  = 1.00e-08
  Integral threshold = 1.00e-12

  ==> Primary Basis <==

  Basis Set: CC-PVDZ
    Blend: CC-PVDZ
    Number of shells: 12
    Number of basis functions: 28
    Number of Cartesian functions: 30
    Spherical Harmonics?: true
    Max angular momentum: 2

  ==> DFT Potential <==

   => LibXC <=

    Version 6.2.2
    S. Lehtola, C. Steigemann, M. J.T. Oliveira, and M. A.L. Marques.,  SoftwareX 7, 1–5 (2018) (10.1016/j.softx.2017.11.002)

   => Composite Functional: B3LYP <= 

    B3LYP Hyb-GGA Exchange-Correlation Functional

    P. J. Stephens, F. J. Devlin, C. F. Chabalowski, and M. J. Frisch.,  J. Phys. Chem. 98, 11623 (1994) (10.1021/j100096a001)

    Deriv               =              1
    GGA                 =           TRUE
    Meta                =          FALSE

    Exchange Hybrid     =           TRUE
    MP2 Hybrid          =          FALSE

   => Exchange Functionals <=

    0.0800   Slater exchange
    0.7200         Becke 88

   => Exact (HF) Exchange <=

    0.2000               HF 

   => Correlation Functionals <=

    0.1900   Vosko, Wilk & Nusair (VWN5_RPA)
    0.8100   Lee, Yang & Parr

   => LibXC Density Thresholds  <==

    XC_HYB_GGA_XC_B3LYP:  1.00E-15 

   => Molecular Quadrature <=

    Radial Scheme          =       TREUTLER
    Pruning Scheme         =           NONE
    Nuclear Scheme         =       TREUTLER

    Blocking Scheme        =         OCTREE
    BS radius alpha        =              1
    Pruning alpha          =              1
    Radial Points          =             75
    Spherical Points       =            302
    Total Points           =          42313
    Total Blocks           =            369
    Max Points             =            255
    Max Functions          =             28
    Weights Tolerance      =       1.00E-15

   => Loading Basis Set <=

    Name: (CC-PVDZ AUX)
    Role: JKFIT
    Keyword: DF_BASIS_SCF
    atoms 1 entry O          line   221 file /Users/joseantoniorodriguesromero/anaconda3/share/psi4/basis/cc-pvdz-jkfit.gbs 
    atoms 2 entry NE         line   321 file /Users/joseantoniorodriguesromero/anaconda3/share/psi4/basis/cc-pvdz-jkfit.gbs 

   => Loading Basis Set <=

    Name: CC-PVDZ
    Role: ORBITAL
    Keyword: BASIS
    atoms 1 entry O          line   198 file /Users/joseantoniorodriguesromero/anaconda3/share/psi4/basis/cc-pvdz.gbs 
    atoms 2 entry NE         line   258 file /Users/joseantoniorodriguesromero/anaconda3/share/psi4/basis/cc-pvdz.gbs 

  Reading orbitals from file /tmp/quartet_ONe.default.72706.180.npy, no projection.

  ==> Integral Setup <==

  DFHelper Memory: AOs need 0.001 GiB; user supplied 0.333 GiB. 
  Using in-core AOs.

  ==> MemDFJK: Density-Fitted J/K Matrices <==

    J tasked:                   Yes
    K tasked:                   Yes
    wK tasked:                   No
    OpenMP threads:               1
    Memory [MiB]:               341
    Algorithm:                 Core
    Schwarz Cutoff:           1E-12
    Mask sparsity (%):       0.0000
    Fitting Condition:        1E-10

   => Auxiliary Basis Set <=

  Basis Set: (CC-PVDZ AUX)
    Blend: CC-PVDZ-JKFIT
    Number of shells: 48
    Number of basis functions: 140
    Number of Cartesian functions: 162
    Spherical Harmonics?: true
    Max angular momentum: 3

  Cached 100.0% of DFT collocation blocks in 0.033 [GiB].

  Minimum eigenvalue in the overlap matrix is 1.1494351343E-01.
  Reciprocal condition number of the overlap matrix is 5.4680650471E-02.
    Using symmetric orthogonalization.

  ==> Pre-Iterations <==

  SCF Guess: Orbitals guess was supplied from a previous computation.

   -------------------------------------------------------
    Irrep   Nso     Nmo     Nalpha   Nbeta   Ndocc  Nsocc
   -------------------------------------------------------
     A1        14      14       7       5       5       2
     A2         2       2       0       0       0       0
     B1         6       6       2       1       1       1
     B2         6       6       2       2       2       0
   -------------------------------------------------------
    Total      28      28      11       8       8       3
   -------------------------------------------------------

  ==> Iterations <==

                           Total Energy        Delta E     RMS |[F,P]|

   @DF-UKS iter   0:  -202.85374164423328   -2.02854e+02   4.35964e-02 
   @DF-UKS iter   1:  -202.89300558853145   -3.92639e-02   4.80687e-03 ADIIS/DIIS
   @DF-UKS iter   2:  -202.89365570025046   -6.50112e-04   4.41038e-03 ADIIS/DIIS/DAMP=1%
   @DF-UKS iter   3:  -202.89710293087973   -3.44723e-03   3.47079e-04 ADIIS/DIIS/DAMP=1%
   @DF-UKS iter   4:  -202.89508630143018    2.01663e-03   1.28160e-04 ADIIS/DIIS/DAMP=1%
   @DF-UKS iter   5:  -202.89505638919849    2.99122e-05   2.15680e-05 DIIS/DAMP=1%
   @DF-UKS iter   6:  -202.89505972089697   -3.33170e-06   6.88925e-06 DIIS/DAMP=1%
   @DF-UKS iter   7:  -202.89505381570578    5.90519e-06   1.02096e-06 DIIS/DAMP=1%
   @DF-UKS iter   8:  -202.89505469229590   -8.76590e-07   4.65855e-07 DIIS/DAMP=1%
   @DF-UKS iter   9:  -202.89505463620787    5.60880e-08   5.19019e-08 DIIS/DAMP=1%
   @DF-UKS iter  10:  -202.89505467826254   -4.20547e-08   4.22134e-09 DIIS/DAMP=1%
   @DF-UKS iter  11:  -202.89505467113599    7.12654e-09   9.54645e-10 DIIS/DAMP=1%
  Energy and wave function converged.


  ==> Post-Iterations <==

   Electrons on quadrature grid:
      Nalpha   =   10.9999981932 ; deviation = -1.807e-06
      Nbeta    =    7.9999980348 ; deviation = -1.965e-06
      Ntotal   =   18.9999962280 ; deviation = -3.772e-06 

   @Spin Contamination Metric:   2.393807838E-03
   @S^2 Expected:                3.750000000E+00
   @S^2 Observed:                3.752393808E+00
   @S   Expected:                1.500000000E+00
   @S   Observed:                1.500000000E+00

    Orbital Energies [Eh]
    ---------------------

    Alpha Occupied:                                                       

       1A1   -30.701075     2A1   -18.637798     3A1    -1.183713  
       4A1    -0.527387     1B1    -0.290785     1B2    -0.288376  
       5A1    -0.283775     2B1     0.044157     6A1     0.075101  
       2B2     0.113437     7A1     1.197456  

    Alpha Virtual:                                                        

       3B1     1.231775     3B2     1.278813     8A1     1.516832  
       4B1     1.641235     4B2     1.647553     9A1     1.709805  
      10A1     2.323536     5B1     2.958248    11A1     2.979182  
       1A2     2.980431     5B2     3.013489    12A1     3.290750  
       2A2     4.979762    13A1     4.979773     6B1     4.985766  
       6B2     4.987381    14A1     5.063630  

    Beta Occupied:                                                        

       1A1   -30.696556     2A1   -18.565218     3A1    -1.175100  
       4A1    -0.388705     1B1    -0.284222     1B2    -0.283881  
       5A1    -0.230716     2B2     0.172163  

    Beta Virtual:                                                         

       2B1     0.310460     6A1     0.395096     3B2     1.330019  
       3B1     1.364432     7A1     1.488151     8A1     1.619750  
       4B2     1.655555     4B1     1.656666     9A1     1.736838  
      10A1     2.376666     1A2     3.069652    11A1     3.080131  
       5B2     3.112161     5B1     3.133835    12A1     3.408136  
       2A2     4.983505    13A1     4.983521     6B1     4.992255  
       6B2     4.993159    14A1     5.073567  

    Final Occupation by Irrep:
             A1    A2    B1    B2 
    DOCC [     5,    0,    1,    2 ]
    SOCC [     2,    0,    1,    0 ]
    NA   [     7,    0,    2,    2 ]
    NB   [     5,    0,    1,    2 ]

  @DF-UKS Final Energy:  -202.89505467113599

   => Energetics <=

    Nuclear Repulsion Energy =             24.4250456127841531
    One-Electron Energy =                -340.2482320239347473
    Two-Electron Energy =                 130.3130520492891264
    DFT Exchange-Correlation Energy =     -17.3849203092745626
    Empirical Dispersion Energy =           0.0000000000000000
    VV10 Nonlocal Energy =                  0.0000000000000000
    Total Energy =                       -202.8950546711359948

  UHF NO Occupations:
  HONO-2 :    6 A1 1.0000000
  HONO-1 :    2 B1 1.0000000
  HONO-0 :    7 A1 1.0000000
  LUNO+0 :    8 A1 0.0008563
  LUNO+1 :    3 B2 0.0003241
  LUNO+2 :    9 A1 0.0000113
  LUNO+3 :    3 B1 0.0000041


Computation Completed


Properties will be evaluated at   0.000000,   0.000000,   0.000000 [a0]

Properties computed using the SCF density matrix


 Multipole Moments:

 ------------------------------------------------------------------------------------
     Multipole            Electronic (a.u.)      Nuclear  (a.u.)        Total (a.u.)
 ------------------------------------------------------------------------------------

 L = 1.  Multiply by 2.5417464519 to convert [e a0] to [Debye]
 Dipole X            :          0.0000000            0.0000000            0.0000000
 Dipole Y            :          0.0000000            0.0000000            0.0000000
 Dipole Z            :         -2.3814677           -0.0008760           -2.3823437
 Magnitude           :                                                    2.3823437

 ------------------------------------------------------------------------------------

*** tstop() called on Joses-MacBook-Pro-2.local at Thu Jul 17 10:39:29 2025
Module time:
	user time   =       4.10 seconds =       0.07 minutes
	system time =       3.56 seconds =       0.06 minutes
	total time  =          1 seconds =       0.02 minutes
Total time:
	user time   =      16.31 seconds =       0.27 minutes
	system time =      20.23 seconds =       0.34 minutes
	total time  =          4 seconds =       0.07 minutes

*** tstart() called on Joses-MacBook-Pro-2.local
*** at Thu Jul 17 10:39:29 2025


         ------------------------------------------------------------
                                   SCF GRAD                          
                          Rob Parrish, Justin Turney,                
                       Andy Simmonett, and Alex Sokolov              
         ------------------------------------------------------------

  ==> Geometry <==

    Molecular point group: c2v
    Full point group: C_inf_v

    Geometry (in Angstrom), charge = -1, multiplicity = 4:

       Center              X                  Y                   Z               Mass       
    ------------   -----------------  -----------------  -----------------  -----------------
         O            0.000000000000     0.000000000000     0.962878780270    15.994914619570
         NE           0.000000000000     0.000000000000    -0.770349379249    19.992440176200

  Nuclear repulsion =   24.425045612784153

  ==> Basis Set <==

  Basis Set: CC-PVDZ
    Blend: CC-PVDZ
    Number of shells: 12
    Number of basis functions: 28
    Number of Cartesian functions: 30
    Spherical Harmonics?: true
    Max angular momentum: 2

  ==> DFJKGrad: Density-Fitted SCF Gradients <==

    Gradient:                    1
    J tasked:                  Yes
    K tasked:                  Yes
    wK tasked:                  No
    OpenMP threads:              1
    Integrals threads:           1
    Memory [MiB]:              375
    Schwarz Cutoff:          1E-12
    Fitting Condition:       1E-10

   => Auxiliary Basis Set <=

  Basis Set: (CC-PVDZ AUX)
    Blend: CC-PVDZ-JKFIT
    Number of shells: 48
    Number of basis functions: 140
    Number of Cartesian functions: 162
    Spherical Harmonics?: true
    Max angular momentum: 3

  ==> DFT Potential <==

   => LibXC <=

    Version 6.2.2
    S. Lehtola, C. Steigemann, M. J.T. Oliveira, and M. A.L. Marques.,  SoftwareX 7, 1–5 (2018) (10.1016/j.softx.2017.11.002)

   => Composite Functional: B3LYP <= 

    B3LYP Hyb-GGA Exchange-Correlation Functional

    P. J. Stephens, F. J. Devlin, C. F. Chabalowski, and M. J. Frisch.,  J. Phys. Chem. 98, 11623 (1994) (10.1021/j100096a001)

    Deriv               =              1
    GGA                 =           TRUE
    Meta                =          FALSE

    Exchange Hybrid     =           TRUE
    MP2 Hybrid          =          FALSE

   => Exchange Functionals <=

    0.0800   Slater exchange
    0.7200         Becke 88

   => Exact (HF) Exchange <=

    0.2000               HF 

   => Correlation Functionals <=

    0.1900   Vosko, Wilk & Nusair (VWN5_RPA)
    0.8100   Lee, Yang & Parr

   => LibXC Density Thresholds  <==

    XC_HYB_GGA_XC_B3LYP:  1.00E-15 

   => Molecular Quadrature <=

    Radial Scheme          =       TREUTLER
    Pruning Scheme         =           NONE
    Nuclear Scheme         =       TREUTLER

    Blocking Scheme        =         OCTREE
    BS radius alpha        =              1
    Pruning alpha          =              1
    Radial Points          =             75
    Spherical Points       =            302
    Total Points           =          42313
    Total Blocks           =            369
    Max Points             =            255
    Max Functions          =             28
    Weights Tolerance      =       1.00E-15


  -Total Gradient:
     Atom            X                  Y                   Z
    ------   -----------------  -----------------  -----------------
       1        0.000000000000     0.000000000000    -0.100139675640
       2        0.000000000000     0.000000000000     0.100154073397


*** tstop() called on Joses-MacBook-Pro-2.local at Thu Jul 17 10:39:29 2025
Module time:
	user time   =       1.23 seconds =       0.02 minutes
	system time =       0.33 seconds =       0.01 minutes
	total time  =          0 seconds =       0.00 minutes
Total time:
	user time   =      17.54 seconds =       0.29 minutes
	system time =      20.57 seconds =       0.34 minutes
	total time  =          4 seconds =       0.07 minutes

    			-----------------------------------------

    			 OPTKING 3.0: for geometry optimizations 

    			     By R.A. King, Bethel University     

    			        with contributions from          

    			    A.V. Copan, J. Cayton, A. Heide      

    			-----------------------------------------

    
	                            ===> Fragment 1 <== 

	 Z (Atomic Numbers)          Masses                          Geom                  
	       8.000000            15.994915          0.00000000  0.00000000  1.81957719   
	      10.000000            19.992440          0.00000000  0.00000000 -1.45574935   

	 - Coordinate -           - BOHR/RAD -       - ANG/DEG -
	 R(1,2)           =         3.275327           1.733228


	        --- Internal Coordinate Step in ANG or DEG, aJ/ANG or AJ/DEG ---
	-------------------------------------------------------------------------------
	           Coordinate      Previous         Force          Change          New 
	           ----------      --------        ------          ------        ------
	               R(1,2)       1.73323        0.82508        0.28873       2.02196
	-------------------------------------------------------------------------------

	                                 ==> Convergence Check <==                                  
    
	Measures of convergence in internal coordinates in au.
    
	Criteria marked as inactive (o), active & met (*), and active & unmet ( ).

	----------------------------------------------------------------------------------------------
	   Step    Total Energy     Delta E     Max Force     RMS Force      Max Disp      RMS Disp   
	----------------------------------------------------------------------------------------------
	  Convergence Criteria     1.00e-06 *    3.00e-04 *             o    1.20e-03 *             o
	----------------------------------------------------------------------------------------------
	     4    -202.89505467   -3.73e-02      1.00e-01      1.00e-01 o    5.46e-01      5.46e-01 o  ~
	----------------------------------------------------------------------------------------------

Next Geometry in Ang 
	Fragment 1 (Ang)

	    O   0.0000000000   0.0000000000   1.1072461414
	   Ne   0.0000000000   0.0000000000  -0.9147167404


    Structure for next step:
    Molecular point group: c2v
    Full point group: C_inf_v

    Geometry (in Angstrom), charge = -1, multiplicity = 4:

    O            0.000000000000     0.000000000000     1.123282669216
    NE           0.000000000000     0.000000000000    -0.898680212590


Scratch directory: /tmp/
gradient() will perform analytic gradient computation.
   => Libint2 <=

    Primary   basis highest AM E, G, H:  6, 6, 3
    Auxiliary basis highest AM E, G, H:  7, 7, 4
    Onebody   basis highest AM E, G, H:  -, -, -
    Solid Harmonics ordering:            Gaussian

*** tstart() called on Joses-MacBook-Pro-2.local
*** at Thu Jul 17 10:39:29 2025

   => Loading Basis Set <=

    Name: CC-PVDZ
    Role: ORBITAL
    Keyword: BASIS
    atoms 1 entry O          line   198 file /Users/joseantoniorodriguesromero/anaconda3/share/psi4/basis/cc-pvdz.gbs 
    atoms 2 entry NE         line   258 file /Users/joseantoniorodriguesromero/anaconda3/share/psi4/basis/cc-pvdz.gbs 


         ---------------------------------------------------------
                                   SCF
               by Justin Turney, Rob Parrish, Andy Simmonett
                          and Daniel G. A. Smith
                              UKS Reference
                        1 Threads,    500 MiB Core
         ---------------------------------------------------------

  ==> Geometry <==

    Molecular point group: c2v
    Full point group: C_inf_v

    Geometry (in Angstrom), charge = -1, multiplicity = 4:

       Center              X                  Y                   Z               Mass       
    ------------   -----------------  -----------------  -----------------  -----------------
         O            0.000000000000     0.000000000000     1.123282669216    15.994914619570
         NE           0.000000000000     0.000000000000    -0.898680212590    19.992440176200

  Running in c2v symmetry.

  Rotational constants: A = ************  B =      0.46404  C =      0.46404 [cm^-1]
  Rotational constants: A = ************  B =  13911.47040  C =  13911.47040 [MHz]
  Nuclear repulsion =   20.937168152061979

  Charge       = -1
  Multiplicity = 4
  Electrons    = 19
  Nalpha       = 11
  Nbeta        = 8

  ==> Algorithm <==

  SCF Algorithm Type is DF.
  DIIS enabled.
  MOM disabled.
  Fractional occupation disabled.
  Guess Type is READ.
  Energy threshold   = 1.00e-08
  Density threshold  = 1.00e-08
  Integral threshold = 1.00e-12

  ==> Primary Basis <==

  Basis Set: CC-PVDZ
    Blend: CC-PVDZ
    Number of shells: 12
    Number of basis functions: 28
    Number of Cartesian functions: 30
    Spherical Harmonics?: true
    Max angular momentum: 2

  ==> DFT Potential <==

   => LibXC <=

    Version 6.2.2
    S. Lehtola, C. Steigemann, M. J.T. Oliveira, and M. A.L. Marques.,  SoftwareX 7, 1–5 (2018) (10.1016/j.softx.2017.11.002)

   => Composite Functional: B3LYP <= 

    B3LYP Hyb-GGA Exchange-Correlation Functional

    P. J. Stephens, F. J. Devlin, C. F. Chabalowski, and M. J. Frisch.,  J. Phys. Chem. 98, 11623 (1994) (10.1021/j100096a001)

    Deriv               =              1
    GGA                 =           TRUE
    Meta                =          FALSE

    Exchange Hybrid     =           TRUE
    MP2 Hybrid          =          FALSE

   => Exchange Functionals <=

    0.0800   Slater exchange
    0.7200         Becke 88

   => Exact (HF) Exchange <=

    0.2000               HF 

   => Correlation Functionals <=

[...]
	               R(1,2)       2.55859        0.00558        0.00339       2.56197
	-------------------------------------------------------------------------------

	                                 ==> Convergence Check <==                                  
    
	Measures of convergence in internal coordinates in au.
    
	Criteria marked as inactive (o), active & met (*), and active & unmet ( ).

	----------------------------------------------------------------------------------------------
	   Step    Total Energy     Delta E     Max Force     RMS Force      Max Disp      RMS Disp   
	----------------------------------------------------------------------------------------------
	  Convergence Criteria     1.00e-06 *    3.00e-04 *             o    1.20e-03 *             o
	----------------------------------------------------------------------------------------------
	     9    -203.03799448   -2.41e-04      6.78e-04      6.78e-04 o    6.40e-03      6.40e-03 o  ~
	----------------------------------------------------------------------------------------------

Next Geometry in Ang 
	Fragment 1 (Ang)

	    O   0.0000000000   0.0000000000   1.4230918622
	   Ne   0.0000000000   0.0000000000  -1.1388805382


    Structure for next step:
    Molecular point group: c2v
    Full point group: C_inf_v

    Geometry (in Angstrom), charge = -1, multiplicity = 4:

    O            0.000000000000     0.000000000000     1.423279933695
    NE           0.000000000000     0.000000000000    -1.138692466681


Scratch directory: /tmp/
gradient() will perform analytic gradient computation.
   => Libint2 <=

    Primary   basis highest AM E, G, H:  6, 6, 3
    Auxiliary basis highest AM E, G, H:  7, 7, 4
    Onebody   basis highest AM E, G, H:  -, -, -
    Solid Harmonics ordering:            Gaussian

*** tstart() called on Joses-MacBook-Pro-2.local
*** at Thu Jul 17 10:39:33 2025

   => Loading Basis Set <=

    Name: CC-PVDZ
    Role: ORBITAL
    Keyword: BASIS
    atoms 1 entry O          line   198 file /Users/joseantoniorodriguesromero/anaconda3/share/psi4/basis/cc-pvdz.gbs 
    atoms 2 entry NE         line   258 file /Users/joseantoniorodriguesromero/anaconda3/share/psi4/basis/cc-pvdz.gbs 


         ---------------------------------------------------------
                                   SCF
               by Justin Turney, Rob Parrish, Andy Simmonett
                          and Daniel G. A. Smith
                              UKS Reference
                        1 Threads,    500 MiB Core
         ---------------------------------------------------------

  ==> Geometry <==

    Molecular point group: c2v
    Full point group: C_inf_v

    Geometry (in Angstrom), charge = -1, multiplicity = 4:

       Center              X                  Y                   Z               Mass       
    ------------   -----------------  -----------------  -----------------  -----------------
         O            0.000000000000     0.000000000000     1.423279933695    15.994914619570
         NE           0.000000000000     0.000000000000    -1.138692466681    19.992440176200

  Running in c2v symmetry.

  Rotational constants: A = ************  B =      0.28903  C =      0.28903 [cm^-1]
  Rotational constants: A = ************  B =   8665.03856  C =   8665.03856 [MHz]
  Nuclear repulsion =   16.524056561807065

  Charge       = -1
  Multiplicity = 4
  Electrons    = 19
  Nalpha       = 11
  Nbeta        = 8

  ==> Algorithm <==

  SCF Algorithm Type is DF.
  DIIS enabled.
  MOM disabled.
  Fractional occupation disabled.
  Guess Type is READ.
  Energy threshold   = 1.00e-08
  Density threshold  = 1.00e-08
  Integral threshold = 1.00e-12

  ==> Primary Basis <==

  Basis Set: CC-PVDZ
    Blend: CC-PVDZ
    Number of shells: 12
    Number of basis functions: 28
    Number of Cartesian functions: 30
    Spherical Harmonics?: true
    Max angular momentum: 2

  ==> DFT Potential <==

   => LibXC <=

    Version 6.2.2
    S. Lehtola, C. Steigemann, M. J.T. Oliveira, and M. A.L. Marques.,  SoftwareX 7, 1–5 (2018) (10.1016/j.softx.2017.11.002)

   => Composite Functional: B3LYP <= 

    B3LYP Hyb-GGA Exchange-Correlation Functional

    P. J. Stephens, F. J. Devlin, C. F. Chabalowski, and M. J. Frisch.,  J. Phys. Chem. 98, 11623 (1994) (10.1021/j100096a001)

    Deriv               =              1
    GGA                 =           TRUE
    Meta                =          FALSE

    Exchange Hybrid     =           TRUE
    MP2 Hybrid          =          FALSE

   => Exchange Functionals <=

    0.0800   Slater exchange
    0.7200         Becke 88

   => Exact (HF) Exchange <=

    0.2000               HF 

   => Correlation Functionals <=

    0.1900   Vosko, Wilk & Nusair (VWN5_RPA)
    0.8100   Lee, Yang & Parr

   => LibXC Density Thresholds  <==

    XC_HYB_GGA_XC_B3LYP:  1.00E-15 

   => Molecular Quadrature <=

    Radial Scheme          =       TREUTLER
    Pruning Scheme         =           NONE
    Nuclear Scheme         =       TREUTLER

    Blocking Scheme        =         OCTREE
    BS radius alpha        =              1
    Pruning alpha          =              1
    Radial Points          =             75
    Spherical Points       =            302
    Total Points           =          42389
    Total Blocks           =            377
    Max Points             =            256
    Max Functions          =             28
    Weights Tolerance      =       1.00E-15

   => Loading Basis Set <=

    Name: (CC-PVDZ AUX)
    Role: JKFIT
    Keyword: DF_BASIS_SCF
    atoms 1 entry O          line   221 file /Users/joseantoniorodriguesromero/anaconda3/share/psi4/basis/cc-pvdz-jkfit.gbs 
    atoms 2 entry NE         line   321 file /Users/joseantoniorodriguesromero/anaconda3/share/psi4/basis/cc-pvdz-jkfit.gbs 

   => Loading Basis Set <=

    Name: CC-PVDZ
    Role: ORBITAL
    Keyword: BASIS
    atoms 1 entry O          line   198 file /Users/joseantoniorodriguesromero/anaconda3/share/psi4/basis/cc-pvdz.gbs 
    atoms 2 entry NE         line   258 file /Users/joseantoniorodriguesromero/anaconda3/share/psi4/basis/cc-pvdz.gbs 

  Reading orbitals from file /tmp/quartet_ONe.default.72706.180.npy, no projection.

  ==> Integral Setup <==

  DFHelper Memory: AOs need 0.001 GiB; user supplied 0.337 GiB. 
  Using in-core AOs.

  ==> MemDFJK: Density-Fitted J/K Matrices <==

    J tasked:                   Yes
    K tasked:                   Yes
    wK tasked:                   No
    OpenMP threads:               1
    Memory [MiB]:               345
    Algorithm:                 Core
    Schwarz Cutoff:           1E-12
    Mask sparsity (%):       0.0000
    Fitting Condition:        1E-10

   => Auxiliary Basis Set <=

  Basis Set: (CC-PVDZ AUX)
    Blend: CC-PVDZ-JKFIT
    Number of shells: 48
    Number of basis functions: 140
    Number of Cartesian functions: 162
    Spherical Harmonics?: true
    Max angular momentum: 3

  Cached 100.0% of DFT collocation blocks in 0.029 [GiB].

  Minimum eigenvalue in the overlap matrix is 1.8451679876E-01.
  Reciprocal condition number of the overlap matrix is 1.0730049985E-01.
    Using symmetric orthogonalization.

  ==> Pre-Iterations <==

  SCF Guess: Orbitals guess was supplied from a previous computation.

   -------------------------------------------------------
    Irrep   Nso     Nmo     Nalpha   Nbeta   Ndocc  Nsocc
   -------------------------------------------------------
     A1        14      14       7       5       5       2
     A2         2       2       0       0       0       0
     B1         6       6       2       1       1       1
     B2         6       6       2       2       2       0
   -------------------------------------------------------
    Total      28      28      11       8       8       3
   -------------------------------------------------------

  ==> Iterations <==

                           Total Energy        Delta E     RMS |[F,P]|

   @DF-UKS iter   0:  -203.03830302441671   -2.03038e+02   7.77287e-05 
   @DF-UKS iter   1:  -203.03799684436314    3.06180e-04   1.21975e-05 DIIS
   @DF-UKS iter   2:  -203.03799685026365   -5.90052e-09   1.11109e-05 DIIS/DAMP=1%
   @DF-UKS iter   3:  -203.03799954433597   -2.69407e-06   1.12458e-06 DIIS/DAMP=1%
   @DF-UKS iter   4:  -203.03799628042805    3.26391e-06   5.27476e-07 DIIS/DAMP=1%
   @DF-UKS iter   5:  -203.03799711041347   -8.29985e-07   1.02223e-07 DIIS/DAMP=1%
   @DF-UKS iter   6:  -203.03799684926989    2.61144e-07   2.74184e-08 DIIS/DAMP=1%
   @DF-UKS iter   7:  -203.03799686386492   -1.45950e-08   7.82497e-09 DIIS/DAMP=1%
   @DF-UKS iter   8:  -203.03799685948894    4.37598e-09   7.50150e-10 DIIS/DAMP=1%
  Energy and wave function converged.


  ==> Post-Iterations <==

   Electrons on quadrature grid:
      Nalpha   =   11.0000005859 ; deviation = 5.859e-07
      Nbeta    =    8.0000003333 ; deviation = 3.333e-07
      Ntotal   =   19.0000009192 ; deviation = 9.192e-07 

   @Spin Contamination Metric:   2.413785540E-03
   @S^2 Expected:                3.750000000E+00
   @S^2 Observed:                3.752413786E+00
   @S   Expected:                1.500000000E+00
   @S   Observed:                1.500000000E+00

    Orbital Energies [Eh]
    ---------------------

    Alpha Occupied:                                                       

       1A1   -30.692601     2A1   -18.682582     3A1    -1.172762  
       4A1    -0.536660     1B1    -0.283222     1B2    -0.282969  
       5A1    -0.280081     6A1     0.008215     2B1     0.017215  
       2B2     0.087541     7A1     1.087241  

    Alpha Virtual:                                                        

       3B1     1.219249     3B2     1.268332     8A1     1.436103  
       4B1     1.608822     4B2     1.609690     9A1     1.704880  
      10A1     2.114328     5B1     2.917431    11A1     2.917893  
       1A2     2.954150     5B2     2.973467    12A1     2.983995  
       2A2     4.983416    13A1     4.983440     6B1     4.988284  
       6B2     4.988435    14A1     4.991614  

    Beta Occupied:                                                        

       1A1   -30.688374     2A1   -18.612137     3A1    -1.168284  
       4A1    -0.366525     1B1    -0.280868     1B2    -0.280651  
       5A1    -0.267038     2B2     0.145164  

    Beta Virtual:                                                         

       2B1     0.285548     6A1     0.331326     3B2     1.318659  
       7A1     1.355796     3B1     1.355849     8A1     1.550423  
       4B1     1.612072     4B2     1.612228     9A1     1.747439  
      10A1     2.131578     1A2     3.042892    11A1     3.052833  
       5B2     3.073741     5B1     3.096303    12A1     3.105970  
       2A2     4.984482    13A1     4.984507     6B1     4.992001  
       6B2     4.992139    14A1     4.996220  

    Final Occupation by Irrep:
             A1    A2    B1    B2 
    DOCC [     5,    0,    1,    2 ]
    SOCC [     2,    0,    1,    0 ]
    NA   [     7,    0,    2,    2 ]
    NB   [     5,    0,    1,    2 ]

  @DF-UKS Final Energy:  -203.03799685948894

   => Energetics <=

    Nuclear Repulsion Energy =             16.5240565618070647
    One-Electron Energy =                -324.4499402374897272
    Two-Electron Energy =                 122.2241758136221961
    DFT Exchange-Correlation Energy =     -17.3362889974284897
    Empirical Dispersion Energy =           0.0000000000000000
    VV10 Nonlocal Energy =                  0.0000000000000000
    Total Energy =                       -203.0379968594889419

  UHF NO Occupations:
  HONO-2 :    6 A1 1.0000000
  HONO-1 :    7 A1 1.0000000
  HONO-0 :    2 B1 1.0000000
  LUNO+0 :    8 A1 0.0008794
  LUNO+1 :    3 B2 0.0003145
  LUNO+2 :    9 A1 0.0000118
  LUNO+3 :    3 B1 0.0000006


Computation Completed


Properties will be evaluated at   0.000000,   0.000000,   0.000000 [a0]

Properties computed using the SCF density matrix


 Multipole Moments:

 ------------------------------------------------------------------------------------
     Multipole            Electronic (a.u.)      Nuclear  (a.u.)        Total (a.u.)
 ------------------------------------------------------------------------------------

 L = 1.  Multiply by 2.5417464519 to convert [e a0] to [Debye]
 Dipole X            :          0.0000000            0.0000000            0.0000000
 Dipole Y            :          0.0000000            0.0000000            0.0000000
 Dipole Z            :         -2.2225180           -0.0012948           -2.2238128
 Magnitude           :                                                    2.2238128

 ------------------------------------------------------------------------------------

*** tstop() called on Joses-MacBook-Pro-2.local at Thu Jul 17 10:39:34 2025
Module time:
	user time   =       2.62 seconds =       0.04 minutes
	system time =       2.93 seconds =       0.05 minutes
	total time  =          1 seconds =       0.02 minutes
Total time:
	user time   =      39.35 seconds =       0.66 minutes
	system time =      48.06 seconds =       0.80 minutes
	total time  =          9 seconds =       0.15 minutes

*** tstart() called on Joses-MacBook-Pro-2.local
*** at Thu Jul 17 10:39:34 2025


         ------------------------------------------------------------
                                   SCF GRAD                          
                          Rob Parrish, Justin Turney,                
                       Andy Simmonett, and Alex Sokolov              
         ------------------------------------------------------------

  ==> Geometry <==

    Molecular point group: c2v
    Full point group: C_inf_v

    Geometry (in Angstrom), charge = -1, multiplicity = 4:

       Center              X                  Y                   Z               Mass       
    ------------   -----------------  -----------------  -----------------  -----------------
         O            0.000000000000     0.000000000000     1.423279933695    15.994914619570
         NE           0.000000000000     0.000000000000    -1.138692466681    19.992440176200

  Nuclear repulsion =   16.524056561807065

  ==> Basis Set <==

  Basis Set: CC-PVDZ
    Blend: CC-PVDZ
    Number of shells: 12
    Number of basis functions: 28
    Number of Cartesian functions: 30
    Spherical Harmonics?: true
    Max angular momentum: 2

  ==> DFJKGrad: Density-Fitted SCF Gradients <==

    Gradient:                    1
    J tasked:                  Yes
    K tasked:                  Yes
    wK tasked:                  No
    OpenMP threads:              1
    Integrals threads:           1
    Memory [MiB]:              375
    Schwarz Cutoff:          1E-12
    Fitting Condition:       1E-10

   => Auxiliary Basis Set <=

  Basis Set: (CC-PVDZ AUX)
    Blend: CC-PVDZ-JKFIT
    Number of shells: 48
    Number of basis functions: 140
    Number of Cartesian functions: 162
    Spherical Harmonics?: true
    Max angular momentum: 3

  ==> DFT Potential <==

   => LibXC <=

    Version 6.2.2
    S. Lehtola, C. Steigemann, M. J.T. Oliveira, and M. A.L. Marques.,  SoftwareX 7, 1–5 (2018) (10.1016/j.softx.2017.11.002)

   => Composite Functional: B3LYP <= 

    B3LYP Hyb-GGA Exchange-Correlation Functional

    P. J. Stephens, F. J. Devlin, C. F. Chabalowski, and M. J. Frisch.,  J. Phys. Chem. 98, 11623 (1994) (10.1021/j100096a001)

    Deriv               =              1
    GGA                 =           TRUE
    Meta                =          FALSE

    Exchange Hybrid     =           TRUE
    MP2 Hybrid          =          FALSE

   => Exchange Functionals <=

    0.0800   Slater exchange
    0.7200         Becke 88

   => Exact (HF) Exchange <=

    0.2000               HF 

   => Correlation Functionals <=

    0.1900   Vosko, Wilk & Nusair (VWN5_RPA)
    0.8100   Lee, Yang & Parr

   => LibXC Density Thresholds  <==

    XC_HYB_GGA_XC_B3LYP:  1.00E-15 

   => Molecular Quadrature <=

    Radial Scheme          =       TREUTLER
    Pruning Scheme         =           NONE
    Nuclear Scheme         =       TREUTLER

    Blocking Scheme        =         OCTREE
    BS radius alpha        =              1
    Pruning alpha          =              1
    Radial Points          =             75
    Spherical Points       =            302
    Total Points           =          42389
    Total Blocks           =            377
    Max Points             =            256
    Max Functions          =             28
    Weights Tolerance      =       1.00E-15


  -Total Gradient:
     Atom            X                  Y                   Z
    ------   -----------------  -----------------  -----------------
       1        0.000000000000     0.000000000000    -0.000062083467
       2        0.000000000000    -0.000000000000     0.000078965883


*** tstop() called on Joses-MacBook-Pro-2.local at Thu Jul 17 10:39:34 2025
Module time:
	user time   =       0.69 seconds =       0.01 minutes
	system time =       0.84 seconds =       0.01 minutes
	total time  =          0 seconds =       0.00 minutes
Total time:
	user time   =      40.07 seconds =       0.67 minutes
	system time =      48.90 seconds =       0.81 minutes
	total time  =          9 seconds =       0.15 minutes

    			-----------------------------------------

    			 OPTKING 3.0: for geometry optimizations 

    			     By R.A. King, Bethel University     

    			        with contributions from          

    			    A.V. Copan, J. Cayton, A. Heide      

    			-----------------------------------------

    
	                            ===> Fragment 1 <== 

	 Z (Atomic Numbers)          Masses                          Geom                  
	       8.000000            15.994915          0.00000000  0.00000000  2.68960927   
	      10.000000            19.992440          0.00000000  0.00000000 -2.15181690   

	 - Coordinate -           - BOHR/RAD -       - ANG/DEG -
	 R(1,2)           =         4.841426           2.561972


	        --- Internal Coordinate Step in ANG or DEG, aJ/ANG or AJ/DEG ---
	-------------------------------------------------------------------------------
	           Coordinate      Previous         Force          Change          New 
	           ----------      --------        ------          ------        ------
	               R(1,2)       2.56197        0.00058        0.00035       2.56233
	-------------------------------------------------------------------------------

	                                 ==> Convergence Check <==                                  
    
	Measures of convergence in internal coordinates in au.
    
	Criteria marked as inactive (o), active & met (*), and active & unmet ( ).

	----------------------------------------------------------------------------------------------
	   Step    Total Energy     Delta E     Max Force     RMS Force      Max Disp      RMS Disp   
	----------------------------------------------------------------------------------------------
	  Convergence Criteria     1.00e-06 *    3.00e-04 *             o    1.20e-03 *             o
	----------------------------------------------------------------------------------------------
	    10    -203.03799686   -2.38e-06      7.05e-05 *    7.05e-05 o    6.70e-04 *    6.70e-04 o  ~
	----------------------------------------------------------------------------------------------

Next Geometry in Ang 
	Fragment 1 (Ang)

	    O   0.0000000000   0.0000000000   1.4234572139
	   Ne   0.0000000000   0.0000000000  -1.1388697469


    Final optimized geometry and variables:
    Molecular point group: c2v
    Full point group: C_inf_v

    Geometry (in Angstrom), charge = -1, multiplicity = 4:

    O            0.000000000000     0.000000000000     1.423279933695
    NE           0.000000000000     0.000000000000    -1.138692466681


    Psi4 stopped on: Thursday, 17 July 2025 10:39AM
    Psi4 wall time for execution: 0:00:09.56

*** Psi4 exiting successfully. Buy a developer a beer!
