
    -----------------------------------------------------------------------
          Psi4: An Open-Source Ab Initio Electronic Structure Package
                               Psi4 1.9.1 release

                         Git: Rev {} zzzzzzz 


    D. G. A. Smith, L. A. Burns, A. C. Simmonett, R. M. Parrish,
    M. C. Schieber, R. Galvelis, P. Kraus, H. Kruse, R. Di Remigio,
    A. Alenaizan, A. M. James, S. Lehtola, J. P. Misiewicz, M. Scheurer,
    R. A. Shaw, J. B. Schriber, Y. Xie, Z. L. Glick, D. A. Sirianni,
    J. S. O'Brien, J. M. Waldrop, A. Kumar, E. G. Hohenstein,
    B. P. Pritchard, B. R. Brooks, H. F. Schaefer III, A. Yu. Sokolov,
    K. Patkowski, A. E. DePrince III, U. Bozkaya, R. A. King,
    F. A. Evangelista, J. M. Turney, T. D. Crawford, C. D. Sherrill,
    J. Chem. Phys. 152(18) 184108 (2020). https://doi.org/10.1063/5.0006002

                            Additional Code Authors
    E. T. Seidl, C. L. Janssen, E. F. Valeev, M. L. Leininger,
    J. F. Gonthier, R. M. Richard, H. R. McAlexander, M. Saitow, X. Wang,
    P. Verma, M. H. Lechner, A. Jiang, S. Behnle, A. G. Heide,
    M. F. Herbst, and D. L. Poole

             Previous Authors, Complete List of Code Contributors,
                       and Citations for Specific Modules
    https://github.com/psi4/psi4/blob/master/codemeta.json
    https://github.com/psi4/psi4/graphs/contributors
    http://psicode.org/psi4manual/master/introduction.html#citing-psifour

    -----------------------------------------------------------------------


    Psi4 started on: Thursday, 17 July 2025 10:57AM

    Process ID: 72898
    Host:       Joses-MacBook-Pro-2.local
    PSIDATADIR: /Users/joseantoniorodriguesromero/anaconda3/share/psi4
    Memory:     500.0 MiB
    Threads:    1
    
  ==> Input File <==

--------------------------------------------------------------------------
molecule { 
-1 4
Ne   0.00000        0.60000        0.00000
Ne   0.00000       -0.60000        0.00000
}

set { 
basis              cc-pvdz
reference          uks
maxiter            500
geom_maxiter       500
DAMPING_PERCENTAGE 1
guess              SAP
}

optimize('b3lyp')
--------------------------------------------------------------------------

Scratch directory: /tmp/
gradient() will perform analytic gradient computation.
   => Libint2 <=

    Primary   basis highest AM E, G, H:  6, 6, 3
    Auxiliary basis highest AM E, G, H:  7, 7, 4
    Onebody   basis highest AM E, G, H:  -, -, -
    Solid Harmonics ordering:            Gaussian

*** tstart() called on Joses-MacBook-Pro-2.local
*** at Thu Jul 17 10:57:25 2025

   => Loading Basis Set <=

    Name: CC-PVDZ
    Role: ORBITAL
    Keyword: BASIS
    atoms 1-2 entry NE         line   258 file /Users/joseantoniorodriguesromero/anaconda3/share/psi4/basis/cc-pvdz.gbs 


         ---------------------------------------------------------
                                   SCF
               by Justin Turney, Rob Parrish, Andy Simmonett
                          and Daniel G. A. Smith
                              UKS Reference
                        1 Threads,    500 MiB Core
         ---------------------------------------------------------

  ==> Geometry <==

    Molecular point group: d2h
    Full point group: D_inf_h

    Geometry (in Angstrom), charge = -1, multiplicity = 4:

       Center              X                  Y                   Z               Mass       
    ------------   -----------------  -----------------  -----------------  -----------------
         NE          -0.000000000000     0.600000000000     0.000000000000    19.992440176200
         NE           0.000000000000    -0.600000000000     0.000000000000    19.992440176200

  Running in d2h symmetry.

  Rotational constants: A = ************  B =      1.17111  C =      1.17111 [cm^-1]
  Rotational constants: A = ************  B =  35109.03541  C =  35109.03541 [MHz]
  Nuclear repulsion =   44.098100889166673

  Charge       = -1
  Multiplicity = 4
  Electrons    = 21
  Nalpha       = 12
  Nbeta        = 9

  ==> Algorithm <==

  SCF Algorithm Type is DF.
  DIIS enabled.
  MOM disabled.
  Fractional occupation disabled.
  Guess Type is SAP.
  Energy threshold   = 1.00e-08
  Density threshold  = 1.00e-08
  Integral threshold = 1.00e-12

  ==> Primary Basis <==

  Basis Set: CC-PVDZ
    Blend: CC-PVDZ
    Number of shells: 12
    Number of basis functions: 28
    Number of Cartesian functions: 30
    Spherical Harmonics?: true
    Max angular momentum: 2

  ==> DFT Potential <==

   => LibXC <=

    Version 6.2.2
    S. Lehtola, C. Steigemann, M. J.T. Oliveira, and M. A.L. Marques.,  SoftwareX 7, 1–5 (2018) (10.1016/j.softx.2017.11.002)

   => Composite Functional: B3LYP <= 

    B3LYP Hyb-GGA Exchange-Correlation Functional

    P. J. Stephens, F. J. Devlin, C. F. Chabalowski, and M. J. Frisch.,  J. Phys. Chem. 98, 11623 (1994) (10.1021/j100096a001)

    Deriv               =              1
    GGA                 =           TRUE
    Meta                =          FALSE

    Exchange Hybrid     =           TRUE
    MP2 Hybrid          =          FALSE

   => Exchange Functionals <=

    0.0800   Slater exchange
    0.7200         Becke 88

   => Exact (HF) Exchange <=

    0.2000               HF 

   => Correlation Functionals <=

    0.1900   Vosko, Wilk & Nusair (VWN5_RPA)
    0.8100   Lee, Yang & Parr

   => LibXC Density Thresholds  <==

    XC_HYB_GGA_XC_B3LYP:  1.00E-15 

   => Molecular Quadrature <=

    Radial Scheme          =       TREUTLER
    Pruning Scheme         =           NONE
    Nuclear Scheme         =       TREUTLER

    Blocking Scheme        =         OCTREE
    BS radius alpha        =              1
    Pruning alpha          =              1
    Radial Points          =             75
    Spherical Points       =            302
    Total Points           =          41868
    Total Blocks           =            370
    Max Points             =            256
    Max Functions          =             28
    Weights Tolerance      =       1.00E-15

   => Loading Basis Set <=

    Name: (CC-PVDZ AUX)
    Role: JKFIT
    Keyword: DF_BASIS_SCF
    atoms 1-2 entry NE         line   321 file /Users/joseantoniorodriguesromero/anaconda3/share/psi4/basis/cc-pvdz-jkfit.gbs 

  ==> Integral Setup <==

  DFHelper Memory: AOs need 0.001 GiB; user supplied 0.333 GiB. 
  Using in-core AOs.

  ==> MemDFJK: Density-Fitted J/K Matrices <==

    J tasked:                   Yes
    K tasked:                   Yes
    wK tasked:                   No
    OpenMP threads:               1
    Memory [MiB]:               341
    Algorithm:                 Core
    Schwarz Cutoff:           1E-12
    Mask sparsity (%):       0.0000
    Fitting Condition:        1E-10

   => Auxiliary Basis Set <=

  Basis Set: (CC-PVDZ AUX)
    Blend: CC-PVDZ-JKFIT
    Number of shells: 48
    Number of basis functions: 140
    Number of Cartesian functions: 162
    Spherical Harmonics?: true
    Max angular momentum: 3

  Cached 100.0% of DFT collocation blocks in 0.033 [GiB].

  Minimum eigenvalue in the overlap matrix is 7.1114447663E-02.
  Reciprocal condition number of the overlap matrix is 3.0812554219E-02.
    Using symmetric orthogonalization.

  ==> Pre-Iterations <==

  SCF Guess: Superposition of Atomic Potentials (doi:10.1021/acs.jctc.8b01089).

  ==> SAP guess <==

   => Molecular Quadrature <=

    Radial Scheme          =       TREUTLER
    Pruning Scheme         =           NONE
    Nuclear Scheme         =       TREUTLER

    Blocking Scheme        =         OCTREE
    BS radius alpha        =              1
    Pruning alpha          =              1
    Radial Points          =             75
    Spherical Points       =            302
    Total Points           =          41868
    Total Blocks           =            370
    Max Points             =            256
    Max Functions          =             28
    Weights Tolerance      =       1.00E-15

   -------------------------------------------------------
    Irrep   Nso     Nmo     Nalpha   Nbeta   Ndocc  Nsocc
   -------------------------------------------------------
     Ag         7       7       3       3       3       0
     B1g        3       3       1       1       1       0
     B2g        1       1       0       0       0       0
     B3g        3       3       1       1       1       0
     Au         1       1       0       0       0       0
     B1u        3       3       2       1       1       1
     B2u        7       7       3       2       2       1
     B3u        3       3       2       1       1       1
   -------------------------------------------------------
    Total      28      28      12       9       9       3
   -------------------------------------------------------

  ==> Iterations <==

                           Total Energy        Delta E     RMS |[F,P]|

   @DF-UKS iter   1:  -254.42710049262519   -2.54427e+02   4.59908e-02 DIIS/ADIIS
   @DF-UKS iter   2:  -254.46659154107354   -3.94910e-02   3.38843e-02 DIIS/ADIIS/DAMP=1%
   @DF-UKS iter   3:  -254.49057802108675   -2.39865e-02   3.52120e-03 DIIS/ADIIS/DAMP=1%
   @DF-UKS iter   4:  -254.50686662440029   -1.62886e-02   5.04935e-04 DIIS/ADIIS/DAMP=1%
   @DF-UKS iter   5:  -254.50528009395921    1.58653e-03   4.44848e-05 DIIS/DAMP=1%
   @DF-UKS iter   6:  -254.50543504942669   -1.54955e-04   4.04572e-06 DIIS/DAMP=1%
   @DF-UKS iter   7:  -254.50543546703452   -4.17608e-07   3.24232e-07 DIIS/DAMP=1%
   @DF-UKS iter   8:  -254.50543381396497    1.65307e-06   6.68639e-08 DIIS/DAMP=1%
   @DF-UKS iter   9:  -254.50543395365975   -1.39695e-07   1.64189e-09 DIIS/DAMP=1%
   @DF-UKS iter  10:  -254.50543393126785    2.23919e-08   1.95233e-10 DIIS/DAMP=1%
   @DF-UKS iter  11:  -254.50543393177631   -5.08464e-10   6.33703e-12 DIIS/DAMP=1%
  Energy and wave function converged.


  ==> Post-Iterations <==

   Electrons on quadrature grid:
      Nalpha   =   12.0000025863 ; deviation = 2.586e-06
      Nbeta    =    9.0000008530 ; deviation = 8.530e-07
      Ntotal   =   21.0000034394 ; deviation = 3.439e-06 

   @Spin Contamination Metric:   3.160648143E-03
   @S^2 Expected:                3.750000000E+00
   @S^2 Observed:                3.753160648E+00
   @S   Expected:                1.500000000E+00
   @S   Observed:                1.500000000E+00

    Orbital Energies [Eh]
    ---------------------

    Alpha Occupied:                                                       

       1Ag   -30.401738     1B2u  -30.401733     2Ag    -1.251026  
       2B2u   -0.904579     3Ag    -0.356107     1B1u   -0.239496  
       1B3u   -0.239496     1B3g   -0.052073     1B1g   -0.052073  
       3B2u    0.169202     2B3u    1.573124     2B1u    1.573124  

    Alpha Virtual:                                                        

       4B2u    1.627879     2B1g    1.855298     2B3g    1.855298  
       4Ag     1.923349     5Ag     2.291108     5B2u    2.941982  
       6Ag     4.577199     3B3u    4.807979     3B1u    4.807979  
       7Ag     5.115091     1B2g    5.115099     6B2u    5.191195  
       1Au     5.191202     3B1g    5.482227     3B3g    5.482227  
       7B2u    6.513808  

    Beta Occupied:                                                        

       1Ag   -30.335593     1B2u  -30.335570     2Ag    -1.153543  
       2B2u   -0.818042     3Ag    -0.233728     1B1u   -0.153450  
       1B3u   -0.153450     1B3g    0.039824     1B1g    0.039824  

    Beta Virtual:                                                         

       3B2u    0.429066     4B2u    1.709510     2B3u    1.769306  
       2B1u    1.769306     2B1g    1.960714     2B3g    1.960714  
       4Ag     2.002569     5Ag     2.424801     5B2u    3.025904  
       6Ag     4.648513     3B3u    4.876086     3B1u    4.876086  
       7Ag     5.159165     1B2g    5.159171     6B2u    5.235556  
       1Au     5.235562     3B1g    5.557972     3B3g    5.557972  
       7B2u    6.603863  

    Final Occupation by Irrep:
             Ag   B1g   B2g   B3g    Au   B1u   B2u   B3u 
    DOCC [     3,    1,    0,    1,    0,    1,    2,    1 ]
    SOCC [     0,    0,    0,    0,    0,    1,    1,    1 ]
    NA   [     3,    1,    0,    1,    0,    2,    3,    2 ]
    NB   [     3,    1,    0,    1,    0,    1,    2,    1 ]

  @DF-UKS Final Energy:  -254.50543393177631

   => Energetics <=

    Nuclear Repulsion Energy =             44.0981008891666733
    One-Electron Energy =                -458.6080146030123501
    Two-Electron Energy =                 180.8648974381862899
    DFT Exchange-Correlation Energy =     -20.8604176561169474
    Empirical Dispersion Energy =           0.0000000000000000
    VV10 Nonlocal Energy =                  0.0000000000000000
    Total Energy =                       -254.5054339317763095

  UHF NO Occupations:
  HONO-2 :    2B1u 1.0000000
  HONO-1 :    2B3u 1.0000000
  HONO-0 :    3B2u 1.0000000
  LUNO+0 :    2B1g 0.0004947
  LUNO+1 :    2B3g 0.0004947
  LUNO+2 :    4 Ag 0.0004100
  LUNO+3 :    4B2u 0.0000906


Computation Completed


Properties will be evaluated at   0.000000,   0.000000,   0.000000 [a0]

Properties computed using the SCF density matrix


 Multipole Moments:

 ------------------------------------------------------------------------------------
     Multipole            Electronic (a.u.)      Nuclear  (a.u.)        Total (a.u.)
 ------------------------------------------------------------------------------------

 L = 1.  Multiply by 2.5417464519 to convert [e a0] to [Debye]
 Dipole X            :          0.0000000            0.0000000            0.0000000
 Dipole Y            :          0.0000000            0.0000000            0.0000000
 Dipole Z            :          0.0000000            0.0000000            0.0000000
 Magnitude           :                                                    0.0000000

 ------------------------------------------------------------------------------------

*** tstop() called on Joses-MacBook-Pro-2.local at Thu Jul 17 10:57:26 2025
Module time:
	user time   =       4.91 seconds =       0.08 minutes
	system time =       2.68 seconds =       0.04 minutes
	total time  =          1 seconds =       0.02 minutes
Total time:
	user time   =       4.91 seconds =       0.08 minutes
	system time =       2.68 seconds =       0.04 minutes
	total time  =          1 seconds =       0.02 minutes

*** tstart() called on Joses-MacBook-Pro-2.local
*** at Thu Jul 17 10:57:26 2025


         ------------------------------------------------------------
                                   SCF GRAD                          
                          Rob Parrish, Justin Turney,                
                       Andy Simmonett, and Alex Sokolov              
         ------------------------------------------------------------

  ==> Geometry <==

    Molecular point group: d2h
    Full point group: D_inf_h

    Geometry (in Angstrom), charge = -1, multiplicity = 4:

       Center              X                  Y                   Z               Mass       
    ------------   -----------------  -----------------  -----------------  -----------------
         NE          -0.000000000000     0.600000000000     0.000000000000    19.992440176200
         NE           0.000000000000    -0.600000000000     0.000000000000    19.992440176200

  Nuclear repulsion =   44.098100889166673

  ==> Basis Set <==

  Basis Set: CC-PVDZ
    Blend: CC-PVDZ
    Number of shells: 12
    Number of basis functions: 28
    Number of Cartesian functions: 30
    Spherical Harmonics?: true
    Max angular momentum: 2

  ==> DFJKGrad: Density-Fitted SCF Gradients <==

    Gradient:                    1
    J tasked:                  Yes
    K tasked:                  Yes
    wK tasked:                  No
    OpenMP threads:              1
    Integrals threads:           1
    Memory [MiB]:              375
    Schwarz Cutoff:          1E-12
    Fitting Condition:       1E-10

   => Auxiliary Basis Set <=

  Basis Set: (CC-PVDZ AUX)
    Blend: CC-PVDZ-JKFIT
    Number of shells: 48
    Number of basis functions: 140
    Number of Cartesian functions: 162
    Spherical Harmonics?: true
    Max angular momentum: 3

  ==> DFT Potential <==

   => LibXC <=

    Version 6.2.2
    S. Lehtola, C. Steigemann, M. J.T. Oliveira, and M. A.L. Marques.,  SoftwareX 7, 1–5 (2018) (10.1016/j.softx.2017.11.002)

   => Composite Functional: B3LYP <= 

    B3LYP Hyb-GGA Exchange-Correlation Functional

    P. J. Stephens, F. J. Devlin, C. F. Chabalowski, and M. J. Frisch.,  J. Phys. Chem. 98, 11623 (1994) (10.1021/j100096a001)

    Deriv               =              1
    GGA                 =           TRUE
    Meta                =          FALSE

    Exchange Hybrid     =           TRUE
    MP2 Hybrid          =          FALSE

   => Exchange Functionals <=

    0.0800   Slater exchange
    0.7200         Becke 88

   => Exact (HF) Exchange <=

    0.2000               HF 

   => Correlation Functionals <=

    0.1900   Vosko, Wilk & Nusair (VWN5_RPA)
    0.8100   Lee, Yang & Parr

   => LibXC Density Thresholds  <==

    XC_HYB_GGA_XC_B3LYP:  1.00E-15 

   => Molecular Quadrature <=

    Radial Scheme          =       TREUTLER
    Pruning Scheme         =           NONE
    Nuclear Scheme         =       TREUTLER

    Blocking Scheme        =         OCTREE
    BS radius alpha        =              1
    Pruning alpha          =              1
    Radial Points          =             75
    Spherical Points       =            302
    Total Points           =          41868
    Total Blocks           =            370
    Max Points             =            256
    Max Functions          =             28
    Weights Tolerance      =       1.00E-15


  -Total Gradient:
     Atom            X                  Y                   Z
    ------   -----------------  -----------------  -----------------
       1        0.000000000000    -1.002510780940     0.000000000000
       2       -0.000000000000     1.002510780940     0.000000000000


*** tstop() called on Joses-MacBook-Pro-2.local at Thu Jul 17 10:57:26 2025
Module time:
	user time   =       1.04 seconds =       0.02 minutes
	system time =       0.59 seconds =       0.01 minutes
	total time  =          0 seconds =       0.00 minutes
Total time:
	user time   =       5.95 seconds =       0.10 minutes
	system time =       3.27 seconds =       0.05 minutes
	total time  =          1 seconds =       0.02 minutes

    			-----------------------------------------

    			 OPTKING 3.0: for geometry optimizations 

    			     By R.A. King, Bethel University     

    			        with contributions from          

    			    A.V. Copan, J. Cayton, A. Heide      

    			-----------------------------------------

    
	                            ===> Fragment 1 <== 

	 Z (Atomic Numbers)          Masses                          Geom                  
	      10.000000            19.992440         -0.00000000  1.13383568  0.00000000   
	      10.000000            19.992440          0.00000000 -1.13383568  0.00000000   

	 - Coordinate -           - BOHR/RAD -       - ANG/DEG -
	 R(1,2)           =         2.267671           1.200000


	        --- Internal Coordinate Step in ANG or DEG, aJ/ANG or AJ/DEG ---
	-------------------------------------------------------------------------------
	           Coordinate      Previous         Force          Change          New 
	           ----------      --------        ------          ------        ------
	               R(1,2)       1.20000        8.25941        0.26459       1.46459
	-------------------------------------------------------------------------------

	                                 ==> Convergence Check <==                                  
    
	Measures of convergence in internal coordinates in au.
    
	Criteria marked as inactive (o), active & met (*), and active & unmet ( ).

	----------------------------------------------------------------------------------------------
	   Step    Total Energy     Delta E     Max Force     RMS Force      Max Disp      RMS Disp   
	----------------------------------------------------------------------------------------------
	  Convergence Criteria     1.00e-06 *    3.00e-04 *             o    1.20e-03 *             o
	----------------------------------------------------------------------------------------------
	     1    -254.50543393   -2.55e+02      1.00e+00      1.00e+00 o    5.00e-01      5.00e-01 o  ~
	----------------------------------------------------------------------------------------------

Next Geometry in Ang 
	Fragment 1 (Ang)

	   Ne  -0.0000000000   0.7322967252   0.0000000000
	   Ne   0.0000000000  -0.7322967252   0.0000000000


    Structure for next step:
    Molecular point group: d2h
    Full point group: D_inf_h

    Geometry (in Angstrom), charge = -1, multiplicity = 4:

    NE          -0.000000000000     0.732296725151     0.000000000000
    NE           0.000000000000    -0.732296725151     0.000000000000


Scratch directory: /tmp/
gradient() will perform analytic gradient computation.
   => Libint2 <=

    Primary   basis highest AM E, G, H:  6, 6, 3
    Auxiliary basis highest AM E, G, H:  7, 7, 4
    Onebody   basis highest AM E, G, H:  -, -, -
    Solid Harmonics ordering:            Gaussian

*** tstart() called on Joses-MacBook-Pro-2.local
*** at Thu Jul 17 10:57:26 2025

   => Loading Basis Set <=

    Name: CC-PVDZ
    Role: ORBITAL
    Keyword: BASIS
    atoms 1-2 entry NE         line   258 file /Users/joseantoniorodriguesromero/anaconda3/share/psi4/basis/cc-pvdz.gbs 


         ---------------------------------------------------------
                                   SCF
               by Justin Turney, Rob Parrish, Andy Simmonett
                          and Daniel G. A. Smith
                              UKS Reference
                        1 Threads,    500 MiB Core
         ---------------------------------------------------------

  ==> Geometry <==

    Molecular point group: d2h
    Full point group: D_inf_h

    Geometry (in Angstrom), charge = -1, multiplicity = 4:

       Center              X                  Y                   Z               Mass       
    ------------   -----------------  -----------------  -----------------  -----------------
         NE          -0.000000000000     0.732296725151     0.000000000000    19.992440176200
         NE           0.000000000000    -0.732296725151     0.000000000000    19.992440176200

  Running in d2h symmetry.

  Rotational constants: A = ************  B =      0.78619  C =      0.78619 [cm^-1]
  Rotational constants: A = ************  B =  23569.32878  C =  23569.32878 [MHz]
  Nuclear repulsion =   36.131338055700162

  Charge       = -1
  Multiplicity = 4
  Electrons    = 21
  Nalpha       = 12
  Nbeta        = 9

  ==> Algorithm <==

  SCF Algorithm Type is DF.
  DIIS enabled.
  MOM disabled.
  Fractional occupation disabled.
  Guess Type is READ.
  Energy threshold   = 1.00e-08
  Density threshold  = 1.00e-08
  Integral threshold = 1.00e-12

  ==> Primary Basis <==

  Basis Set: CC-PVDZ
    Blend: CC-PVDZ
    Number of shells: 12
    Number of basis functions: 28
    Number of Cartesian functions: 30
    Spherical Harmonics?: true
    Max angular momentum: 2

  ==> DFT Potential <==

   => LibXC <=

    Version 6.2.2
    S. Lehtola, C. Steigemann, M. J.T. Oliveira, and M. A.L. Marques.,  SoftwareX 7, 1–5 (2018) (10.1016/j.softx.2017.11.002)

   => Composite Functional: B3LYP <= 

    B3LYP Hyb-GGA Exchange-Correlation Functional

    P. J. Stephens, F. J. Devlin, C. F. Chabalowski, and M. J. Frisch.,  J. Phys. Chem. 98, 11623 (1994) (10.1021/j100096a001)

    Deriv               =              1
    GGA                 =           TRUE
    Meta                =          FALSE

    Exchange Hybrid     =           TRUE
    MP2 Hybrid          =          FALSE

   => Exchange Functionals <=

    0.0800   Slater exchange
    0.7200         Becke 88

   => Exact (HF) Exchange <=

    0.2000               HF 

   => Correlation Functionals <=

    0.1900   Vosko, Wilk & Nusair (VWN5_RPA)
    0.8100   Lee, Yang & Parr

   => LibXC Density Thresholds  <==

    XC_HYB_GGA_XC_B3LYP:  1.00E-15 

   => Molecular Quadrature <=

    Radial Scheme          =       TREUTLER
    Pruning Scheme         =           NONE
    Nuclear Scheme         =       TREUTLER

    Blocking Scheme        =         OCTREE
    BS radius alpha        =              1
    Pruning alpha          =              1
    Radial Points          =             75
    Spherical Points       =            302
    Total Points           =          41922
    Total Blocks           =            380
    Max Points             =            255
    Max Functions          =             28
    Weights Tolerance      =       1.00E-15

   => Loading Basis Set <=

    Name: (CC-PVDZ AUX)
    Role: JKFIT
    Keyword: DF_BASIS_SCF
    atoms 1-2 entry NE         line   321 file /Users/joseantoniorodriguesromero/anaconda3/share/psi4/basis/cc-pvdz-jkfit.gbs 

   => Loading Basis Set <=

    Name: CC-PVDZ
    Role: ORBITAL
    Keyword: BASIS
    atoms 1-2 entry NE         line   258 file /Users/joseantoniorodriguesromero/anaconda3/share/psi4/basis/cc-pvdz.gbs 

  Reading orbitals from file /tmp/quartet_NeNe.default.72898.180.npy, no projection.

  ==> Integral Setup <==

  DFHelper Memory: AOs need 0.001 GiB; user supplied 0.334 GiB. 
  Using in-core AOs.

  ==> MemDFJK: Density-Fitted J/K Matrices <==

    J tasked:                   Yes
    K tasked:                   Yes
    wK tasked:                   No
    OpenMP threads:               1
    Memory [MiB]:               341
    Algorithm:                 Core
    Schwarz Cutoff:           1E-12
    Mask sparsity (%):       0.0000
    Fitting Condition:        1E-10

   => Auxiliary Basis Set <=

  Basis Set: (CC-PVDZ AUX)
    Blend: CC-PVDZ-JKFIT
    Number of shells: 48
    Number of basis functions: 140
    Number of Cartesian functions: 162
    Spherical Harmonics?: true
    Max angular momentum: 3

  Cached 100.0% of DFT collocation blocks in 0.033 [GiB].

  Minimum eigenvalue in the overlap matrix is 1.1784225895E-01.
  Reciprocal condition number of the overlap matrix is 5.7803226609E-02.
    Using symmetric orthogonalization.

  ==> Pre-Iterations <==

  SCF Guess: Orbitals guess was supplied from a previous computation.

   -------------------------------------------------------
    Irrep   Nso     Nmo     Nalpha   Nbeta   Ndocc  Nsocc
   -------------------------------------------------------
     Ag         7       7       3       3       3       0
     B1g        3       3       1       1       1       0
     B2g        1       1       0       0       0       0
     B3g        3       3       1       1       1       0
     Au         1       1       0       0       0       0
     B1u        3       3       2       1       1       1
     B2u        7       7       3       2       2       1
     B3u        3       3       2       1       1       1
   -------------------------------------------------------
    Total      28      28      12       9       9       3
   -------------------------------------------------------

  ==> Iterations <==

                           Total Energy        Delta E     RMS |[F,P]|

   @DF-UKS iter   0:  -254.89567475152433   -2.54896e+02   1.09226e-01 
   @DF-UKS iter   1:  -254.75828327979889    1.37391e-01   2.74248e-02 DIIS/ADIIS
   @DF-UKS iter   2:  -254.77227048461032   -1.39872e-02   1.95418e-02 DIIS/ADIIS/DAMP=1%
   @DF-UKS iter   3:  -254.79319567764526   -2.09252e-02   8.73981e-04 DIIS/ADIIS/DAMP=1%
   @DF-UKS iter   4:  -254.78547528041628    7.72040e-03   1.66720e-04 DIIS/ADIIS/DAMP=1%
   @DF-UKS iter   5:  -254.78582235408086   -3.47074e-04   1.89666e-05 DIIS/DAMP=1%
   @DF-UKS iter   6:  -254.78579017240929    3.21817e-05   6.02931e-07 DIIS/DAMP=1%
   @DF-UKS iter   7:  -254.78578297774501    7.19466e-06   1.30998e-07 DIIS/DAMP=1%
   @DF-UKS iter   8:  -254.78578319499775   -2.17253e-07   6.22508e-09 DIIS/DAMP=1%
   @DF-UKS iter   9:  -254.78578314388608    5.11117e-08   7.17700e-10 DIIS/DAMP=1%
   @DF-UKS iter  10:  -254.78578314647672   -2.59064e-09   9.13208e-11 DIIS/DAMP=1%
  Energy and wave function converged.


  ==> Post-Iterations <==

   Electrons on quadrature grid:
      Nalpha   =   11.9999970075 ; deviation = -2.993e-06
      Nbeta    =    8.9999995193 ; deviation = -4.807e-07
      Ntotal   =   20.9999965268 ; deviation = -3.473e-06 

   @Spin Contamination Metric:   3.260466259E-03
   @S^2 Expected:                3.750000000E+00
   @S^2 Observed:                3.753260466E+00
   @S   Expected:                1.500000000E+00
   @S   Observed:                1.500000000E+00

    Orbital Energies [Eh]
    ---------------------

    Alpha Occupied:                                                       

       1B2u  -30.456828     1Ag   -30.456814     2Ag    -1.131547  
       2B2u   -0.994000     3Ag    -0.310593     1B1u   -0.200431  
       1B3u   -0.200431     1B3g   -0.116988     1B1g   -0.116988  
       3B2u   -0.034595     2B3u    1.527054     2B1u    1.527054  

    Alpha Virtual:                                                        

       4B2u    1.711864     2B3g    1.831518     2B1g    1.831518  
       4Ag     1.892658     5Ag     2.082919     5B2u    2.838381  
       6Ag     4.916220     3B1u    5.051869     3B3u    5.051869  
       1B2g    5.140308     7Ag     5.140319     1Au     5.147547  
       6B2u    5.147558     3B3g    5.161233     3B1g    5.161233  
       7B2u    5.633554  

    Beta Occupied:                                                        

       1Ag   -30.394662     1B2u  -30.394661     2Ag    -1.042753  
       2B2u   -0.904189     3Ag    -0.170834     1B1u   -0.118112  
       1B3u   -0.118112     1B3g   -0.030017     1B1g   -0.030017  

    Beta Virtual:                                                         

       3B2u    0.209406     2B3u    1.709690     2B1u    1.709690  
       4B2u    1.794018     2B3g    1.940556     2B1g    1.940556  
       4Ag     1.993337     5Ag     2.189294     5B2u    2.926746  
       6Ag     5.000109     3B1u    5.125280     3B3u    5.125280  
       1B2g    5.180830     7Ag     5.180840     1Au     5.188115  
       6B2u    5.188125     3B3g    5.236803     3B1g    5.236803  
       7B2u    5.721729  

    Final Occupation by Irrep:
             Ag   B1g   B2g   B3g    Au   B1u   B2u   B3u 
    DOCC [     3,    1,    0,    1,    0,    1,    2,    1 ]
    SOCC [     0,    0,    0,    0,    0,    1,    1,    1 ]
    NA   [     3,    1,    0,    1,    0,    2,    3,    2 ]
    NB   [     3,    1,    0,    1,    0,    1,    2,    1 ]

  @DF-UKS Final Energy:  -254.78578314647672

   => Energetics <=

    Nuclear Repulsion Energy =             36.1313380557001622
    One-Electron Energy =                -442.8555915004662324
    Two-Electron Energy =                 172.6445406100480113
    DFT Exchange-Correlation Energy =     -20.7060703117586407
    Empirical Dispersion Energy =           0.0000000000000000
    VV10 Nonlocal Energy =                  0.0000000000000000
    Total Energy =                       -254.7857831464767173

  UHF NO Occupations:
  HONO-2 :    3B2u 1.0000000
  HONO-1 :    2B1u 1.0000000
  HONO-0 :    2B3u 1.0000000
  LUNO+0 :    4 Ag 0.0006398
  LUNO+1 :    2B3g 0.0003964
  LUNO+2 :    2B1g 0.0003964
  LUNO+3 :    4B2u 0.0001003


Computation Completed


Properties will be evaluated at   0.000000,   0.000000,   0.000000 [a0]

Properties computed using the SCF density matrix


 Multipole Moments:

 ------------------------------------------------------------------------------------
     Multipole            Electronic (a.u.)      Nuclear  (a.u.)        Total (a.u.)
 ------------------------------------------------------------------------------------

 L = 1.  Multiply by 2.5417464519 to convert [e a0] to [Debye]
 Dipole X            :          0.0000000            0.0000000            0.0000000
 Dipole Y            :          0.0000000            0.0000000            0.0000000
 Dipole Z            :          0.0000000            0.0000000            0.0000000
 Magnitude           :                                                    0.0000000

 ------------------------------------------------------------------------------------

*** tstop() called on Joses-MacBook-Pro-2.local at Thu Jul 17 10:57:27 2025
Module time:
	user time   =       3.53 seconds =       0.06 minutes
	system time =       3.70 seconds =       0.06 minutes
	total time  =          1 seconds =       0.02 minutes
Total time:
	user time   =       9.55 seconds =       0.16 minutes
	system time =       7.11 seconds =       0.12 minutes
	total time  =          2 seconds =       0.03 minutes

*** tstart() called on Joses-MacBook-Pro-2.local
*** at Thu Jul 17 10:57:27 2025


         ------------------------------------------------------------
                                   SCF GRAD                          
                          Rob Parrish, Justin Turney,                
                       Andy Simmonett, and Alex Sokolov              
         ------------------------------------------------------------

  ==> Geometry <==

    Molecular point group: d2h
    Full point group: D_inf_h

    Geometry (in Angstrom), charge = -1, multiplicity = 4:

       Center              X                  Y                   Z               Mass       
    ------------   -----------------  -----------------  -----------------  -----------------
         NE          -0.000000000000     0.732296725151     0.000000000000    19.992440176200
         NE           0.000000000000    -0.732296725151     0.000000000000    19.992440176200

  Nuclear repulsion =   36.131338055700162

  ==> Basis Set <==

  Basis Set: CC-PVDZ
    Blend: CC-PVDZ
    Number of shells: 12
    Number of basis functions: 28
    Number of Cartesian functions: 30
    Spherical Harmonics?: true
    Max angular momentum: 2

  ==> DFJKGrad: Density-Fitted SCF Gradients <==

    Gradient:                    1
    J tasked:                  Yes
    K tasked:                  Yes
    wK tasked:                  No
    OpenMP threads:              1
    Integrals threads:           1
    Memory [MiB]:              375
    Schwarz Cutoff:          1E-12
    Fitting Condition:       1E-10

   => Auxiliary Basis Set <=

  Basis Set: (CC-PVDZ AUX)
    Blend: CC-PVDZ-JKFIT
    Number of shells: 48
    Number of basis functions: 140
    Number of Cartesian functions: 162
    Spherical Harmonics?: true
    Max angular momentum: 3

  ==> DFT Potential <==

   => LibXC <=

    Version 6.2.2
    S. Lehtola, C. Steigemann, M. J.T. Oliveira, and M. A.L. Marques.,  SoftwareX 7, 1–5 (2018) (10.1016/j.softx.2017.11.002)

   => Composite Functional: B3LYP <= 

    B3LYP Hyb-GGA Exchange-Correlation Functional

    P. J. Stephens, F. J. Devlin, C. F. Chabalowski, and M. J. Frisch.,  J. Phys. Chem. 98, 11623 (1994) (10.1021/j100096a001)

    Deriv               =              1
    GGA                 =           TRUE
    Meta                =          FALSE

    Exchange Hybrid     =           TRUE
    MP2 Hybrid          =          FALSE

   => Exchange Functionals <=

    0.0800   Slater exchange
    0.7200         Becke 88

   => Exact (HF) Exchange <=

    0.2000               HF 

   => Correlation Functionals <=

    0.1900   Vosko, Wilk & Nusair (VWN5_RPA)
    0.8100   Lee, Yang & Parr

   => LibXC Density Thresholds  <==

    XC_HYB_GGA_XC_B3LYP:  1.00E-15 

   => Molecular Quadrature <=

    Radial Scheme          =       TREUTLER
    Pruning Scheme         =           NONE
    Nuclear Scheme         =       TREUTLER

    Blocking Scheme        =         OCTREE
    BS radius alpha        =              1
    Pruning alpha          =              1
    Radial Points          =             75
    Spherical Points       =            302
    Total Points           =          41922
    Total Blocks           =            380
    Max Points             =            255
    Max Functions          =             28
    Weights Tolerance      =       1.00E-15


  -Total Gradient:
     Atom            X                  Y                   Z
    ------   -----------------  -----------------  -----------------
       1        0.000000000000    -0.231909094972     0.000000000000
       2       -0.000000000000     0.231909094972     0.000000000000


*** tstop() called on Joses-MacBook-Pro-2.local at Thu Jul 17 10:57:27 2025
Module time:
	user time   =       0.63 seconds =       0.01 minutes
	system time =       1.12 seconds =       0.02 minutes
	total time  =          0 seconds =       0.00 minutes
Total time:
	user time   =      10.19 seconds =       0.17 minutes
	system time =       8.23 seconds =       0.14 minutes
	total time  =          2 seconds =       0.03 minutes

    			-----------------------------------------

    			 OPTKING 3.0: for geometry optimizations 

    			     By R.A. King, Bethel University     

    			        with contributions from          

    			    A.V. Copan, J. Cayton, A. Heide      

    			-----------------------------------------

    
	                            ===> Fragment 1 <== 

	 Z (Atomic Numbers)          Masses                          Geom                  
	      10.000000            19.992440         -0.00000000  1.38384025  0.00000000   
	      10.000000            19.992440          0.00000000 -1.38384025  0.00000000   

	 - Coordinate -           - BOHR/RAD -       - ANG/DEG -
	 R(1,2)           =         2.767681           1.464593


	        --- Internal Coordinate Step in ANG or DEG, aJ/ANG or AJ/DEG ---
	-------------------------------------------------------------------------------
	           Coordinate      Previous         Force          Change          New 
	           ----------      --------        ------          ------        ------
	               R(1,2)       1.46459        1.91063        0.07790       1.54250
	-------------------------------------------------------------------------------

	                                 ==> Convergence Check <==                                  
    
	Measures of convergence in internal coordinates in au.
    
	Criteria marked as inactive (o), active & met (*), and active & unmet ( ).

	----------------------------------------------------------------------------------------------
	   Step    Total Energy     Delta E     Max Force     RMS Force      Max Disp      RMS Disp   
	----------------------------------------------------------------------------------------------
	  Convergence Criteria     1.00e-06 *    3.00e-04 *             o    1.20e-03 *             o
	----------------------------------------------------------------------------------------------
	     2    -254.78578315   -2.80e-01      2.32e-01      2.32e-01 o    1.47e-01      1.47e-01 o  ~
	----------------------------------------------------------------------------------------------

Next Geometry in Ang 
	Fragment 1 (Ang)

	   Ne  -0.0000000000   0.7712479726   0.0000000000
	   Ne   0.0000000000  -0.7712479726   0.0000000000


    Structure for next step:
    Molecular point group: d2h
    Full point group: D_inf_h

    Geometry (in Angstrom), charge = -1, multiplicity = 4:

    NE          -0.000000000000     0.771247972583     0.000000000000
    NE           0.000000000000    -0.771247972583     0.000000000000


Scratch directory: /tmp/
gradient() will perform analytic gradient computation.
   => Libint2 <=

    Primary   basis highest AM E, G, H:  6, 6, 3
    Auxiliary basis highest AM E, G, H:  7, 7, 4
    Onebody   basis highest AM E, G, H:  -, -, -
    Solid Harmonics ordering:            Gaussian

*** tstart() called on Joses-MacBook-Pro-2.local
*** at Thu Jul 17 10:57:27 2025

   => Loading Basis Set <=

    Name: CC-PVDZ
    Role: ORBITAL
    Keyword: BASIS
    atoms 1-2 entry NE         line   258 file /Users/joseantoniorodriguesromero/anaconda3/share/psi4/basis/cc-pvdz.gbs 


         ---------------------------------------------------------
                                   SCF
               by Justin Turney, Rob Parrish, Andy Simmonett
                          and Daniel G. A. Smith
                              UKS Reference
                        1 Threads,    500 MiB Core
         ---------------------------------------------------------

  ==> Geometry <==

    Molecular point group: d2h
    Full point group: D_inf_h

    Geometry (in Angstrom), charge = -1, multiplicity = 4:

       Center              X                  Y                   Z               Mass       
    ------------   -----------------  -----------------  -----------------  -----------------
         NE          -0.000000000000     0.771247972583     0.000000000000    19.992440176200
         NE           0.000000000000    -0.771247972583     0.000000000000    19.992440176200

  Running in d2h symmetry.

  Rotational constants: A = ************  B =      0.70878  C =      0.70878 [cm^-1]
  Rotational constants: A = ************  B =  21248.74711  C =  21248.74711 [MHz]
  Nuclear repulsion =   34.306554408008992

  Charge       = -1
  Multiplicity = 4
  Electrons    = 21
  Nalpha       = 12
  Nbeta        = 9

  ==> Algorithm <==

  SCF Algorithm Type is DF.
  DIIS enabled.
  MOM disabled.
  Fractional occupation disabled.
  Guess Type is READ.
  Energy threshold   = 1.00e-08
  Density threshold  = 1.00e-08
  Integral threshold = 1.00e-12

  ==> Primary Basis <==

  Basis Set: CC-PVDZ
    Blend: CC-PVDZ
    Number of shells: 12
    Number of basis functions: 28
    Number of Cartesian functions: 30
    Spherical Harmonics?: true
    Max angular momentum: 2

  ==> DFT Potential <==

   => LibXC <=

    Version 6.2.2
    S. Lehtola, C. Steigemann, M. J.T. Oliveira, and M. A.L. Marques.,  SoftwareX 7, 1–5 (2018) (10.1016/j.softx.2017.11.002)

   => Composite Functional: B3LYP <= 

    B3LYP Hyb-GGA Exchange-Correlation Functional

    P. J. Stephens, F. J. Devlin, C. F. Chabalowski, and M. J. Frisch.,  J. Phys. Chem. 98, 11623 (1994) (10.1021/j100096a001)

    Deriv               =              1
    GGA                 =           TRUE
    Meta                =          FALSE

    Exchange Hybrid     =           TRUE
    MP2 Hybrid          =          FALSE

   => Exchange Functionals <=

    0.0800   Slater exchange
    0.7200         Becke 88

   => Exact (HF) Exchange <=

    0.2000               HF 

   => Correlation Functionals <=

    0.1900   Vosko, Wilk & Nusair (VWN5_RPA)
    0.8100   Lee, Yang & Parr

   => LibXC Density Thresholds  <==

    XC_HYB_GGA_XC_B3LYP:  1.00E-15 

   => Molecular Quadrature <=

    Radial Scheme          =       TREUTLER
    Pruning Scheme         =           NONE
    Nuclear Scheme         =       TREUTLER

    Blocking Scheme        =         OCTREE
    BS radius alpha        =              1
    Pruning alpha          =              1
    Radial Points          =             75
    Spherical Points       =            302
    Total Points           =          41948
    Total Blocks           =            384
    Max Points             =            255
    Max Functions          =             28
    Weights Tolerance      =       1.00E-15

   => Loading Basis Set <=

    Name: (CC-PVDZ AUX)
    Role: JKFIT
    Keyword: DF_BASIS_SCF
    atoms 1-2 entry NE         line   321 file /Users/joseantoniorodriguesromero/anaconda3/share/psi4/basis/cc-pvdz-jkfit.gbs 

   => Loading Basis Set <=

    Name: CC-PVDZ
    Role: ORBITAL
    Keyword: BASIS
    atoms 1-2 entry NE         line   258 file /Users/joseantoniorodriguesromero/anaconda3/share/psi4/basis/cc-pvdz.gbs 

  Reading orbitals from file /tmp/quartet_NeNe.default.72898.180.npy, no projection.

  ==> Integral Setup <==

  DFHelper Memory: AOs need 0.001 GiB; user supplied 0.334 GiB. 
  Using in-core AOs.

  ==> MemDFJK: Density-Fitted J/K Matrices <==

    J tasked:                   Yes
    K tasked:                   Yes
    wK tasked:                   No
    OpenMP threads:               1
    Memory [MiB]:               341
    Algorithm:                 Core
    Schwarz Cutoff:           1E-12
    Mask sparsity (%):       0.0000
    Fitting Condition:        1E-10

   => Auxiliary Basis Set <=

  Basis Set: (CC-PVDZ AUX)
    Blend: CC-PVDZ-JKFIT
    Number of shells: 48
    Number of basis functions: 140
    Number of Cartesian functions: 162
    Spherical Harmonics?: true
    Max angular momentum: 3

  Cached 100.0% of DFT collocation blocks in 0.033 [GiB].

  Minimum eigenvalue in the overlap matrix is 1.3041417764E-01.
  Reciprocal condition number of the overlap matrix is 6.6254681400E-02.
    Using symmetric orthogonalization.

  ==> Pre-Iterations <==

  SCF Guess: Orbitals guess was supplied from a previous computation.

   -------------------------------------------------------
    Irrep   Nso     Nmo     Nalpha   Nbeta   Ndocc  Nsocc
   -------------------------------------------------------
     Ag         7       7       3       3       3       0
     B1g        3       3       1       1       1       0
     B2g        1       1       0       0       0       0
     B3g        3       3       1       1       1       0
     Au         1       1       0       0       0       0
     B1u        3       3       2       1       1       1
     B2u        7       7       3       2       2       1
     B3u        3       3       2       1       1       1
   -------------------------------------------------------
    Total      28      28      12       9       9       3
   -------------------------------------------------------

  ==> Iterations <==

                           Total Energy        Delta E     RMS |[F,P]|

   @DF-UKS iter   0:  -254.83911902742037   -2.54839e+02   1.57192e-02 
   @DF-UKS iter   1:  -254.81027264013983    2.88464e-02   2.61741e-03 DIIS/ADIIS
   @DF-UKS iter   2:  -254.81040640982414   -1.33770e-04   1.74612e-03 DIIS/ADIIS/DAMP=1%
   @DF-UKS iter   3:  -254.81116830815236   -7.61898e-04   8.72486e-05 DIIS/DAMP=1%
   @DF-UKS iter   4:  -254.81049007078093    6.78237e-04   2.93327e-05 DIIS/DAMP=1%
   @DF-UKS iter   5:  -254.81051951821087   -2.94474e-05   1.12578e-06 DIIS/DAMP=1%
   @DF-UKS iter   6:  -254.81051515436903    4.36384e-06   5.09083e-08 DIIS/DAMP=1%
   @DF-UKS iter   7:  -254.81051479297761    3.61391e-07   8.93950e-09 DIIS/DAMP=1%
   @DF-UKS iter   8:  -254.81051479005538    2.92223e-09   9.28438e-10 DIIS/DAMP=1%
  Energy and wave function converged.


  ==> Post-Iterations <==

   Electrons on quadrature grid:
      Nalpha   =   11.9999937428 ; deviation = -6.257e-06
      Nbeta    =    8.9999978754 ; deviation = -2.125e-06
      Ntotal   =   20.9999916182 ; deviation = -8.382e-06 

   @Spin Contamination Metric:   3.300124798E-03
   @S^2 Expected:                3.750000000E+00
   @S^2 Observed:                3.753300125E+00
   @S   Expected:                1.500000000E+00
   @S   Observed:                1.500000000E+00

    Orbital Energies [Eh]
    ---------------------

    Alpha Occupied:                                                       

       1B2u  -30.469607     1Ag   -30.469588     2Ag    -1.117960  
       2B2u   -1.012947     3Ag    -0.300721     1B1u   -0.197564  
       1B3u   -0.197564     1B3g   -0.131386     1B1g   -0.131386  
       3B2u   -0.071001     2B3u    1.520086     2B1u    1.520086  

    Alpha Virtual:                                                        

       4B2u    1.733679     2B1g    1.818531     2B3g    1.818531  
       4Ag     1.831101     5Ag     2.052416     5B2u    2.812298  
       6Ag     4.989647     3B1u    5.068758     3B3u    5.068758  
       3B3g    5.125019     3B1g    5.125019     1B2g    5.136508  
       7Ag     5.136527     1Au     5.139725     6B2u    5.139743  
       7B2u    5.454873  

    Beta Occupied:                                                        

       1B2u  -30.408331     1Ag   -30.408325     2Ag    -1.030405  
       2B2u   -0.923254     3Ag    -0.158516     1B1u   -0.115987  
       1B3u   -0.115987     1B3g   -0.045644     1B1g   -0.045644  

    Beta Virtual:                                                         

       3B2u    0.168669     2B3u    1.699280     2B1u    1.699280  
       4B2u    1.816519     2B1g    1.928833     2B3g    1.928833  
       4Ag     1.940326     5Ag     2.146029     5B2u    2.901840  
       6Ag     5.075216     3B1u    5.142327     3B3u    5.142327  
       1B2g    5.176181     7Ag     5.176200     1Au     5.179427  
       6B2u    5.179446     3B3g    5.200205     3B1g    5.200205  
       7B2u    5.542559  

    Final Occupation by Irrep:
             Ag   B1g   B2g   B3g    Au   B1u   B2u   B3u 
    DOCC [     3,    1,    0,    1,    0,    1,    2,    1 ]
    SOCC [     0,    0,    0,    0,    0,    1,    1,    1 ]
    NA   [     3,    1,    0,    1,    0,    2,    3,    2 ]
    NB   [     3,    1,    0,    1,    0,    1,    2,    1 ]

  @DF-UKS Final Energy:  -254.81051479005538

   => Energetics <=

    Nuclear Repulsion Energy =             34.3065544080089921
    One-Electron Energy =                -439.1305321421224335
    Two-Electron Energy =                 170.6917380328018510
    DFT Exchange-Correlation Energy =     -20.6782750887437921
    Empirical Dispersion Energy =           0.0000000000000000
    VV10 Nonlocal Energy =                  0.0000000000000000
    Total Energy =                       -254.8105147900553789

  UHF NO Occupations:
  HONO-2 :    2B1u 1.0000000
  HONO-1 :    2B3u 1.0000000
  HONO-0 :    3B2u 1.0000000
  LUNO+0 :    4 Ag 0.0007100
  LUNO+1 :    2B1g 0.0003726
  LUNO+2 :    2B3g 0.0003726
  LUNO+3 :    4B2u 0.0000987


Computation Completed


Properties will be evaluated at   0.000000,   0.000000,   0.000000 [a0]

Properties computed using the SCF density matrix


 Multipole Moments:

 ------------------------------------------------------------------------------------
     Multipole            Electronic (a.u.)      Nuclear  (a.u.)        Total (a.u.)
 ------------------------------------------------------------------------------------

 L = 1.  Multiply by 2.5417464519 to convert [e a0] to [Debye]
 Dipole X            :          0.0000000            0.0000000            0.0000000
 Dipole Y            :          0.0000000            0.0000000            0.0000000
 Dipole Z            :          0.0000000            0.0000000            0.0000000
 Magnitude           :                                                    0.0000000

 ------------------------------------------------------------------------------------

*** tstop() called on Joses-MacBook-Pro-2.local at Thu Jul 17 10:57:28 2025
Module time:
	user time   =       3.01 seconds =       0.05 minutes
	system time =       3.07 seconds =       0.05 minutes
	total time  =          1 seconds =       0.02 minutes
Total time:
	user time   =      13.25 seconds =       0.22 minutes
	system time =      11.61 seconds =       0.19 minutes
	total time  =          3 seconds =       0.05 minutes

*** tstart() called on Joses-MacBook-Pro-2.local
*** at Thu Jul 17 10:57:28 2025


         ------------------------------------------------------------
                                   SCF GRAD                          
                          Rob Parrish, Justin Turney,                
                       Andy Simmonett, and Alex Sokolov              
         ------------------------------------------------------------

  ==> Geometry <==

    Molecular point group: d2h
    Full point group: D_inf_h

    Geometry (in Angstrom), charge = -1, multiplicity = 4:

       Center              X                  Y                   Z               Mass       
    ------------   -----------------  -----------------  -----------------  -----------------
         NE          -0.000000000000     0.771247972583     0.000000000000    19.992440176200
         NE           0.000000000000    -0.771247972583     0.000000000000    19.992440176200

  Nuclear repulsion =   34.306554408008992

  ==> Basis Set <==

  Basis Set: CC-PVDZ
    Blend: CC-PVDZ
    Number of shells: 12
    Number of basis functions: 28
    Number of Cartesian functions: 30
    Spherical Harmonics?: true
    Max angular momentum: 2

  ==> DFJKGrad: Density-Fitted SCF Gradients <==

    Gradient:                    1
    J tasked:                  Yes
    K tasked:                  Yes
    wK tasked:                  No
    OpenMP threads:              1
    Integrals threads:           1
    Memory [MiB]:              375
    Schwarz Cutoff:          1E-12
    Fitting Condition:       1E-10

   => Auxiliary Basis Set <=

  Basis Set: (CC-PVDZ AUX)
    Blend: CC-PVDZ-JKFIT
    Number of shells: 48
    Number of basis functions: 140
    Number of Cartesian functions: 162
    Spherical Harmonics?: true
    Max angular momentum: 3

  ==> DFT Potential <==

   => LibXC <=

    Version 6.2.2
    S. Lehtola, C. Steigemann, M. J.T. Oliveira, and M. A.L. Marques.,  SoftwareX 7, 1–5 (2018) (10.1016/j.softx.2017.11.002)

   => Composite Functional: B3LYP <= 

    B3LYP Hyb-GGA Exchange-Correlation Functional

    P. J. Stephens, F. J. Devlin, C. F. Chabalowski, and M. J. Frisch.,  J. Phys. Chem. 98, 11623 (1994) (10.1021/j100096a001)

    Deriv               =              1
    GGA                 =           TRUE
    Meta                =          FALSE

    Exchange Hybrid     =           TRUE
    MP2 Hybrid          =          FALSE

   => Exchange Functionals <=

    0.0800   Slater exchange
    0.7200         Becke 88

   => Exact (HF) Exchange <=

    0.2000               HF 

   => Correlation Functionals <=

    0.1900   Vosko, Wilk & Nusair (VWN5_RPA)
    0.8100   Lee, Yang & Parr

   => LibXC Density Thresholds  <==

    XC_HYB_GGA_XC_B3LYP:  1.00E-15 

   => Molecular Quadrature <=

    Radial Scheme          =       TREUTLER
    Pruning Scheme         =           NONE
    Nuclear Scheme         =       TREUTLER

    Blocking Scheme        =         OCTREE
    BS radius alpha        =              1
    Pruning alpha          =              1
    Radial Points          =             75
    Spherical Points       =            302
    Total Points           =          41948
    Total Blocks           =            384
    Max Points             =            255
    Max Functions          =             28
    Weights Tolerance      =       1.00E-15


  -Total Gradient:
     Atom            X                  Y                   Z
    ------   -----------------  -----------------  -----------------
       1        0.000000000000    -0.109918812130     0.000000000000
       2       -0.000000000000     0.109918812130     0.000000000000


*** tstop() called on Joses-MacBook-Pro-2.local at Thu Jul 17 10:57:28 2025
Module time:
	user time   =       1.05 seconds =       0.02 minutes
	system time =       0.82 seconds =       0.01 minutes
	total time  =          0 seconds =       0.00 minutes
Total time:
	user time   =      14.31 seconds =       0.24 minutes
	system time =      12.43 seconds =       0.21 minutes
	total time  =          3 seconds =       0.05 minutes

    			-----------------------------------------

    			 OPTKING 3.0: for geometry optimizations 

    			     By R.A. King, Bethel University     

    			        with contributions from          

    			    A.V. Copan, J. Cayton, A. Heide      

    			-----------------------------------------

    
	                            ===> Fragment 1 <== 

	 Z (Atomic Numbers)          Masses                          Geom                  
	      10.000000            19.992440         -0.00000000  1.45744744  0.00000000   
	      10.000000            19.992440          0.00000000 -1.45744744  0.00000000   

	 - Coordinate -           - BOHR/RAD -       - ANG/DEG -
	 R(1,2)           =         2.914895           1.542496


	        --- Internal Coordinate Step in ANG or DEG, aJ/ANG or AJ/DEG ---
	-------------------------------------------------------------------------------
	           Coordinate      Previous         Force          Change          New 
	           ----------      --------        ------          ------        ------
	               R(1,2)       1.54250        0.90559        0.06900       1.61150
	-------------------------------------------------------------------------------

	                                 ==> Convergence Check <==                                  
    
	Measures of convergence in internal coordinates in au.
    
	Criteria marked as inactive (o), active & met (*), and active & unmet ( ).

	----------------------------------------------------------------------------------------------
	   Step    Total Energy     Delta E     Max Force     RMS Force      Max Disp      RMS Disp   
	----------------------------------------------------------------------------------------------
	  Convergence Criteria     1.00e-06 *    3.00e-04 *             o    1.20e-03 *             o
	----------------------------------------------------------------------------------------------
	     3    -254.81051479   -2.47e-02      1.10e-01      1.10e-01 o    1.30e-01      1.30e-01 o  ~
	----------------------------------------------------------------------------------------------

Next Geometry in Ang 
	Fragment 1 (Ang)

	   Ne  -0.0000000000   0.8057481084   0.0000000000
	   Ne   0.0000000000  -0.8057481084   0.0000000000


    Structure for next step:
    Molecular point group: d2h
    Full point group: D_inf_h

    Geometry (in Angstrom), charge = -1, multiplicity = 4:

    NE          -0.000000000000     0.805748108403     0.000000000000
    NE           0.000000000000    -0.805748108403     0.000000000000


Scratch directory: /tmp/
gradient() will perform analytic gradient computation.
   => Libint2 <=

    Primary   basis highest AM E, G, H:  6, 6, 3
    Auxiliary basis highest AM E, G, H:  7, 7, 4
    Onebody   basis highest AM E, G, H:  -, -, -
    Solid Harmonics ordering:            Gaussian

*** tstart() called on Joses-MacBook-Pro-2.local
*** at Thu Jul 17 10:57:28 2025

   => Loading Basis Set <=

    Name: CC-PVDZ
    Role: ORBITAL
    Keyword: BASIS
    atoms 1-2 entry NE         line   258 file /Users/joseantoniorodriguesromero/anaconda3/share/psi4/basis/cc-pvdz.gbs 


         ---------------------------------------------------------
                                   SCF
               by Justin Turney, Rob Parrish, Andy Simmonett
                          and Daniel G. A. Smith
                              UKS Reference
                        1 Threads,    500 MiB Core
         ---------------------------------------------------------

  ==> Geometry <==

    Molecular point group: d2h
    Full point group: D_inf_h

    Geometry (in Angstrom), charge = -1, multiplicity = 4:

       Center              X                  Y                   Z               Mass       
    ------------   -----------------  -----------------  -----------------  -----------------
         NE          -0.000000000000     0.805748108403     0.000000000000    19.992440176200
         NE           0.000000000000    -0.805748108403     0.000000000000    19.992440176200

  Running in d2h symmetry.

  Rotational constants: A = ************  B =      0.64938  C =      0.64938 [cm^-1]
  Rotational constants: A = ************  B =  19468.06597  C =  19468.06597 [MHz]
  Nuclear repulsion =   32.837632825389107

  Charge       = -1
  Multiplicity = 4
  Electrons    = 21
  Nalpha       = 12
  Nbeta        = 9

  ==> Algorithm <==

  SCF Algorithm Type is DF.
  DIIS enabled.
  MOM disabled.
  Fractional occupation disabled.
  Guess Type is READ.
  Energy threshold   = 1.00e-08
  Density threshold  = 1.00e-08
  Integral threshold = 1.00e-12

  ==> Primary Basis <==

  Basis Set: CC-PVDZ
    Blend: CC-PVDZ
    Number of shells: 12
    Number of basis functions: 28
    Number of Cartesian functions: 30
    Spherical Harmonics?: true
    Max angular momentum: 2

  ==> DFT Potential <==

   => LibXC <=

    Version 6.2.2
    S. Lehtola, C. Steigemann, M. J.T. Oliveira, and M. A.L. Marques.,  SoftwareX 7, 1–5 (2018) (10.1016/j.softx.2017.11.002)

   => Composite Functional: B3LYP <= 

    B3LYP Hyb-GGA Exchange-Correlation Functional

    P. J. Stephens, F. J. Devlin, C. F. Chabalowski, and M. J. Frisch.,  J. Phys. Chem. 98, 11623 (1994) (10.1021/j100096a001)

    Deriv               =              1
    GGA                 =           TRUE
    Meta                =          FALSE

    Exchange Hybrid     =           TRUE
    MP2 Hybrid          =          FALSE

   => Exchange Functionals <=

    0.0800   Slater exchange
    0.7200         Becke 88

   => Exact (HF) Exchange <=

    0.2000               HF 

   => Correlation Functionals <=

    0.1900   Vosko, Wilk & Nusair (VWN5_RPA)
    0.8100   Lee, Yang & Parr

   => LibXC Density Thresholds  <==

    XC_HYB_GGA_XC_B3LYP:  1.00E-15 

   => Molecular Quadrature <=

    Radial Scheme          =       TREUTLER
    Pruning Scheme         =           NONE
    Nuclear Scheme         =       TREUTLER

    Blocking Scheme        =         OCTREE
    BS radius alpha        =              1
    Pruning alpha          =              1
    Radial Points          =             75
    Spherical Points       =            302
    Total Points           =          41956
    Total Blocks           =            380
    Max Points             =            255
    Max Functions          =             28
    Weights Tolerance      =       1.00E-15

   => Loading Basis Set <=

    Name: (CC-PVDZ AUX)
    Role: JKFIT
    Keyword: DF_BASIS_SCF
    atoms 1-2 entry NE         line   321 file /Users/joseantoniorodriguesromero/anaconda3/share/psi4/basis/cc-pvdz-jkfit.gbs 

   => Loading Basis Set <=

    Name: CC-PVDZ
    Role: ORBITAL
    Keyword: BASIS
    atoms 1-2 entry NE         line   258 file /Users/joseantoniorodriguesromero/anaconda3/share/psi4/basis/cc-pvdz.gbs 

  Reading orbitals from file /tmp/quartet_NeNe.default.72898.180.npy, no projection.

  ==> Integral Setup <==

  DFHelper Memory: AOs need 0.001 GiB; user supplied 0.334 GiB. 
  Using in-core AOs.

  ==> MemDFJK: Density-Fitted J/K Matrices <==

    J tasked:                   Yes
    K tasked:                   Yes
    wK tasked:                   No
    OpenMP threads:               1
    Memory [MiB]:               341
    Algorithm:                 Core
    Schwarz Cutoff:           1E-12
    Mask sparsity (%):       0.0000
    Fitting Condition:        1E-10

   => Auxiliary Basis Set <=

  Basis Set: (CC-PVDZ AUX)
    Blend: CC-PVDZ-JKFIT
    Number of shells: 48
    Number of basis functions: 140
    Number of Cartesian functions: 162
    Spherical Harmonics?: true
    Max angular momentum: 3

  Cached 100.0% of DFT collocation blocks in 0.033 [GiB].

  Minimum eigenvalue in the overlap matrix is 1.4065037261E-01.
  Reciprocal condition number of the overlap matrix is 7.3505939918E-02.
    Using symmetric orthogonalization.

  ==> Pre-Iterations <==

  SCF Guess: Orbitals guess was supplied from a previous computation.

   -------------------------------------------------------
    Irrep   Nso     Nmo     Nalpha   Nbeta   Ndocc  Nsocc
   -------------------------------------------------------
     Ag         7       7       3       3       3       0
     B1g        3       3       1       1       1       0
     B2g        1       1       0       0       0       0
     B3g        3       3       1       1       1       0
     Au         1       1       0       0       0       0
     B1u        3       3       2       1       1       1
     B2u        7       7       3       2       2       1
     B3u        3       3       2       1       1       1
   -------------------------------------------------------
    Total      28      28      12       9       9       3
   -------------------------------------------------------

  ==> Iterations <==

                           Total Energy        Delta E     RMS |[F,P]|

   @DF-UKS iter   0:  -254.84697607673613   -2.54847e+02   1.09016e-02 
   @DF-UKS iter   1:  -254.81917995113781    2.77961e-02   1.64231e-03 DIIS/ADIIS
   @DF-UKS iter   2:  -254.81923497557042   -5.50244e-05   9.59494e-04 DIIS/ADIIS/DAMP=1%
   @DF-UKS iter   3:  -254.81963366681609   -3.98691e-04   1.01813e-04 DIIS/ADIIS/DAMP=1%
   @DF-UKS iter   4:  -254.81923043502664    4.03232e-04   2.30404e-05 DIIS/DAMP=1%
   @DF-UKS iter   5:  -254.81927137272376   -4.09377e-05   5.15954e-07 DIIS/DAMP=1%
   @DF-UKS iter   6:  -254.81926751186381    3.86086e-06   4.34485e-08 DIIS/DAMP=1%
   @DF-UKS iter   7:  -254.81926749565329    1.62105e-08   4.36483e-09 DIIS/DAMP=1%
   @DF-UKS iter   8:  -254.81926748534147    1.03118e-08   4.96821e-10 DIIS/DAMP=1%
   @DF-UKS iter   9:  -254.81926748458500    7.56472e-10   4.73357e-11 DIIS/DAMP=1%
  Energy and wave function converged.


  ==> Post-Iterations <==

   Electrons on quadrature grid:
      Nalpha   =   11.9999926521 ; deviation = -7.348e-06
      Nbeta    =    8.9999970014 ; deviation = -2.999e-06
      Ntotal   =   20.9999896535 ; deviation = -1.035e-05 

   @Spin Contamination Metric:   3.347984953E-03
   @S^2 Expected:                3.750000000E+00
   @S^2 Observed:                3.753347985E+00
   @S   Expected:                1.500000000E+00
   @S   Observed:                1.500000000E+00

    Orbital Energies [Eh]
    ---------------------

    Alpha Occupied:                                                       

       1B2u  -30.479516     1Ag   -30.479493     2Ag    -1.110347  
       2B2u   -1.027503     3Ag    -0.293478     1B3u   -0.196738  
       1B1u   -0.196738     1B1g   -0.142729     1B3g   -0.142729  
       3B2u   -0.097866     2B3u    1.516611     2B1u    1.516611  

    Alpha Virtual:                                                        

       4B2u    1.751382     4Ag     1.765891     2B1g    1.805230  
       2B3g    1.805230     5Ag     2.043222     5B2u    2.783180  
       6Ag     5.028714     3B3u    5.073961     3B1u    5.073961  
       3B1g    5.103861     3B3g    5.103861     1B2g    5.131962  
       7Ag     5.131982     1Au     5.133458     6B2u    5.133478  
       7B2u    5.332398  

    Beta Occupied:                                                        

       1B2u  -30.418908     1Ag   -30.418899     2Ag    -1.023572  
       2B2u   -0.938051     3Ag    -0.149594     1B3u   -0.115703  
       1B1u   -0.115703     1B1g   -0.057937     1B3g   -0.057937  

    Beta Virtual:                                                         

       3B2u    0.138241     2B3u    1.693084     2B1u    1.693084  
       4B2u    1.834864     4Ag     1.876369     2B1g    1.916654  
       2B3g    1.916654     5Ag     2.131873     5B2u    2.873530  
       6Ag     5.115042     3B3u    5.147486     3B1u    5.147486  
       1B2g    5.170968     7Ag     5.170989     1Au     5.172485  
       6B2u    5.172506     3B1g    5.178680     3B3g    5.178680  
       7B2u    5.419777  

    Final Occupation by Irrep:
             Ag   B1g   B2g   B3g    Au   B1u   B2u   B3u 
    DOCC [     3,    1,    0,    1,    0,    1,    2,    1 ]
    SOCC [     0,    0,    0,    0,    0,    1,    1,    1 ]
    NA   [     3,    1,    0,    1,    0,    2,    3,    2 ]
    NB   [     3,    1,    0,    1,    0,    1,    2,    1 ]

  @DF-UKS Final Energy:  -254.81926748458500

   => Energetics <=

    Nuclear Repulsion Energy =             32.8376328253891074
    One-Electron Energy =                -436.1043642522208756
    Two-Electron Energy =                 169.1061781077750368
    DFT Exchange-Correlation Energy =     -20.6587141655282558
    Empirical Dispersion Energy =           0.0000000000000000
    VV10 Nonlocal Energy =                  0.0000000000000000
    Total Energy =                       -254.8192674845849979

  UHF NO Occupations:
  HONO-2 :    3B2u 1.0000000
  HONO-1 :    2B3u 1.0000000
  HONO-0 :    2B1u 1.0000000
  LUNO+0 :    4 Ag 0.0007735
  LUNO+1 :    2B3g 0.0003544
  LUNO+2 :    2B1g 0.0003544
  LUNO+3 :    4B2u 0.0000967


Computation Completed


Properties will be evaluated at   0.000000,   0.000000,   0.000000 [a0]

Properties computed using the SCF density matrix


 Multipole Moments:

 ------------------------------------------------------------------------------------
     Multipole            Electronic (a.u.)      Nuclear  (a.u.)        Total (a.u.)
 ------------------------------------------------------------------------------------

 L = 1.  Multiply by 2.5417464519 to convert [e a0] to [Debye]
 Dipole X            :          0.0000000            0.0000000            0.0000000
 Dipole Y            :          0.0000000            0.0000000            0.0000000
 Dipole Z            :          0.0000000            0.0000000            0.0000000
 Magnitude           :                                                    0.0000000

 ------------------------------------------------------------------------------------

*** tstop() called on Joses-MacBook-Pro-2.local at Thu Jul 17 10:57:29 2025
Module time:
	user time   =       2.82 seconds =       0.05 minutes
	system time =       4.06 seconds =       0.07 minutes
	total time  =          1 seconds =       0.02 minutes
Total time:
	user time   =      17.34 seconds =       0.29 minutes
	system time =      16.53 seconds =       0.28 minutes
	total time  =          4 seconds =       0.07 minutes

*** tstart() called on Joses-MacBook-Pro-2.local
*** at Thu Jul 17 10:57:29 2025


         ------------------------------------------------------------
                                   SCF GRAD                          
                          Rob Parrish, Justin Turney,                
                       Andy Simmonett, and Alex Sokolov              
         ------------------------------------------------------------

  ==> Geometry <==

    Molecular point group: d2h
    Full point group: D_inf_h

    Geometry (in Angstrom), charge = -1, multiplicity = 4:

       Center              X                  Y                   Z               Mass       
    ------------   -----------------  -----------------  -----------------  -----------------
         NE          -0.000000000000     0.805748108403     0.000000000000    19.992440176200
         NE           0.000000000000    -0.805748108403     0.000000000000    19.992440176200

  Nuclear repulsion =   32.837632825389107

  ==> Basis Set <==

  Basis Set: CC-PVDZ
    Blend: CC-PVDZ
    Number of shells: 12
    Number of basis functions: 28
    Number of Cartesian functions: 30
    Spherical Harmonics?: true
    Max angular momentum: 2

  ==> DFJKGrad: Density-Fitted SCF Gradients <==

    Gradient:                    1
    J tasked:                  Yes
    K tasked:                  Yes
    wK tasked:                  No
    OpenMP threads:              1
    Integrals threads:           1
    Memory [MiB]:              375
    Schwarz Cutoff:          1E-12
    Fitting Condition:       1E-10

   => Auxiliary Basis Set <=

  Basis Set: (CC-PVDZ AUX)
    Blend: CC-PVDZ-JKFIT
    Number of shells: 48
    Number of basis functions: 140
    Number of Cartesian functions: 162
    Spherical Harmonics?: true
    Max angular momentum: 3

  ==> DFT Potential <==

   => LibXC <=

    Version 6.2.2
    S. Lehtola, C. Steigemann, M. J.T. Oliveira, and M. A.L. Marques.,  SoftwareX 7, 1–5 (2018) (10.1016/j.softx.2017.11.002)

   => Composite Functional: B3LYP <= 

    B3LYP Hyb-GGA Exchange-Correlation Functional

    P. J. Stephens, F. J. Devlin, C. F. Chabalowski, and M. J. Frisch.,  J. Phys. Chem. 98, 11623 (1994) (10.1021/j100096a001)

    Deriv               =              1
    GGA                 =           TRUE
    Meta                =          FALSE

    Exchange Hybrid     =           TRUE
    MP2 Hybrid          =          FALSE

   => Exchange Functionals <=

    0.0800   Slater exchange
    0.7200         Becke 88

   => Exact (HF) Exchange <=

    0.2000               HF 

   => Correlation Functionals <=

    0.1900   Vosko, Wilk & Nusair (VWN5_RPA)
    0.8100   Lee, Yang & Parr

   => LibXC Density Thresholds  <==

    XC_HYB_GGA_XC_B3LYP:  1.00E-15 

   => Molecular Quadrature <=

    Radial Scheme          =       TREUTLER
    Pruning Scheme         =           NONE
    Nuclear Scheme         =       TREUTLER

    Blocking Scheme        =         OCTREE
    BS radius alpha        =              1
    Pruning alpha          =              1
    Radial Points          =             75
    Spherical Points       =            302
    Total Points           =          41956
    Total Blocks           =            380
    Max Points             =            255
    Max Functions          =             28
    Weights Tolerance      =       1.00E-15


  -Total Gradient:
     Atom            X                  Y                   Z
    ------   -----------------  -----------------  -----------------
       1        0.000000000000    -0.028072180626     0.000000000000
       2       -0.000000000000     0.028072180626     0.000000000000


*** tstop() called on Joses-MacBook-Pro-2.local at Thu Jul 17 10:57:29 2025
Module time:
	user time   =       0.62 seconds =       0.01 minutes
	system time =       1.17 seconds =       0.02 minutes
	total time  =          0 seconds =       0.00 minutes
Total time:
	user time   =      17.97 seconds =       0.30 minutes
	system time =      17.70 seconds =       0.29 minutes
	total time  =          4 seconds =       0.07 minutes

    			-----------------------------------------

    			 OPTKING 3.0: for geometry optimizations 

    			     By R.A. King, Bethel University     

    			        with contributions from          

    			    A.V. Copan, J. Cayton, A. Heide      

    			-----------------------------------------

    
	                            ===> Fragment 1 <== 

	 Z (Atomic Numbers)          Masses                          Geom                  
	      10.000000            19.992440         -0.00000000  1.52264325  0.00000000   
	      10.000000            19.992440          0.00000000 -1.52264325  0.00000000   

	 - Coordinate -           - BOHR/RAD -       - ANG/DEG -
	 R(1,2)           =         3.045287           1.611496


	        --- Internal Coordinate Step in ANG or DEG, aJ/ANG or AJ/DEG ---
	-------------------------------------------------------------------------------
	           Coordinate      Previous         Force          Change          New 
	           ----------      --------        ------          ------        ------
	               R(1,2)       1.61150        0.23128        0.02020       1.63170
	-------------------------------------------------------------------------------

	                                 ==> Convergence Check <==                                  
    
	Measures of convergence in internal coordinates in au.
    
	Criteria marked as inactive (o), active & met (*), and active & unmet ( ).

	----------------------------------------------------------------------------------------------
	   Step    Total Energy     Delta E     Max Force     RMS Force      Max Disp      RMS Disp   
	----------------------------------------------------------------------------------------------
	  Convergence Criteria     1.00e-06 *    3.00e-04 *             o    1.20e-03 *             o
	----------------------------------------------------------------------------------------------
	     4    -254.81926748   -8.75e-03      2.81e-02      2.81e-02 o    3.82e-02      3.82e-02 o  ~
	----------------------------------------------------------------------------------------------

Next Geometry in Ang 
	Fragment 1 (Ang)

	   Ne  -0.0000000000   0.8158490042   0.0000000000
	   Ne   0.0000000000  -0.8158490042   0.0000000000


    Structure for next step:
    Molecular point group: d2h
    Full point group: D_inf_h

    Geometry (in Angstrom), charge = -1, multiplicity = 4:

    NE          -0.000000000000     0.815849004216     0.000000000000
    NE           0.000000000000    -0.815849004216     0.000000000000


Scratch directory: /tmp/
gradient() will perform analytic gradient computation.
   => Libint2 <=

    Primary   basis highest AM E, G, H:  6, 6, 3
    Auxiliary basis highest AM E, G, H:  7, 7, 4
    Onebody   basis highest AM E, G, H:  -, -, -
    Solid Harmonics ordering:            Gaussian

*** tstart() called on Joses-MacBook-Pro-2.local
*** at Thu Jul 17 10:57:29 2025

   => Loading Basis Set <=

    Name: CC-PVDZ
    Role: ORBITAL
    Keyword: BASIS
    atoms 1-2 entry NE         line   258 file /Users/joseantoniorodriguesromero/anaconda3/share/psi4/basis/cc-pvdz.gbs 


         ---------------------------------------------------------
                                   SCF
               by Justin Turney, Rob Parrish, Andy Simmonett
                          and Daniel G. A. Smith
                              UKS Reference
                        1 Threads,    500 MiB Core
         ---------------------------------------------------------

  ==> Geometry <==

    Molecular point group: d2h
    Full point group: D_inf_h

    Geometry (in Angstrom), charge = -1, multiplicity = 4:

       Center              X                  Y                   Z               Mass       
    ------------   -----------------  -----------------  -----------------  -----------------
         NE          -0.000000000000     0.815849004216     0.000000000000    19.992440176200
         NE           0.000000000000    -0.815849004216     0.000000000000    19.992440176200

  Running in d2h symmetry.

  Rotational constants: A = ************  B =      0.63340  C =      0.63340 [cm^-1]
  Rotational constants: A = ************  B =  18988.98813  C =  18988.98813 [MHz]
  Nuclear repulsion =   32.431075354364872

  Charge       = -1
  Multiplicity = 4
  Electrons    = 21
  Nalpha       = 12
  Nbeta        = 9

  ==> Algorithm <==

  SCF Algorithm Type is DF.
  DIIS enabled.
  MOM disabled.
  Fractional occupation disabled.
  Guess Type is READ.
  Energy threshold   = 1.00e-08
  Density threshold  = 1.00e-08
  Integral threshold = 1.00e-12

  ==> Primary Basis <==

  Basis Set: CC-PVDZ
    Blend: CC-PVDZ
    Number of shells: 12
    Number of basis functions: 28
    Number of Cartesian functions: 30
    Spherical Harmonics?: true
    Max angular momentum: 2

  ==> DFT Potential <==

   => LibXC <=

    Version 6.2.2
    S. Lehtola, C. Steigemann, M. J.T. Oliveira, and M. A.L. Marques.,  SoftwareX 7, 1–5 (2018) (10.1016/j.softx.2017.11.002)

   => Composite Functional: B3LYP <= 

    B3LYP Hyb-GGA Exchange-Correlation Functional

    P. J. Stephens, F. J. Devlin, C. F. Chabalowski, and M. J. Frisch.,  J. Phys. Chem. 98, 11623 (1994) (10.1021/j100096a001)

    Deriv               =              1
    GGA                 =           TRUE
    Meta                =          FALSE

    Exchange Hybrid     =           TRUE
    MP2 Hybrid          =          FALSE

   => Exchange Functionals <=

    0.0800   Slater exchange
    0.7200         Becke 88

   => Exact (HF) Exchange <=

    0.2000               HF 

   => Correlation Functionals <=

    0.1900   Vosko, Wilk & Nusair (VWN5_RPA)
    0.8100   Lee, Yang & Parr

   => LibXC Density Thresholds  <==

    XC_HYB_GGA_XC_B3LYP:  1.00E-15 

   => Molecular Quadrature <=

    Radial Scheme          =       TREUTLER
    Pruning Scheme         =           NONE
    Nuclear Scheme         =       TREUTLER

    Blocking Scheme        =         OCTREE
    BS radius alpha        =              1
    Pruning alpha          =              1
    Radial Points          =             75
    Spherical Points       =            302
    Total Points           =          41958
    Total Blocks           =            386
    Max Points             =            237
    Max Functions          =             28
[...]
	           ----------      --------        ------          ------        ------
	               R(1,2)       1.63959        0.00616        0.00066       1.64025
	-------------------------------------------------------------------------------

	                                 ==> Convergence Check <==                                  
    
	Measures of convergence in internal coordinates in au.
    
	Criteria marked as inactive (o), active & met (*), and active & unmet ( ).

	----------------------------------------------------------------------------------------------
	   Step    Total Energy     Delta E     Max Force     RMS Force      Max Disp      RMS Disp   
	----------------------------------------------------------------------------------------------
	  Convergence Criteria     1.00e-06 *    3.00e-04 *             o    1.20e-03 *             o
	----------------------------------------------------------------------------------------------
	     7    -254.82001783   -5.54e-06      7.47e-04      7.47e-04 o    1.26e-03      1.26e-03 o  ~
	----------------------------------------------------------------------------------------------

Next Geometry in Ang 
	Fragment 1 (Ang)

	   Ne  -0.0000000000   0.8201265436   0.0000000000
	   Ne   0.0000000000  -0.8201265436   0.0000000000


    Structure for next step:
    Molecular point group: d2h
    Full point group: D_inf_h

    Geometry (in Angstrom), charge = -1, multiplicity = 4:

    NE          -0.000000000000     0.820126543624     0.000000000000
    NE           0.000000000000    -0.820126543624     0.000000000000


Scratch directory: /tmp/
gradient() will perform analytic gradient computation.
   => Libint2 <=

    Primary   basis highest AM E, G, H:  6, 6, 3
    Auxiliary basis highest AM E, G, H:  7, 7, 4
    Onebody   basis highest AM E, G, H:  -, -, -
    Solid Harmonics ordering:            Gaussian

*** tstart() called on Joses-MacBook-Pro-2.local
*** at Thu Jul 17 10:57:31 2025

   => Loading Basis Set <=

    Name: CC-PVDZ
    Role: ORBITAL
    Keyword: BASIS
    atoms 1-2 entry NE         line   258 file /Users/joseantoniorodriguesromero/anaconda3/share/psi4/basis/cc-pvdz.gbs 


         ---------------------------------------------------------
                                   SCF
               by Justin Turney, Rob Parrish, Andy Simmonett
                          and Daniel G. A. Smith
                              UKS Reference
                        1 Threads,    500 MiB Core
         ---------------------------------------------------------

  ==> Geometry <==

    Molecular point group: d2h
    Full point group: D_inf_h

    Geometry (in Angstrom), charge = -1, multiplicity = 4:

       Center              X                  Y                   Z               Mass       
    ------------   -----------------  -----------------  -----------------  -----------------
         NE          -0.000000000000     0.820126543624     0.000000000000    19.992440176200
         NE           0.000000000000    -0.820126543624     0.000000000000    19.992440176200

  Running in d2h symmetry.

  Rotational constants: A = ************  B =      0.62681  C =      0.62681 [cm^-1]
  Rotational constants: A = ************  B =  18791.42271  C =  18791.42271 [MHz]
  Nuclear repulsion =   32.261924381296950

  Charge       = -1
  Multiplicity = 4
  Electrons    = 21
  Nalpha       = 12
  Nbeta        = 9

  ==> Algorithm <==

  SCF Algorithm Type is DF.
  DIIS enabled.
  MOM disabled.
  Fractional occupation disabled.
  Guess Type is READ.
  Energy threshold   = 1.00e-08
  Density threshold  = 1.00e-08
  Integral threshold = 1.00e-12

  ==> Primary Basis <==

  Basis Set: CC-PVDZ
    Blend: CC-PVDZ
    Number of shells: 12
    Number of basis functions: 28
    Number of Cartesian functions: 30
    Spherical Harmonics?: true
    Max angular momentum: 2

  ==> DFT Potential <==

   => LibXC <=

    Version 6.2.2
    S. Lehtola, C. Steigemann, M. J.T. Oliveira, and M. A.L. Marques.,  SoftwareX 7, 1–5 (2018) (10.1016/j.softx.2017.11.002)

   => Composite Functional: B3LYP <= 

    B3LYP Hyb-GGA Exchange-Correlation Functional

    P. J. Stephens, F. J. Devlin, C. F. Chabalowski, and M. J. Frisch.,  J. Phys. Chem. 98, 11623 (1994) (10.1021/j100096a001)

    Deriv               =              1
    GGA                 =           TRUE
    Meta                =          FALSE

    Exchange Hybrid     =           TRUE
    MP2 Hybrid          =          FALSE

   => Exchange Functionals <=

    0.0800   Slater exchange
    0.7200         Becke 88

   => Exact (HF) Exchange <=

    0.2000               HF 

   => Correlation Functionals <=

    0.1900   Vosko, Wilk & Nusair (VWN5_RPA)
    0.8100   Lee, Yang & Parr

   => LibXC Density Thresholds  <==

    XC_HYB_GGA_XC_B3LYP:  1.00E-15 

   => Molecular Quadrature <=

    Radial Scheme          =       TREUTLER
    Pruning Scheme         =           NONE
    Nuclear Scheme         =       TREUTLER

    Blocking Scheme        =         OCTREE
    BS radius alpha        =              1
    Pruning alpha          =              1
    Radial Points          =             75
    Spherical Points       =            302
    Total Points           =          41958
    Total Blocks           =            386
    Max Points             =            234
    Max Functions          =             28
    Weights Tolerance      =       1.00E-15

   => Loading Basis Set <=

    Name: (CC-PVDZ AUX)
    Role: JKFIT
    Keyword: DF_BASIS_SCF
    atoms 1-2 entry NE         line   321 file /Users/joseantoniorodriguesromero/anaconda3/share/psi4/basis/cc-pvdz-jkfit.gbs 

   => Loading Basis Set <=

    Name: CC-PVDZ
    Role: ORBITAL
    Keyword: BASIS
    atoms 1-2 entry NE         line   258 file /Users/joseantoniorodriguesromero/anaconda3/share/psi4/basis/cc-pvdz.gbs 

  Reading orbitals from file /tmp/quartet_NeNe.default.72898.180.npy, no projection.

  ==> Integral Setup <==

  DFHelper Memory: AOs need 0.001 GiB; user supplied 0.334 GiB. 
  Using in-core AOs.

  ==> MemDFJK: Density-Fitted J/K Matrices <==

    J tasked:                   Yes
    K tasked:                   Yes
    wK tasked:                   No
    OpenMP threads:               1
    Memory [MiB]:               341
    Algorithm:                 Core
    Schwarz Cutoff:           1E-12
    Mask sparsity (%):       0.0000
    Fitting Condition:        1E-10

   => Auxiliary Basis Set <=

  Basis Set: (CC-PVDZ AUX)
    Blend: CC-PVDZ-JKFIT
    Number of shells: 48
    Number of basis functions: 140
    Number of Cartesian functions: 162
    Spherical Harmonics?: true
    Max angular momentum: 3

  Cached 100.0% of DFT collocation blocks in 0.032 [GiB].

  Minimum eigenvalue in the overlap matrix is 1.4463313209E-01.
  Reciprocal condition number of the overlap matrix is 7.6411967310E-02.
    Using symmetric orthogonalization.

  ==> Pre-Iterations <==

  SCF Guess: Orbitals guess was supplied from a previous computation.

   -------------------------------------------------------
    Irrep   Nso     Nmo     Nalpha   Nbeta   Ndocc  Nsocc
   -------------------------------------------------------
     Ag         7       7       3       3       3       0
     B1g        3       3       1       1       1       0
     B2g        1       1       0       0       0       0
     B3g        3       3       1       1       1       0
     Au         1       1       0       0       0       0
     B1u        3       3       2       1       1       1
     B2u        7       7       3       2       2       1
     B3u        3       3       2       1       1       1
   -------------------------------------------------------
    Total      28      28      12       9       9       3
   -------------------------------------------------------

  ==> Iterations <==

                           Total Energy        Delta E     RMS |[F,P]|

   @DF-UKS iter   0:  -254.82027551153243   -2.54820e+02   8.48157e-05 
   @DF-UKS iter   1:  -254.82001838009029    2.57131e-04   1.26832e-05 DIIS
   @DF-UKS iter   2:  -254.82001838357075   -3.48047e-09   5.40236e-06 DIIS/DAMP=1%
   @DF-UKS iter   3:  -254.82002033036576   -1.94680e-06   1.05761e-06 DIIS/DAMP=1%
   @DF-UKS iter   4:  -254.82001795947428    2.37089e-06   2.00190e-07 DIIS/DAMP=1%
   @DF-UKS iter   5:  -254.82001842792650   -4.68452e-07   5.82027e-09 DIIS/DAMP=1%
   @DF-UKS iter   6:  -254.82001838368834    4.42382e-08   5.98462e-10 DIIS/DAMP=1%
   @DF-UKS iter   7:  -254.82001838475250   -1.06417e-09   3.70588e-11 DIIS/DAMP=1%
  Energy and wave function converged.


  ==> Post-Iterations <==

   Electrons on quadrature grid:
      Nalpha   =   11.9999928578 ; deviation = -7.142e-06
      Nbeta    =    8.9999968857 ; deviation = -3.114e-06
      Ntotal   =   20.9999897435 ; deviation = -1.026e-05 

   @Spin Contamination Metric:   3.370750442E-03
   @S^2 Expected:                3.750000000E+00
   @S^2 Observed:                3.753370750E+00
   @S   Expected:                1.500000000E+00
   @S   Observed:                1.500000000E+00

    Orbital Energies [Eh]
    ---------------------

    Alpha Occupied:                                                       

       1B2u  -30.483290     1Ag   -30.483266     2Ag    -1.108110  
       2B2u   -1.033022     3Ag    -0.290857     1B1u   -0.196751  
       1B3u   -0.196751     1B3g   -0.147102     1B1g   -0.147102  
       3B2u   -0.107835     2B1u    1.515848     2B3u    1.515848  

    Alpha Virtual:                                                        

       4Ag     1.738815     4B2u    1.758269     2B3g    1.799286  
       2B1g    1.799286     5Ag     2.041882     5B2u    2.768718  
       6Ag     5.039075     3B1u    5.074411     3B3u    5.074411  
       3B3g    5.097132     3B1g    5.097132     1B2g    5.129908  
       7Ag     5.129928     1Au     5.130981     6B2u    5.131000  
       7B2u    5.290489  

    Beta Occupied:                                                        

       1B2u  -30.422929     1Ag   -30.422918     2Ag    -1.021593  
       2B2u   -0.943693     3Ag    -0.146371     1B1u   -0.115912  
       1B3u   -0.115912     1B3g   -0.062669     1B1g   -0.062669  

    Beta Virtual:                                                         

       3B2u    0.126866     2B1u    1.691283     2B3u    1.691283  
       4B2u    1.842020     4Ag     1.848734     2B3g    1.911172  
       2B1g    1.911172     5Ag     2.129586     5B2u    2.859325  
       6Ag     5.125578     3B3u    5.147884     3B1u    5.147884  
       1B2g    5.168658     7Ag     5.168679     1Au     5.169749  
       6B2u    5.169770     3B3g    5.171795     3B1g    5.171795  
       7B2u    5.377775  

    Final Occupation by Irrep:
             Ag   B1g   B2g   B3g    Au   B1u   B2u   B3u 
    DOCC [     3,    1,    0,    1,    0,    1,    2,    1 ]
    SOCC [     0,    0,    0,    0,    0,    1,    1,    1 ]
    NA   [     3,    1,    0,    1,    0,    2,    3,    2 ]
    NB   [     3,    1,    0,    1,    0,    1,    2,    1 ]

  @DF-UKS Final Energy:  -254.82001838475250

   => Energetics <=

    Nuclear Repulsion Energy =             32.2619243812969501
    One-Electron Energy =                -434.9121056074775424
    Two-Electron Energy =                 168.4819425858457009
    DFT Exchange-Correlation Energy =     -20.6517797444175848
    Empirical Dispersion Energy =           0.0000000000000000
    VV10 Nonlocal Energy =                  0.0000000000000000
    Total Energy =                       -254.8200183847525011

  UHF NO Occupations:
  HONO-2 :    3B2u 1.0000000
  HONO-1 :    2B1u 1.0000000
  HONO-0 :    2B3u 1.0000000
  LUNO+0 :    4 Ag 0.0008000
  LUNO+1 :    2B3g 0.0003476
  LUNO+2 :    2B1g 0.0003476
  LUNO+3 :    4B2u 0.0000958


Computation Completed


Properties will be evaluated at   0.000000,   0.000000,   0.000000 [a0]

Properties computed using the SCF density matrix


 Multipole Moments:

 ------------------------------------------------------------------------------------
     Multipole            Electronic (a.u.)      Nuclear  (a.u.)        Total (a.u.)
 ------------------------------------------------------------------------------------

 L = 1.  Multiply by 2.5417464519 to convert [e a0] to [Debye]
 Dipole X            :          0.0000000            0.0000000            0.0000000
 Dipole Y            :          0.0000000            0.0000000            0.0000000
 Dipole Z            :          0.0000000            0.0000000            0.0000000
 Magnitude           :                                                    0.0000000

 ------------------------------------------------------------------------------------

*** tstop() called on Joses-MacBook-Pro-2.local at Thu Jul 17 10:57:32 2025
Module time:
	user time   =       2.56 seconds =       0.04 minutes
	system time =       3.23 seconds =       0.05 minutes
	total time  =          1 seconds =       0.02 minutes
Total time:
	user time   =      33.21 seconds =       0.55 minutes
	system time =      32.53 seconds =       0.54 minutes
	total time  =          7 seconds =       0.12 minutes

*** tstart() called on Joses-MacBook-Pro-2.local
*** at Thu Jul 17 10:57:32 2025


         ------------------------------------------------------------
                                   SCF GRAD                          
                          Rob Parrish, Justin Turney,                
                       Andy Simmonett, and Alex Sokolov              
         ------------------------------------------------------------

  ==> Geometry <==

    Molecular point group: d2h
    Full point group: D_inf_h

    Geometry (in Angstrom), charge = -1, multiplicity = 4:

       Center              X                  Y                   Z               Mass       
    ------------   -----------------  -----------------  -----------------  -----------------
         NE          -0.000000000000     0.820126543624     0.000000000000    19.992440176200
         NE           0.000000000000    -0.820126543624     0.000000000000    19.992440176200

  Nuclear repulsion =   32.261924381296950

  ==> Basis Set <==

  Basis Set: CC-PVDZ
    Blend: CC-PVDZ
    Number of shells: 12
    Number of basis functions: 28
    Number of Cartesian functions: 30
    Spherical Harmonics?: true
    Max angular momentum: 2

  ==> DFJKGrad: Density-Fitted SCF Gradients <==

    Gradient:                    1
    J tasked:                  Yes
    K tasked:                  Yes
    wK tasked:                  No
    OpenMP threads:              1
    Integrals threads:           1
    Memory [MiB]:              375
    Schwarz Cutoff:          1E-12
    Fitting Condition:       1E-10

   => Auxiliary Basis Set <=

  Basis Set: (CC-PVDZ AUX)
    Blend: CC-PVDZ-JKFIT
    Number of shells: 48
    Number of basis functions: 140
    Number of Cartesian functions: 162
    Spherical Harmonics?: true
    Max angular momentum: 3

  ==> DFT Potential <==

   => LibXC <=

    Version 6.2.2
    S. Lehtola, C. Steigemann, M. J.T. Oliveira, and M. A.L. Marques.,  SoftwareX 7, 1–5 (2018) (10.1016/j.softx.2017.11.002)

   => Composite Functional: B3LYP <= 

    B3LYP Hyb-GGA Exchange-Correlation Functional

    P. J. Stephens, F. J. Devlin, C. F. Chabalowski, and M. J. Frisch.,  J. Phys. Chem. 98, 11623 (1994) (10.1021/j100096a001)

    Deriv               =              1
    GGA                 =           TRUE
    Meta                =          FALSE

    Exchange Hybrid     =           TRUE
    MP2 Hybrid          =          FALSE

   => Exchange Functionals <=

    0.0800   Slater exchange
    0.7200         Becke 88

   => Exact (HF) Exchange <=

    0.2000               HF 

   => Correlation Functionals <=

    0.1900   Vosko, Wilk & Nusair (VWN5_RPA)
    0.8100   Lee, Yang & Parr

   => LibXC Density Thresholds  <==

    XC_HYB_GGA_XC_B3LYP:  1.00E-15 

   => Molecular Quadrature <=

    Radial Scheme          =       TREUTLER
    Pruning Scheme         =           NONE
    Nuclear Scheme         =       TREUTLER

    Blocking Scheme        =         OCTREE
    BS radius alpha        =              1
    Pruning alpha          =              1
    Radial Points          =             75
    Spherical Points       =            302
    Total Points           =          41958
    Total Blocks           =            386
    Max Points             =            234
    Max Functions          =             28
    Weights Tolerance      =       1.00E-15


  -Total Gradient:
     Atom            X                  Y                   Z
    ------   -----------------  -----------------  -----------------
       1        0.000000000000    -0.000139230047    -0.000000000000
       2       -0.000000000000     0.000139230047    -0.000000000000


*** tstop() called on Joses-MacBook-Pro-2.local at Thu Jul 17 10:57:32 2025
Module time:
	user time   =       0.63 seconds =       0.01 minutes
	system time =       1.09 seconds =       0.02 minutes
	total time  =          0 seconds =       0.00 minutes
Total time:
	user time   =      33.84 seconds =       0.56 minutes
	system time =      33.64 seconds =       0.56 minutes
	total time  =          7 seconds =       0.12 minutes

    			-----------------------------------------

    			 OPTKING 3.0: for geometry optimizations 

    			     By R.A. King, Bethel University     

    			        with contributions from          

    			    A.V. Copan, J. Cayton, A. Heide      

    			-----------------------------------------

    
	                            ===> Fragment 1 <== 

	 Z (Atomic Numbers)          Masses                          Geom                  
	      10.000000            19.992440         -0.00000000  1.54981456  0.00000000   
	      10.000000            19.992440          0.00000000 -1.54981456  0.00000000   

	 - Coordinate -           - BOHR/RAD -       - ANG/DEG -
	 R(1,2)           =         3.099629           1.640253


	        --- Internal Coordinate Step in ANG or DEG, aJ/ANG or AJ/DEG ---
	-------------------------------------------------------------------------------
	           Coordinate      Previous         Force          Change          New 
	           ----------      --------        ------          ------        ------
	               R(1,2)       1.64025        0.00115        0.00014       1.64040
	-------------------------------------------------------------------------------

	                                 ==> Convergence Check <==                                  
    
	Measures of convergence in internal coordinates in au.
    
	Criteria marked as inactive (o), active & met (*), and active & unmet ( ).

	----------------------------------------------------------------------------------------------
	   Step    Total Energy     Delta E     Max Force     RMS Force      Max Disp      RMS Disp   
	----------------------------------------------------------------------------------------------
	  Convergence Criteria     1.00e-06 *    3.00e-04 *             o    1.20e-03 *             o
	----------------------------------------------------------------------------------------------
	     8    -254.82001838   -5.54e-07 *    1.39e-04 *    1.39e-04 o    2.71e-04 *    2.71e-04 o  ~
	----------------------------------------------------------------------------------------------

Next Geometry in Ang 
	Fragment 1 (Ang)

	   Ne  -0.0000000000   0.8201982120   0.0000000000
	   Ne   0.0000000000  -0.8201982120   0.0000000000


    Final optimized geometry and variables:
    Molecular point group: d2h
    Full point group: D_inf_h

    Geometry (in Angstrom), charge = -1, multiplicity = 4:

    NE          -0.000000000000     0.820126543624     0.000000000000
    NE           0.000000000000    -0.820126543624     0.000000000000


    Psi4 stopped on: Thursday, 17 July 2025 10:57AM
    Psi4 wall time for execution: 0:00:07.45

*** Psi4 exiting successfully. Buy a developer a beer!
