
    -----------------------------------------------------------------------
          Psi4: An Open-Source Ab Initio Electronic Structure Package
                               Psi4 1.9.1 release

                         Git: Rev {} zzzzzzz 


    D. G. A. Smith, L. A. Burns, A. C. Simmonett, R. M. Parrish,
    M. C. Schieber, R. Galvelis, P. Kraus, H. Kruse, R. Di Remigio,
    A. Alenaizan, A. M. James, S. Lehtola, J. P. Misiewicz, M. Scheurer,
    R. A. Shaw, J. B. Schriber, Y. Xie, Z. L. Glick, D. A. Sirianni,
    J. S. O'Brien, J. M. Waldrop, A. Kumar, E. G. Hohenstein,
    B. P. Pritchard, B. R. Brooks, H. F. Schaefer III, A. Yu. Sokolov,
    K. Patkowski, A. E. DePrince III, U. Bozkaya, R. A. King,
    F. A. Evangelista, J. M. Turney, T. D. Crawford, C. D. Sherrill,
    J. Chem. Phys. 152(18) 184108 (2020). https://doi.org/10.1063/5.0006002

                            Additional Code Authors
    E. T. Seidl, C. L. Janssen, E. F. Valeev, M. L. Leininger,
    J. F. Gonthier, R. M. Richard, H. R. McAlexander, M. Saitow, X. Wang,
    P. Verma, M. H. Lechner, A. Jiang, S. Behnle, A. G. Heide,
    M. F. Herbst, and D. L. Poole

             Previous Authors, Complete List of Code Contributors,
                       and Citations for Specific Modules
    https://github.com/psi4/psi4/blob/master/codemeta.json
    https://github.com/psi4/psi4/graphs/contributors
    http://psicode.org/psi4manual/master/introduction.html#citing-psifour

    -----------------------------------------------------------------------


    Psi4 started on: Thursday, 17 July 2025 12:12PM

    Process ID: 73557
    Host:       Joses-MacBook-Pro-2.local
    PSIDATADIR: /Users/joseantoniorodriguesromero/anaconda3/share/psi4
    Memory:     500.0 MiB
    Threads:    1
    
  ==> Input File <==

--------------------------------------------------------------------------
molecule { 
-1 4
Ar   0.00000        0.60000        0.00000
Ar   0.00000       -0.60000        0.00000
}

set { 
basis              cc-pvdz
reference          uks
maxiter            500
geom_maxiter       500
DAMPING_PERCENTAGE 1
guess              SAP
}

optimize('b3lyp')
--------------------------------------------------------------------------

Scratch directory: /tmp/
gradient() will perform analytic gradient computation.
   => Libint2 <=

    Primary   basis highest AM E, G, H:  6, 6, 3
    Auxiliary basis highest AM E, G, H:  7, 7, 4
    Onebody   basis highest AM E, G, H:  -, -, -
    Solid Harmonics ordering:            Gaussian

*** tstart() called on Joses-MacBook-Pro-2.local
*** at Thu Jul 17 12:12:29 2025

   => Loading Basis Set <=

    Name: CC-PVDZ
    Role: ORBITAL
    Keyword: BASIS
    atoms 1-2 entry AR         line   718 file /Users/joseantoniorodriguesromero/anaconda3/share/psi4/basis/cc-pvdz.gbs 


         ---------------------------------------------------------
                                   SCF
               by Justin Turney, Rob Parrish, Andy Simmonett
                          and Daniel G. A. Smith
                              UKS Reference
                        1 Threads,    500 MiB Core
         ---------------------------------------------------------

  ==> Geometry <==

    Molecular point group: d2h
    Full point group: D_inf_h

    Geometry (in Angstrom), charge = -1, multiplicity = 4:

       Center              X                  Y                   Z               Mass       
    ------------   -----------------  -----------------  -----------------  -----------------
         AR          -0.000000000000     0.600000000000     0.000000000000    39.962383123700
         AR           0.000000000000    -0.600000000000     0.000000000000    39.962383123700

  Running in d2h symmetry.

  Rotational constants: A = ************  B =      0.58589  C =      0.58589 [cm^-1]
  Rotational constants: A = ************  B =  17564.40020  C =  17564.40020 [MHz]
  Nuclear repulsion =  142.877846880900023

  Charge       = -1
  Multiplicity = 4
  Electrons    = 37
  Nalpha       = 20
  Nbeta        = 17

  ==> Algorithm <==

  SCF Algorithm Type is DF.
  DIIS enabled.
  MOM disabled.
  Fractional occupation disabled.
  Guess Type is SAP.
  Energy threshold   = 1.00e-08
  Density threshold  = 1.00e-08
  Integral threshold = 1.00e-12

  ==> Primary Basis <==

  Basis Set: CC-PVDZ
    Blend: CC-PVDZ
    Number of shells: 16
    Number of basis functions: 36
    Number of Cartesian functions: 38
    Spherical Harmonics?: true
    Max angular momentum: 2

  ==> DFT Potential <==

   => LibXC <=

    Version 6.2.2
    S. Lehtola, C. Steigemann, M. J.T. Oliveira, and M. A.L. Marques.,  SoftwareX 7, 1–5 (2018) (10.1016/j.softx.2017.11.002)

   => Composite Functional: B3LYP <= 

    B3LYP Hyb-GGA Exchange-Correlation Functional

    P. J. Stephens, F. J. Devlin, C. F. Chabalowski, and M. J. Frisch.,  J. Phys. Chem. 98, 11623 (1994) (10.1021/j100096a001)

    Deriv               =              1
    GGA                 =           TRUE
    Meta                =          FALSE

    Exchange Hybrid     =           TRUE
    MP2 Hybrid          =          FALSE

   => Exchange Functionals <=

    0.0800   Slater exchange
    0.7200         Becke 88

   => Exact (HF) Exchange <=

    0.2000               HF 

   => Correlation Functionals <=

    0.1900   Vosko, Wilk & Nusair (VWN5_RPA)
    0.8100   Lee, Yang & Parr

   => LibXC Density Thresholds  <==

    XC_HYB_GGA_XC_B3LYP:  1.00E-15 

   => Molecular Quadrature <=

    Radial Scheme          =       TREUTLER
    Pruning Scheme         =           NONE
    Nuclear Scheme         =       TREUTLER

    Blocking Scheme        =         OCTREE
    BS radius alpha        =              1
    Pruning alpha          =              1
    Radial Points          =             75
    Spherical Points       =            302
    Total Points           =          38926
    Total Blocks           =            362
    Max Points             =            254
    Max Functions          =             36
    Weights Tolerance      =       1.00E-15

   => Loading Basis Set <=

    Name: (CC-PVDZ AUX)
    Role: JKFIT
    Keyword: DF_BASIS_SCF
    atoms 1-2 entry AR         line   741 file /Users/joseantoniorodriguesromero/anaconda3/share/psi4/basis/cc-pvdz-jkfit.gbs 

  ==> Integral Setup <==

  DFHelper Memory: AOs need 0.003 GiB; user supplied 0.326 GiB. 
  Using in-core AOs.

  ==> MemDFJK: Density-Fitted J/K Matrices <==

    J tasked:                   Yes
    K tasked:                   Yes
    wK tasked:                   No
    OpenMP threads:               1
    Memory [MiB]:               333
    Algorithm:                 Core
    Schwarz Cutoff:           1E-12
    Mask sparsity (%):       0.0000
    Fitting Condition:        1E-10

   => Auxiliary Basis Set <=

  Basis Set: (CC-PVDZ AUX)
    Blend: CC-PVDZ-JKFIT
    Number of shells: 72
    Number of basis functions: 224
    Number of Cartesian functions: 260
    Spherical Harmonics?: true
    Max angular momentum: 3

  Cached 100.0% of DFT collocation blocks in 0.040 [GiB].

  Minimum eigenvalue in the overlap matrix is 1.5673865580E-02.
  Reciprocal condition number of the overlap matrix is 5.4988539157E-03.
    Using symmetric orthogonalization.

  ==> Pre-Iterations <==

  SCF Guess: Superposition of Atomic Potentials (doi:10.1021/acs.jctc.8b01089).

  ==> SAP guess <==

   => Molecular Quadrature <=

    Radial Scheme          =       TREUTLER
    Pruning Scheme         =           NONE
    Nuclear Scheme         =       TREUTLER

    Blocking Scheme        =         OCTREE
    BS radius alpha        =              1
    Pruning alpha          =              1
    Radial Points          =             75
    Spherical Points       =            302
    Total Points           =          38926
    Total Blocks           =            362
    Max Points             =            254
    Max Functions          =             36
    Weights Tolerance      =       1.00E-15

   -------------------------------------------------------
    Irrep   Nso     Nmo     Nalpha   Nbeta   Ndocc  Nsocc
   -------------------------------------------------------
     Ag         9       9       6       5       5       1
     B1g        4       4       2       2       2       0
     B2g        1       1       0       0       0       0
     B3g        4       4       2       2       2       0
     Au         1       1       0       0       0       0
     B1u        4       4       3       2       2       1
     B2u        9       9       5       4       4       1
     B3u        4       4       2       2       2       0
   -------------------------------------------------------
    Total      36      36      20      17      17       3
   -------------------------------------------------------

  ==> Iterations <==

                           Total Energy        Delta E     RMS |[F,P]|

   @DF-UKS iter   1: -1052.21992178775417   -1.05222e+03   4.55010e-02 ADIIS/DIIS
   @DF-UKS iter   2: -1052.28809381464157   -6.81720e-02   4.09693e-02 ADIIS/DIIS/DAMP=1%
   @DF-UKS iter   3: -1052.41781560049662   -1.29722e-01   1.87983e-03 ADIIS/DIIS/DAMP=1%
   @DF-UKS iter   4: -1052.47862284974690   -6.08072e-02   5.42825e-04 ADIIS/DIIS/DAMP=1%
   @DF-UKS iter   5: -1052.47504953559019    3.57331e-03   8.57647e-05 DIIS/DAMP=1%
   @DF-UKS iter   6: -1052.47568932295530   -6.39787e-04   8.84169e-06 DIIS/DAMP=1%
   @DF-UKS iter   7: -1052.47570423271850   -1.49098e-05   4.91606e-07 DIIS/DAMP=1%
   @DF-UKS iter   8: -1052.47569728764302    6.94508e-06   2.98706e-08 DIIS/DAMP=1%
   @DF-UKS iter   9: -1052.47569666703134    6.20612e-07   4.04227e-09 DIIS/DAMP=1%
   @DF-UKS iter  10: -1052.47569668916594   -2.21346e-08   3.26770e-10 DIIS/DAMP=1%
   @DF-UKS iter  11: -1052.47569668452343    4.64252e-09   1.88196e-11 DIIS/DAMP=1%
  Energy and wave function converged.


  ==> Post-Iterations <==

   Electrons on quadrature grid:
      Nalpha   =   19.9999993450 ; deviation = -6.550e-07
      Nbeta    =   16.9999992395 ; deviation = -7.605e-07
      Ntotal   =   36.9999985845 ; deviation = -1.416e-06 

   @Spin Contamination Metric:   8.881015821E-04
   @S^2 Expected:                3.750000000E+00
   @S^2 Observed:                3.750888102E+00
   @S   Expected:                1.500000000E+00
   @S   Observed:                1.500000000E+00

    Orbital Energies [Eh]
    ---------------------

    Alpha Occupied:                                                       

       1Ag  -114.900570     1B2u -114.900566     2Ag   -10.970109  
       2B2u  -10.960476     3Ag    -8.541359     3B2u   -8.516237  
       1B3u   -8.504258     1B1g   -8.501685     1B1u   -8.501328  
       1B3g   -8.498692     4Ag    -1.287177     4B2u   -0.564484  
       2B3u   -0.484144     2B1u   -0.480184     5Ag    -0.385749  
       2B1g   -0.031550     2B3g   -0.024049     5B2u    0.340871  
       6Ag     0.405795     3B1u    0.511916  

    Alpha Virtual:                                                        

       3B3u    0.583222     6B2u    0.823487     1B2g    0.838854  
       7Ag     0.839290     8Ag     0.873969     3B1g    0.880603  
       3B3g    0.882469     4B3u    0.930985     4B1u    0.931749  
       1Au     1.224746     7B2u    1.225066     9Ag     1.503904  
       8B2u    1.543853     4B3g    1.768899     4B1g    1.772113  
       9B2u    2.763677  

    Beta Occupied:                                                        

       1Ag  -114.897065     1B2u -114.897061     2Ag   -10.965033  
       2B2u  -10.955734     3Ag    -8.534986     3B2u   -8.510571  
       1B3u   -8.501476     1B1g   -8.498907     1B1u   -8.496097  
       1B3g   -8.493543     4Ag    -1.226066     4B2u   -0.533820  
       2B3u   -0.453292     2B1u   -0.427656     5Ag    -0.342234  
       2B1g   -0.012072     2B3g    0.007713  

    Beta Virtual:                                                         

       5B2u    0.464682     6Ag     0.540415     3B3u    0.608015  
       3B1u    0.629132     1B2g    0.866950     7Ag     0.867069  
       6B2u    0.868559     3B1g    0.898285     3B3g    0.915957  
       8Ag     0.916912     4B3u    0.944548     4B1u    0.959859  
       1Au     1.248916     7B2u    1.249248     9Ag     1.553461  
       8B2u    1.576459     4B1g    1.795520     4B3g    1.813141  
       9B2u    2.813084  

    Final Occupation by Irrep:
             Ag   B1g   B2g   B3g    Au   B1u   B2u   B3u 
    DOCC [     5,    2,    0,    2,    0,    2,    4,    2 ]
    SOCC [     1,    0,    0,    0,    0,    1,    1,    0 ]
    NA   [     6,    2,    0,    2,    0,    3,    5,    2 ]
    NB   [     5,    2,    0,    2,    0,    2,    4,    2 ]

  @DF-UKS Final Energy: -1052.47569668452343

   => Energetics <=

    Nuclear Repulsion Energy =            142.8778468809000231
    One-Electron Energy =               -1744.3133573608142797
    Two-Electron Energy =                 599.5169791557805183
    DFT Exchange-Correlation Energy =     -50.5571653603897460
    Empirical Dispersion Energy =           0.0000000000000000
    VV10 Nonlocal Energy =                  0.0000000000000000
    Total Energy =                      -1052.4756966845234274

  UHF NO Occupations:
  HONO-2 :    5B2u 1.0000000
  HONO-1 :    6 Ag 1.0000000
  HONO-0 :    3B1u 1.0000000
  LUNO+0 :    7 Ag 0.0002006
  LUNO+1 :    4B1u 0.0000928
  LUNO+2 :    6B2u 0.0000475
  LUNO+3 :    3B3g 0.0000420


Computation Completed


Properties will be evaluated at   0.000000,   0.000000,   0.000000 [a0]

Properties computed using the SCF density matrix


 Multipole Moments:

 ------------------------------------------------------------------------------------
     Multipole            Electronic (a.u.)      Nuclear  (a.u.)        Total (a.u.)
 ------------------------------------------------------------------------------------

 L = 1.  Multiply by 2.5417464519 to convert [e a0] to [Debye]
 Dipole X            :          0.0000000            0.0000000            0.0000000
 Dipole Y            :          0.0000000            0.0000000            0.0000000
 Dipole Z            :          0.0000000            0.0000000            0.0000000
 Magnitude           :                                                    0.0000000

 ------------------------------------------------------------------------------------

*** tstop() called on Joses-MacBook-Pro-2.local at Thu Jul 17 12:12:30 2025
Module time:
	user time   =      14.92 seconds =       0.25 minutes
	system time =       2.02 seconds =       0.03 minutes
	total time  =          1 seconds =       0.02 minutes
Total time:
	user time   =      14.92 seconds =       0.25 minutes
	system time =       2.02 seconds =       0.03 minutes
	total time  =          1 seconds =       0.02 minutes

*** tstart() called on Joses-MacBook-Pro-2.local
*** at Thu Jul 17 12:12:30 2025


         ------------------------------------------------------------
                                   SCF GRAD                          
                          Rob Parrish, Justin Turney,                
                       Andy Simmonett, and Alex Sokolov              
         ------------------------------------------------------------

  ==> Geometry <==

    Molecular point group: d2h
    Full point group: D_inf_h

    Geometry (in Angstrom), charge = -1, multiplicity = 4:

       Center              X                  Y                   Z               Mass       
    ------------   -----------------  -----------------  -----------------  -----------------
         AR          -0.000000000000     0.600000000000     0.000000000000    39.962383123700
         AR           0.000000000000    -0.600000000000     0.000000000000    39.962383123700

  Nuclear repulsion =  142.877846880900023

  ==> Basis Set <==

  Basis Set: CC-PVDZ
    Blend: CC-PVDZ
    Number of shells: 16
    Number of basis functions: 36
    Number of Cartesian functions: 38
    Spherical Harmonics?: true
    Max angular momentum: 2

  ==> DFJKGrad: Density-Fitted SCF Gradients <==

    Gradient:                    1
    J tasked:                  Yes
    K tasked:                  Yes
    wK tasked:                  No
    OpenMP threads:              1
    Integrals threads:           1
    Memory [MiB]:              375
    Schwarz Cutoff:          1E-12
    Fitting Condition:       1E-10

   => Auxiliary Basis Set <=

  Basis Set: (CC-PVDZ AUX)
    Blend: CC-PVDZ-JKFIT
    Number of shells: 72
    Number of basis functions: 224
    Number of Cartesian functions: 260
    Spherical Harmonics?: true
    Max angular momentum: 3

  ==> DFT Potential <==

   => LibXC <=

    Version 6.2.2
    S. Lehtola, C. Steigemann, M. J.T. Oliveira, and M. A.L. Marques.,  SoftwareX 7, 1–5 (2018) (10.1016/j.softx.2017.11.002)

   => Composite Functional: B3LYP <= 

    B3LYP Hyb-GGA Exchange-Correlation Functional

    P. J. Stephens, F. J. Devlin, C. F. Chabalowski, and M. J. Frisch.,  J. Phys. Chem. 98, 11623 (1994) (10.1021/j100096a001)

    Deriv               =              1
    GGA                 =           TRUE
    Meta                =          FALSE

    Exchange Hybrid     =           TRUE
    MP2 Hybrid          =          FALSE

   => Exchange Functionals <=

    0.0800   Slater exchange
    0.7200         Becke 88

   => Exact (HF) Exchange <=

    0.2000               HF 

   => Correlation Functionals <=

    0.1900   Vosko, Wilk & Nusair (VWN5_RPA)
    0.8100   Lee, Yang & Parr

   => LibXC Density Thresholds  <==

    XC_HYB_GGA_XC_B3LYP:  1.00E-15 

   => Molecular Quadrature <=

    Radial Scheme          =       TREUTLER
    Pruning Scheme         =           NONE
    Nuclear Scheme         =       TREUTLER

    Blocking Scheme        =         OCTREE
    BS radius alpha        =              1
    Pruning alpha          =              1
    Radial Points          =             75
    Spherical Points       =            302
    Total Points           =          38926
    Total Blocks           =            362
    Max Points             =            254
    Max Functions          =             36
    Weights Tolerance      =       1.00E-15


  -Total Gradient:
     Atom            X                  Y                   Z
    ------   -----------------  -----------------  -----------------
       1        0.000000000000    -3.099221861036     0.000000000000
       2       -0.000000000000     3.099221861036     0.000000000000


*** tstop() called on Joses-MacBook-Pro-2.local at Thu Jul 17 12:12:31 2025
Module time:
	user time   =       2.46 seconds =       0.04 minutes
	system time =       1.14 seconds =       0.02 minutes
	total time  =          1 seconds =       0.02 minutes
Total time:
	user time   =      17.39 seconds =       0.29 minutes
	system time =       3.16 seconds =       0.05 minutes
	total time  =          2 seconds =       0.03 minutes

    			-----------------------------------------

    			 OPTKING 3.0: for geometry optimizations 

    			     By R.A. King, Bethel University     

    			        with contributions from          

    			    A.V. Copan, J. Cayton, A. Heide      

    			-----------------------------------------

    
	                            ===> Fragment 1 <== 

	 Z (Atomic Numbers)          Masses                          Geom                  
	      18.000000            39.962383         -0.00000000  1.13383568  0.00000000   
	      18.000000            39.962383          0.00000000 -1.13383568  0.00000000   

	 - Coordinate -           - BOHR/RAD -       - ANG/DEG -
	 R(1,2)           =         2.267671           1.200000


	        --- Internal Coordinate Step in ANG or DEG, aJ/ANG or AJ/DEG ---
	-------------------------------------------------------------------------------
	           Coordinate      Previous         Force          Change          New 
	           ----------      --------        ------          ------        ------
	               R(1,2)       1.20000       25.53363        0.00753       1.20753
	-------------------------------------------------------------------------------

	                                 ==> Convergence Check <==                                  
    
	Measures of convergence in internal coordinates in au.
    
	Criteria marked as inactive (o), active & met (*), and active & unmet ( ).

	----------------------------------------------------------------------------------------------
	   Step    Total Energy     Delta E     Max Force     RMS Force      Max Disp      RMS Disp   
	----------------------------------------------------------------------------------------------
	  Convergence Criteria     1.00e-06 *    3.00e-04 *             o    1.20e-03 *             o
	----------------------------------------------------------------------------------------------
	     1   -1052.47569668   -1.05e+03      3.10e+00      3.10e+00 o    1.42e-02      1.42e-02 o  ~
	----------------------------------------------------------------------------------------------

Next Geometry in Ang 
	Fragment 1 (Ang)

	   Ar  -0.0000000000   0.6037638654   0.0000000000
	   Ar   0.0000000000  -0.6037638654   0.0000000000


    Structure for next step:
    Molecular point group: d2h
    Full point group: D_inf_h

    Geometry (in Angstrom), charge = -1, multiplicity = 4:

    AR          -0.000000000000     0.603763865400     0.000000000000
    AR           0.000000000000    -0.603763865400     0.000000000000


Scratch directory: /tmp/
gradient() will perform analytic gradient computation.
   => Libint2 <=

    Primary   basis highest AM E, G, H:  6, 6, 3
    Auxiliary basis highest AM E, G, H:  7, 7, 4
    Onebody   basis highest AM E, G, H:  -, -, -
    Solid Harmonics ordering:            Gaussian

*** tstart() called on Joses-MacBook-Pro-2.local
*** at Thu Jul 17 12:12:31 2025

   => Loading Basis Set <=

    Name: CC-PVDZ
    Role: ORBITAL
    Keyword: BASIS
    atoms 1-2 entry AR         line   718 file /Users/joseantoniorodriguesromero/anaconda3/share/psi4/basis/cc-pvdz.gbs 


         ---------------------------------------------------------
                                   SCF
               by Justin Turney, Rob Parrish, Andy Simmonett
                          and Daniel G. A. Smith
                              UKS Reference
                        1 Threads,    500 MiB Core
         ---------------------------------------------------------

  ==> Geometry <==

    Molecular point group: d2h
    Full point group: D_inf_h

    Geometry (in Angstrom), charge = -1, multiplicity = 4:

       Center              X                  Y                   Z               Mass       
    ------------   -----------------  -----------------  -----------------  -----------------
         AR          -0.000000000000     0.603763865400     0.000000000000    39.962383123700
         AR           0.000000000000    -0.603763865400     0.000000000000    39.962383123700

  Running in d2h symmetry.

  Rotational constants: A = ************  B =      0.57860  C =      0.57860 [cm^-1]
  Rotational constants: A = ************  B =  17346.08977  C =  17346.08977 [MHz]
  Nuclear repulsion =  141.987146037322248

  Charge       = -1
  Multiplicity = 4
  Electrons    = 37
  Nalpha       = 20
  Nbeta        = 17

  ==> Algorithm <==

  SCF Algorithm Type is DF.
  DIIS enabled.
  MOM disabled.
  Fractional occupation disabled.
  Guess Type is READ.
  Energy threshold   = 1.00e-08
  Density threshold  = 1.00e-08
  Integral threshold = 1.00e-12

  ==> Primary Basis <==

  Basis Set: CC-PVDZ
    Blend: CC-PVDZ
    Number of shells: 16
    Number of basis functions: 36
    Number of Cartesian functions: 38
    Spherical Harmonics?: true
    Max angular momentum: 2

  ==> DFT Potential <==

   => LibXC <=

    Version 6.2.2
    S. Lehtola, C. Steigemann, M. J.T. Oliveira, and M. A.L. Marques.,  SoftwareX 7, 1–5 (2018) (10.1016/j.softx.2017.11.002)

   => Composite Functional: B3LYP <= 

    B3LYP Hyb-GGA Exchange-Correlation Functional

    P. J. Stephens, F. J. Devlin, C. F. Chabalowski, and M. J. Frisch.,  J. Phys. Chem. 98, 11623 (1994) (10.1021/j100096a001)

    Deriv               =              1
    GGA                 =           TRUE
    Meta                =          FALSE

    Exchange Hybrid     =           TRUE
    MP2 Hybrid          =          FALSE

   => Exchange Functionals <=

    0.0800   Slater exchange
    0.7200         Becke 88

   => Exact (HF) Exchange <=

    0.2000               HF 

   => Correlation Functionals <=

    0.1900   Vosko, Wilk & Nusair (VWN5_RPA)
    0.8100   Lee, Yang & Parr

   => LibXC Density Thresholds  <==

    XC_HYB_GGA_XC_B3LYP:  1.00E-15 

   => Molecular Quadrature <=

    Radial Scheme          =       TREUTLER
    Pruning Scheme         =           NONE
    Nuclear Scheme         =       TREUTLER

    Blocking Scheme        =         OCTREE
    BS radius alpha        =              1
    Pruning alpha          =              1
    Radial Points          =             75
    Spherical Points       =            302
    Total Points           =          38926
    Total Blocks           =            362
    Max Points             =            254
    Max Functions          =             36
    Weights Tolerance      =       1.00E-15

   => Loading Basis Set <=

    Name: (CC-PVDZ AUX)
    Role: JKFIT
    Keyword: DF_BASIS_SCF
    atoms 1-2 entry AR         line   741 file /Users/joseantoniorodriguesromero/anaconda3/share/psi4/basis/cc-pvdz-jkfit.gbs 

   => Loading Basis Set <=

    Name: CC-PVDZ
    Role: ORBITAL
    Keyword: BASIS
    atoms 1-2 entry AR         line   718 file /Users/joseantoniorodriguesromero/anaconda3/share/psi4/basis/cc-pvdz.gbs 

  Reading orbitals from file /tmp/quartet_ArAr.default.73557.180.npy, no projection.

  ==> Integral Setup <==

  DFHelper Memory: AOs need 0.003 GiB; user supplied 0.326 GiB. 
  Using in-core AOs.

  ==> MemDFJK: Density-Fitted J/K Matrices <==

    J tasked:                   Yes
    K tasked:                   Yes
    wK tasked:                   No
    OpenMP threads:               1
    Memory [MiB]:               333
    Algorithm:                 Core
    Schwarz Cutoff:           1E-12
    Mask sparsity (%):       0.0000
    Fitting Condition:        1E-10

   => Auxiliary Basis Set <=

  Basis Set: (CC-PVDZ AUX)
    Blend: CC-PVDZ-JKFIT
    Number of shells: 72
    Number of basis functions: 224
    Number of Cartesian functions: 260
    Spherical Harmonics?: true
    Max angular momentum: 3

  Cached 100.0% of DFT collocation blocks in 0.040 [GiB].

  Minimum eigenvalue in the overlap matrix is 1.5872174612E-02.
  Reciprocal condition number of the overlap matrix is 5.5822112373E-03.
    Using symmetric orthogonalization.

  ==> Pre-Iterations <==

  SCF Guess: Orbitals guess was supplied from a previous computation.

   -------------------------------------------------------
    Irrep   Nso     Nmo     Nalpha   Nbeta   Ndocc  Nsocc
   -------------------------------------------------------
     Ag         9       9       6       5       5       1
     B1g        4       4       2       2       2       0
     B2g        1       1       0       0       0       0
     B3g        4       4       2       2       2       0
     Au         1       1       0       0       0       0
     B1u        4       4       3       2       2       1
     B2u        9       9       5       4       4       1
     B3u        4       4       2       2       2       0
   -------------------------------------------------------
    Total      36      36      20      17      17       3
   -------------------------------------------------------

  ==> Iterations <==

                           Total Energy        Delta E     RMS |[F,P]|

   @DF-UKS iter   0: -1052.51380036452019   -1.05251e+03   1.22229e-02 
   @DF-UKS iter   1: -1052.51889584246169   -5.09548e-03   6.39915e-04 ADIIS/DIIS
   @DF-UKS iter   2: -1052.51891542326439   -1.95808e-05   5.36148e-04 ADIIS/DIIS/DAMP=1%
   @DF-UKS iter   3: -1052.51969919037333   -7.83767e-04   2.51075e-05 DIIS/DAMP=1%
   @DF-UKS iter   4: -1052.51895140881675    7.47782e-04   7.83958e-06 DIIS/DAMP=1%
   @DF-UKS iter   5: -1052.51895431589492   -2.90708e-06   5.04056e-07 DIIS/DAMP=1%
   @DF-UKS iter   6: -1052.51894922376528    5.09213e-06   5.55721e-08 DIIS/DAMP=1%
   @DF-UKS iter   7: -1052.51894876339975    4.60366e-07   8.79389e-09 DIIS/DAMP=1%
   @DF-UKS iter   8: -1052.51894882649572   -6.30960e-08   9.71026e-10 DIIS/DAMP=1%
   @DF-UKS iter   9: -1052.51894881310204    1.33937e-08   4.13161e-11 DIIS/DAMP=1%
   @DF-UKS iter  10: -1052.51894881441171   -1.30967e-09   4.03277e-12 DIIS/DAMP=1%
  Energy and wave function converged.


  ==> Post-Iterations <==

   Electrons on quadrature grid:
      Nalpha   =   19.9999996203 ; deviation = -3.797e-07
      Nbeta    =   16.9999995014 ; deviation = -4.986e-07
      Ntotal   =   36.9999991217 ; deviation = -8.783e-07 

   @Spin Contamination Metric:   8.933157858E-04
   @S^2 Expected:                3.750000000E+00
   @S^2 Observed:                3.750893316E+00
   @S   Expected:                1.500000000E+00
   @S   Observed:                1.500000000E+00

    Orbital Energies [Eh]
    ---------------------

    Alpha Occupied:                                                       

       1Ag  -114.898529     1B2u -114.898526     2Ag   -10.965916  
       2B2u  -10.956938     3Ag    -8.536578     3B2u   -8.512892  
       1B3u   -8.500874     1B1g   -8.498470     1B1u   -8.497949  
       1B3g   -8.495483     4Ag    -1.278887     4B2u   -0.564799  
       2B3u   -0.477815     2B1u   -0.473962     5Ag    -0.384770  
       2B1g   -0.032417     2B3g   -0.024871     5B2u    0.338131  
       6Ag     0.408202     3B1u    0.516270  

    Alpha Virtual:                                                        

       3B3u    0.587761     6B2u    0.821011     1B2g    0.844423  
       7Ag     0.844841     8Ag     0.875098     3B1g    0.880540  
       3B3g    0.882264     4B3u    0.929838     4B1u    0.930579  
       1Au     1.223509     7B2u    1.223825     9Ag     1.503455  
       8B2u    1.540366     4B3g    1.761038     4B1g    1.764383  
       9B2u    2.734892  

    Beta Occupied:                                                        

       1Ag  -114.894981     1B2u -114.894978     2Ag   -10.960817  
       2B2u  -10.952160     3Ag    -8.530096     3B2u   -8.507098  
       1B3u   -8.498069     1B1g   -8.495668     1B1u   -8.492667  
       1B3g   -8.490281     4Ag    -1.217236     4B2u   -0.534025  
       2B3u   -0.446829     2B1u   -0.421235     5Ag    -0.340959  
       2B1g   -0.012863     2B3g    0.006900  

    Beta Virtual:                                                         

       5B2u    0.462150     6Ag     0.542854     3B3u    0.612655  
       3B1u    0.633707     6B2u    0.866211     1B2g    0.872565  
       7Ag     0.872660     3B1g    0.898202     3B3g    0.915849  
       8Ag     0.917691     4B3u    0.943394     4B1u    0.958653  
       1Au     1.247760     7B2u    1.248089     9Ag     1.553205  
       8B2u    1.573090     4B1g    1.787999     4B3g    1.805597  
       9B2u    2.784798  

    Final Occupation by Irrep:
             Ag   B1g   B2g   B3g    Au   B1u   B2u   B3u 
    DOCC [     5,    2,    0,    2,    0,    2,    4,    2 ]
    SOCC [     1,    0,    0,    0,    0,    1,    1,    0 ]
    NA   [     6,    2,    0,    2,    0,    3,    5,    2 ]
    NB   [     5,    2,    0,    2,    0,    2,    4,    2 ]

  @DF-UKS Final Energy: -1052.51894881441171

   => Energetics <=

    Nuclear Repulsion Energy =            141.9871460373222476
    One-Electron Energy =               -1742.7365863584718682
    Two-Electron Energy =                 598.7782057393220612
    DFT Exchange-Correlation Energy =     -50.5477142325841058
    Empirical Dispersion Energy =           0.0000000000000000
    VV10 Nonlocal Energy =                  0.0000000000000000
    Total Energy =                      -1052.5189488144117149

  UHF NO Occupations:
  HONO-2 :    3B1u 1.0000000
  HONO-1 :    6 Ag 1.0000000
  HONO-0 :    5B2u 1.0000000
  LUNO+0 :    7 Ag 0.0001995
  LUNO+1 :    4B1u 0.0000946
  LUNO+2 :    6B2u 0.0000492
  LUNO+3 :    3B3g 0.0000404


Computation Completed


Properties will be evaluated at   0.000000,   0.000000,   0.000000 [a0]

Properties computed using the SCF density matrix


 Multipole Moments:

 ------------------------------------------------------------------------------------
     Multipole            Electronic (a.u.)      Nuclear  (a.u.)        Total (a.u.)
 ------------------------------------------------------------------------------------

 L = 1.  Multiply by 2.5417464519 to convert [e a0] to [Debye]
 Dipole X            :          0.0000000            0.0000000            0.0000000
 Dipole Y            :          0.0000000            0.0000000            0.0000000
 Dipole Z            :          0.0000000            0.0000000            0.0000000
 Magnitude           :                                                    0.0000000

 ------------------------------------------------------------------------------------

*** tstop() called on Joses-MacBook-Pro-2.local at Thu Jul 17 12:12:32 2025
Module time:
	user time   =       7.52 seconds =       0.13 minutes
	system time =       2.30 seconds =       0.04 minutes
	total time  =          1 seconds =       0.02 minutes
Total time:
	user time   =      25.09 seconds =       0.42 minutes
	system time =       5.61 seconds =       0.09 minutes
	total time  =          3 seconds =       0.05 minutes

*** tstart() called on Joses-MacBook-Pro-2.local
*** at Thu Jul 17 12:12:32 2025


         ------------------------------------------------------------
                                   SCF GRAD                          
                          Rob Parrish, Justin Turney,                
                       Andy Simmonett, and Alex Sokolov              
         ------------------------------------------------------------

  ==> Geometry <==

    Molecular point group: d2h
    Full point group: D_inf_h

    Geometry (in Angstrom), charge = -1, multiplicity = 4:

       Center              X                  Y                   Z               Mass       
    ------------   -----------------  -----------------  -----------------  -----------------
         AR          -0.000000000000     0.603763865400     0.000000000000    39.962383123700
         AR           0.000000000000    -0.603763865400     0.000000000000    39.962383123700

  Nuclear repulsion =  141.987146037322248

  ==> Basis Set <==

  Basis Set: CC-PVDZ
    Blend: CC-PVDZ
    Number of shells: 16
    Number of basis functions: 36
    Number of Cartesian functions: 38
    Spherical Harmonics?: true
    Max angular momentum: 2

  ==> DFJKGrad: Density-Fitted SCF Gradients <==

    Gradient:                    1
    J tasked:                  Yes
    K tasked:                  Yes
    wK tasked:                  No
    OpenMP threads:              1
    Integrals threads:           1
    Memory [MiB]:              375
    Schwarz Cutoff:          1E-12
    Fitting Condition:       1E-10

   => Auxiliary Basis Set <=

  Basis Set: (CC-PVDZ AUX)
    Blend: CC-PVDZ-JKFIT
    Number of shells: 72
    Number of basis functions: 224
    Number of Cartesian functions: 260
    Spherical Harmonics?: true
    Max angular momentum: 3

  ==> DFT Potential <==

   => LibXC <=

    Version 6.2.2
    S. Lehtola, C. Steigemann, M. J.T. Oliveira, and M. A.L. Marques.,  SoftwareX 7, 1–5 (2018) (10.1016/j.softx.2017.11.002)

   => Composite Functional: B3LYP <= 

    B3LYP Hyb-GGA Exchange-Correlation Functional

    P. J. Stephens, F. J. Devlin, C. F. Chabalowski, and M. J. Frisch.,  J. Phys. Chem. 98, 11623 (1994) (10.1021/j100096a001)

    Deriv               =              1
    GGA                 =           TRUE
    Meta                =          FALSE

    Exchange Hybrid     =           TRUE
    MP2 Hybrid          =          FALSE

   => Exchange Functionals <=

    0.0800   Slater exchange
    0.7200         Becke 88

   => Exact (HF) Exchange <=

    0.2000               HF 

   => Correlation Functionals <=

    0.1900   Vosko, Wilk & Nusair (VWN5_RPA)
    0.8100   Lee, Yang & Parr

   => LibXC Density Thresholds  <==

    XC_HYB_GGA_XC_B3LYP:  1.00E-15 

   => Molecular Quadrature <=

    Radial Scheme          =       TREUTLER
    Pruning Scheme         =           NONE
    Nuclear Scheme         =       TREUTLER

    Blocking Scheme        =         OCTREE
    BS radius alpha        =              1
    Pruning alpha          =              1
    Radial Points          =             75
    Spherical Points       =            302
    Total Points           =          38926
    Total Blocks           =            362
    Max Points             =            254
    Max Functions          =             36
    Weights Tolerance      =       1.00E-15


  -Total Gradient:
     Atom            X                  Y                   Z
    ------   -----------------  -----------------  -----------------
       1        0.000000000000    -2.982420367568     0.000000000000
       2       -0.000000000000     2.982420367568    -0.000000000000


*** tstop() called on Joses-MacBook-Pro-2.local at Thu Jul 17 12:12:32 2025
Module time:
	user time   =       2.15 seconds =       0.04 minutes
	system time =       1.24 seconds =       0.02 minutes
	total time  =          0 seconds =       0.00 minutes
Total time:
	user time   =      27.24 seconds =       0.45 minutes
	system time =       6.85 seconds =       0.11 minutes
	total time  =          3 seconds =       0.05 minutes

    			-----------------------------------------

    			 OPTKING 3.0: for geometry optimizations 

    			     By R.A. King, Bethel University     

    			        with contributions from          

    			    A.V. Copan, J. Cayton, A. Heide      

    			-----------------------------------------

    
	                            ===> Fragment 1 <== 

	 Z (Atomic Numbers)          Masses                          Geom                  
	      18.000000            39.962383         -0.00000000  1.14094835  0.00000000   
	      18.000000            39.962383          0.00000000 -1.14094835  0.00000000   

	 - Coordinate -           - BOHR/RAD -       - ANG/DEG -
	 R(1,2)           =         2.281897           1.207528


	        --- Internal Coordinate Step in ANG or DEG, aJ/ANG or AJ/DEG ---
	-------------------------------------------------------------------------------
	           Coordinate      Previous         Force          Change          New 
	           ----------      --------        ------          ------        ------
	               R(1,2)       1.20753       24.57134        0.01448       1.22201
	-------------------------------------------------------------------------------

	                                 ==> Convergence Check <==                                  
    
	Measures of convergence in internal coordinates in au.
    
	Criteria marked as inactive (o), active & met (*), and active & unmet ( ).

	----------------------------------------------------------------------------------------------
	   Step    Total Energy     Delta E     Max Force     RMS Force      Max Disp      RMS Disp   
	----------------------------------------------------------------------------------------------
	  Convergence Criteria     1.00e-06 *    3.00e-04 *             o    1.20e-03 *             o
	----------------------------------------------------------------------------------------------
	     2   -1052.51894881   -4.33e-02      2.98e+00      2.98e+00 o    2.74e-02      2.74e-02 o  ~
	----------------------------------------------------------------------------------------------

Next Geometry in Ang 
	Fragment 1 (Ang)

	   Ar  -0.0000000000   0.6110039369   0.0000000000
	   Ar   0.0000000000  -0.6110039369   0.0000000000


    Structure for next step:
    Molecular point group: d2h
    Full point group: D_inf_h

    Geometry (in Angstrom), charge = -1, multiplicity = 4:

    AR          -0.000000000000     0.611003936944     0.000000000000
    AR           0.000000000000    -0.611003936944     0.000000000000


Scratch directory: /tmp/
gradient() will perform analytic gradient computation.
   => Libint2 <=

    Primary   basis highest AM E, G, H:  6, 6, 3
    Auxiliary basis highest AM E, G, H:  7, 7, 4
    Onebody   basis highest AM E, G, H:  -, -, -
    Solid Harmonics ordering:            Gaussian

*** tstart() called on Joses-MacBook-Pro-2.local
*** at Thu Jul 17 12:12:32 2025

   => Loading Basis Set <=

    Name: CC-PVDZ
    Role: ORBITAL
    Keyword: BASIS
    atoms 1-2 entry AR         line   718 file /Users/joseantoniorodriguesromero/anaconda3/share/psi4/basis/cc-pvdz.gbs 


         ---------------------------------------------------------
                                   SCF
               by Justin Turney, Rob Parrish, Andy Simmonett
                          and Daniel G. A. Smith
                              UKS Reference
                        1 Threads,    500 MiB Core
         ---------------------------------------------------------

  ==> Geometry <==

    Molecular point group: d2h
    Full point group: D_inf_h

    Geometry (in Angstrom), charge = -1, multiplicity = 4:

       Center              X                  Y                   Z               Mass       
    ------------   -----------------  -----------------  -----------------  -----------------
         AR          -0.000000000000     0.611003936944     0.000000000000    39.962383123700
         AR           0.000000000000    -0.611003936944     0.000000000000    39.962383123700

  Running in d2h symmetry.

  Rotational constants: A = ************  B =      0.56497  C =      0.56497 [cm^-1]
  Rotational constants: A = ************  B =  16937.44147  C =  16937.44147 [MHz]
  Nuclear repulsion =  140.304673906494713

  Charge       = -1
  Multiplicity = 4
  Electrons    = 37
  Nalpha       = 20
  Nbeta        = 17

  ==> Algorithm <==

  SCF Algorithm Type is DF.
  DIIS enabled.
  MOM disabled.
  Fractional occupation disabled.
  Guess Type is READ.
  Energy threshold   = 1.00e-08
  Density threshold  = 1.00e-08
  Integral threshold = 1.00e-12

  ==> Primary Basis <==

  Basis Set: CC-PVDZ
    Blend: CC-PVDZ
    Number of shells: 16
    Number of basis functions: 36
    Number of Cartesian functions: 38
    Spherical Harmonics?: true
    Max angular momentum: 2

  ==> DFT Potential <==

   => LibXC <=

    Version 6.2.2
    S. Lehtola, C. Steigemann, M. J.T. Oliveira, and M. A.L. Marques.,  SoftwareX 7, 1–5 (2018) (10.1016/j.softx.2017.11.002)

   => Composite Functional: B3LYP <= 

    B3LYP Hyb-GGA Exchange-Correlation Functional

    P. J. Stephens, F. J. Devlin, C. F. Chabalowski, and M. J. Frisch.,  J. Phys. Chem. 98, 11623 (1994) (10.1021/j100096a001)

    Deriv               =              1
    GGA                 =           TRUE
    Meta                =          FALSE

    Exchange Hybrid     =           TRUE
    MP2 Hybrid          =          FALSE

   => Exchange Functionals <=

    0.0800   Slater exchange
    0.7200         Becke 88

   => Exact (HF) Exchange <=

    0.2000               HF 

   => Correlation Functionals <=

    0.1900   Vosko, Wilk & Nusair (VWN5_RPA)
    0.8100   Lee, Yang & Parr

   => LibXC Density Thresholds  <==

    XC_HYB_GGA_XC_B3LYP:  1.00E-15 

   => Molecular Quadrature <=

    Radial Scheme          =       TREUTLER
    Pruning Scheme         =           NONE
    Nuclear Scheme         =       TREUTLER

    Blocking Scheme        =         OCTREE
    BS radius alpha        =              1
    Pruning alpha          =              1
    Radial Points          =             75
    Spherical Points       =            302
    Total Points           =          38942
    Total Blocks           =            362
    Max Points             =            254
    Max Functions          =             36
    Weights Tolerance      =       1.00E-15

   => Loading Basis Set <=

    Name: (CC-PVDZ AUX)
    Role: JKFIT
    Keyword: DF_BASIS_SCF
    atoms 1-2 entry AR         line   741 file /Users/joseantoniorodriguesromero/anaconda3/share/psi4/basis/cc-pvdz-jkfit.gbs 

   => Loading Basis Set <=

    Name: CC-PVDZ
    Role: ORBITAL
    Keyword: BASIS
    atoms 1-2 entry AR         line   718 file /Users/joseantoniorodriguesromero/anaconda3/share/psi4/basis/cc-pvdz.gbs 

  Reading orbitals from file /tmp/quartet_ArAr.default.73557.180.npy, no projection.

  ==> Integral Setup <==

  DFHelper Memory: AOs need 0.003 GiB; user supplied 0.326 GiB. 
  Using in-core AOs.

  ==> MemDFJK: Density-Fitted J/K Matrices <==

    J tasked:                   Yes
    K tasked:                   Yes
    wK tasked:                   No
    OpenMP threads:               1
    Memory [MiB]:               333
    Algorithm:                 Core
    Schwarz Cutoff:           1E-12
    Mask sparsity (%):       0.0000
    Fitting Condition:        1E-10

   => Auxiliary Basis Set <=

  Basis Set: (CC-PVDZ AUX)
    Blend: CC-PVDZ-JKFIT
    Number of shells: 72
    Number of basis functions: 224
    Number of Cartesian functions: 260
    Spherical Harmonics?: true
    Max angular momentum: 3

  Cached 100.0% of DFT collocation blocks in 0.040 [GiB].

  Minimum eigenvalue in the overlap matrix is 1.6260928089E-02.
  Reciprocal condition number of the overlap matrix is 5.7466857640E-03.
    Using symmetric orthogonalization.

  ==> Pre-Iterations <==

  SCF Guess: Orbitals guess was supplied from a previous computation.

   -------------------------------------------------------
    Irrep   Nso     Nmo     Nalpha   Nbeta   Ndocc  Nsocc
   -------------------------------------------------------
     Ag         9       9       6       5       5       1
     B1g        4       4       2       2       2       0
     B2g        1       1       0       0       0       0
     B3g        4       4       2       2       2       0
     Au         1       1       0       0       0       0
     B1u        4       4       3       2       2       1
     B2u        9       9       5       4       4       1
     B3u        4       4       2       2       2       0
   -------------------------------------------------------
    Total      36      36      20      17      17       3
   -------------------------------------------------------

  ==> Iterations <==

                           Total Energy        Delta E     RMS |[F,P]|

   @DF-UKS iter   0: -1052.58958441681261   -1.05259e+03   2.30639e-02 
   @DF-UKS iter   1: -1052.59742952893225   -7.84511e-03   1.18181e-03 ADIIS/DIIS
   @DF-UKS iter   2: -1052.59749729300779   -6.77641e-05   9.89614e-04 ADIIS/DIIS/DAMP=1%
   @DF-UKS iter   3: -1052.59899742700350   -1.50013e-03   4.92113e-05 DIIS/DAMP=1%
   @DF-UKS iter   4: -1052.59761392447899    1.38350e-03   1.52022e-05 DIIS/DAMP=1%
   @DF-UKS iter   5: -1052.59762186583521   -7.94136e-06   9.88982e-07 DIIS/DAMP=1%
   @DF-UKS iter   6: -1052.59761194533280    9.92050e-06   1.07656e-07 DIIS/DAMP=1%
   @DF-UKS iter   7: -1052.59761109669876    8.48634e-07   1.70736e-08 DIIS/DAMP=1%
   @DF-UKS iter   8: -1052.59761121257520   -1.15876e-07   1.91288e-09 DIIS/DAMP=1%
   @DF-UKS iter   9: -1052.59761118680262    2.57726e-08   8.40403e-11 DIIS/DAMP=1%
   @DF-UKS iter  10: -1052.59761118937035   -2.56773e-09   8.41766e-12 DIIS/DAMP=1%
  Energy and wave function converged.


  ==> Post-Iterations <==

   Electrons on quadrature grid:
      Nalpha   =   20.0000001759 ; deviation = 1.759e-07
      Nbeta    =   17.0000000315 ; deviation = 3.153e-08
      Ntotal   =   37.0000002074 ; deviation = 2.074e-07 

   @Spin Contamination Metric:   9.043792064E-04
   @S^2 Expected:                3.750000000E+00
   @S^2 Observed:                3.750904379E+00
   @S   Expected:                1.500000000E+00
   @S   Observed:                1.500000000E+00

    Orbital Energies [Eh]
    ---------------------

    Alpha Occupied:                                                       

       1Ag  -114.894702     1B2u -114.894699     2Ag   -10.958216  
       2B2u  -10.950375     3Ag    -8.527812     3B2u   -8.506665  
       1B3u   -8.494613     1B1g   -8.492505     1B1u   -8.491699  
       1B3g   -8.489531     4Ag    -1.262907     4B2u   -0.565449  
       2B3u   -0.465901     2B1u   -0.462247     5Ag    -0.382853  
       2B1g   -0.034079     2B3g   -0.026453     5B2u    0.332701  
       6Ag     0.412985     3B1u    0.524683  

    Alpha Virtual:                                                        

       3B3u    0.596520     6B2u    0.816404     1B2g    0.854938  
       7Ag     0.855306     8Ag     0.877255     3B1g    0.880402  
       3B3g    0.881845     4B3u    0.927633     4B1u    0.928329  
       1Au     1.221175     7B2u    1.221480     9Ag     1.502432  
       8B2u    1.533440     4B3g    1.746247     4B1g    1.749840  
       9B2u    2.681527  

    Beta Occupied:                                                        

       1Ag  -114.891067     1B2u -114.891064     2Ag   -10.953065  
       2B2u  -10.945523     3Ag    -8.521106     3B2u   -8.500611  
       1B3u   -8.491761     1B1g   -8.489653     1B1u   -8.486314  
       1B3g   -8.484219     4Ag    -1.200235     4B2u   -0.534455  
       2B3u   -0.434674     2B1u   -0.409167     5Ag    -0.338447  
       2B1g   -0.014381     2B3g    0.005342  

    Beta Virtual:                                                         

       5B2u    0.457144     6Ag     0.547693     3B3u    0.621621  
       3B1u    0.642551     6B2u    0.861841     1B2g    0.883160  
       7Ag     0.883193     3B1g    0.898035     3B3g    0.915634  
       8Ag     0.919185     4B3u    0.941178     4B1u    0.956338  
       1Au     1.245575     7B2u    1.245899     9Ag     1.552560  
       8B2u    1.566421     4B1g    1.773862     4B3g    1.791414  
       9B2u    2.732375  

    Final Occupation by Irrep:
             Ag   B1g   B2g   B3g    Au   B1u   B2u   B3u 
    DOCC [     5,    2,    0,    2,    0,    2,    4,    2 ]
    SOCC [     1,    0,    0,    0,    0,    1,    1,    0 ]
    NA   [     6,    2,    0,    2,    0,    3,    5,    2 ]
    NB   [     5,    2,    0,    2,    0,    2,    4,    2 ]

  @DF-UKS Final Energy: -1052.59761118937035

   => Energetics <=

    Nuclear Repulsion Energy =            140.3046739064947133
    One-Electron Energy =               -1739.7501596459146640
    Two-Electron Energy =                 597.3779695062183919
    DFT Exchange-Correlation Energy =     -50.5300949561689094
    Empirical Dispersion Energy =           0.0000000000000000
    VV10 Nonlocal Energy =                  0.0000000000000000
    Total Energy =                      -1052.5976111893703546

  UHF NO Occupations:
  HONO-2 :    3B1u 1.0000000
  HONO-1 :    6 Ag 1.0000000
  HONO-0 :    5B2u 1.0000000
  LUNO+0 :    7 Ag 0.0001973
  LUNO+1 :    4B1u 0.0000980
  LUNO+2 :    6B2u 0.0000528
  LUNO+3 :    3B3g 0.0000378


Computation Completed


Properties will be evaluated at   0.000000,   0.000000,   0.000000 [a0]

Properties computed using the SCF density matrix


 Multipole Moments:

 ------------------------------------------------------------------------------------
     Multipole            Electronic (a.u.)      Nuclear  (a.u.)        Total (a.u.)
 ------------------------------------------------------------------------------------

 L = 1.  Multiply by 2.5417464519 to convert [e a0] to [Debye]
 Dipole X            :          0.0000000            0.0000000            0.0000000
 Dipole Y            :          0.0000000            0.0000000            0.0000000
 Dipole Z            :          0.0000000            0.0000000            0.0000000
 Magnitude           :                                                    0.0000000

 ------------------------------------------------------------------------------------

*** tstop() called on Joses-MacBook-Pro-2.local at Thu Jul 17 12:12:33 2025
Module time:
	user time   =       7.13 seconds =       0.12 minutes
	system time =       1.52 seconds =       0.03 minutes
	total time  =          1 seconds =       0.02 minutes
Total time:
	user time   =      34.67 seconds =       0.58 minutes
	system time =       8.37 seconds =       0.14 minutes
	total time  =          4 seconds =       0.07 minutes

*** tstart() called on Joses-MacBook-Pro-2.local
*** at Thu Jul 17 12:12:33 2025


         ------------------------------------------------------------
                                   SCF GRAD                          
                          Rob Parrish, Justin Turney,                
                       Andy Simmonett, and Alex Sokolov              
         ------------------------------------------------------------

  ==> Geometry <==

    Molecular point group: d2h
    Full point group: D_inf_h

    Geometry (in Angstrom), charge = -1, multiplicity = 4:

       Center              X                  Y                   Z               Mass       
    ------------   -----------------  -----------------  -----------------  -----------------
         AR          -0.000000000000     0.611003936944     0.000000000000    39.962383123700
         AR           0.000000000000    -0.611003936944     0.000000000000    39.962383123700

  Nuclear repulsion =  140.304673906494713

  ==> Basis Set <==

  Basis Set: CC-PVDZ
    Blend: CC-PVDZ
    Number of shells: 16
    Number of basis functions: 36
    Number of Cartesian functions: 38
    Spherical Harmonics?: true
    Max angular momentum: 2

  ==> DFJKGrad: Density-Fitted SCF Gradients <==

    Gradient:                    1
    J tasked:                  Yes
    K tasked:                  Yes
    wK tasked:                  No
    OpenMP threads:              1
    Integrals threads:           1
    Memory [MiB]:              375
    Schwarz Cutoff:          1E-12
    Fitting Condition:       1E-10

   => Auxiliary Basis Set <=

  Basis Set: (CC-PVDZ AUX)
    Blend: CC-PVDZ-JKFIT
    Number of shells: 72
    Number of basis functions: 224
    Number of Cartesian functions: 260
    Spherical Harmonics?: true
    Max angular momentum: 3

  ==> DFT Potential <==

   => LibXC <=

    Version 6.2.2
    S. Lehtola, C. Steigemann, M. J.T. Oliveira, and M. A.L. Marques.,  SoftwareX 7, 1–5 (2018) (10.1016/j.softx.2017.11.002)

   => Composite Functional: B3LYP <= 

    B3LYP Hyb-GGA Exchange-Correlation Functional

    P. J. Stephens, F. J. Devlin, C. F. Chabalowski, and M. J. Frisch.,  J. Phys. Chem. 98, 11623 (1994) (10.1021/j100096a001)

    Deriv               =              1
    GGA                 =           TRUE
    Meta                =          FALSE

    Exchange Hybrid     =           TRUE
    MP2 Hybrid          =          FALSE

   => Exchange Functionals <=

    0.0800   Slater exchange
    0.7200         Becke 88

   => Exact (HF) Exchange <=

    0.2000               HF 

   => Correlation Functionals <=

    0.1900   Vosko, Wilk & Nusair (VWN5_RPA)
    0.8100   Lee, Yang & Parr

   => LibXC Density Thresholds  <==

    XC_HYB_GGA_XC_B3LYP:  1.00E-15 

   => Molecular Quadrature <=

    Radial Scheme          =       TREUTLER
    Pruning Scheme         =           NONE
    Nuclear Scheme         =       TREUTLER

    Blocking Scheme        =         OCTREE
    BS radius alpha        =              1
    Pruning alpha          =              1
    Radial Points          =             75
    Spherical Points       =            302
    Total Points           =          38942
    Total Blocks           =            362
    Max Points             =            254
    Max Functions          =             36
    Weights Tolerance      =       1.00E-15


  -Total Gradient:
     Atom            X                  Y                   Z
    ------   -----------------  -----------------  -----------------
       1        0.000000000000    -2.769423241031     0.000000000000
       2       -0.000000000000     2.769423241031     0.000000000000


*** tstop() called on Joses-MacBook-Pro-2.local at Thu Jul 17 12:12:33 2025
Module time:
	user time   =       2.53 seconds =       0.04 minutes
	system time =       0.87 seconds =       0.01 minutes
	total time  =          0 seconds =       0.00 minutes
Total time:
	user time   =      37.20 seconds =       0.62 minutes
	system time =       9.24 seconds =       0.15 minutes
	total time  =          4 seconds =       0.07 minutes

    			-----------------------------------------

    			 OPTKING 3.0: for geometry optimizations 

    			     By R.A. King, Bethel University     

    			        with contributions from          

    			    A.V. Copan, J. Cayton, A. Heide      

    			-----------------------------------------

    
	                            ===> Fragment 1 <== 

	 Z (Atomic Numbers)          Masses                          Geom                  
	      18.000000            39.962383         -0.00000000  1.15463010  0.00000000   
	      18.000000            39.962383          0.00000000 -1.15463010  0.00000000   

	 - Coordinate -           - BOHR/RAD -       - ANG/DEG -
	 R(1,2)           =         2.309260           1.222008


	        --- Internal Coordinate Step in ANG or DEG, aJ/ANG or AJ/DEG ---
	-------------------------------------------------------------------------------
	           Coordinate      Previous         Force          Change          New 
	           ----------      --------        ------          ------        ------
	               R(1,2)       1.22201       22.81651        0.05328       1.27529
	-------------------------------------------------------------------------------

	                                 ==> Convergence Check <==                                  
    
	Measures of convergence in internal coordinates in au.
    
	Criteria marked as inactive (o), active & met (*), and active & unmet ( ).

	----------------------------------------------------------------------------------------------
	   Step    Total Energy     Delta E     Max Force     RMS Force      Max Disp      RMS Disp   
	----------------------------------------------------------------------------------------------
	  Convergence Criteria     1.00e-06 *    3.00e-04 *             o    1.20e-03 *             o
	----------------------------------------------------------------------------------------------
	     3   -1052.59761119   -7.87e-02      2.77e+00      2.77e+00 o    1.01e-01      1.01e-01 o  ~
	----------------------------------------------------------------------------------------------

Next Geometry in Ang 
	Fragment 1 (Ang)

	   Ar  -0.0000000000   0.6376432955   0.0000000000
	   Ar   0.0000000000  -0.6376432955   0.0000000000


    Structure for next step:
    Molecular point group: d2h
    Full point group: D_inf_h

    Geometry (in Angstrom), charge = -1, multiplicity = 4:

    AR          -0.000000000000     0.637643295532     0.000000000000
    AR           0.000000000000    -0.637643295532     0.000000000000


Scratch directory: /tmp/
gradient() will perform analytic gradient computation.
   => Libint2 <=

    Primary   basis highest AM E, G, H:  6, 6, 3
    Auxiliary basis highest AM E, G, H:  7, 7, 4
    Onebody   basis highest AM E, G, H:  -, -, -
    Solid Harmonics ordering:            Gaussian

*** tstart() called on Joses-MacBook-Pro-2.local
*** at Thu Jul 17 12:12:33 2025

   => Loading Basis Set <=

    Name: CC-PVDZ
    Role: ORBITAL
    Keyword: BASIS
    atoms 1-2 entry AR         line   718 file /Users/joseantoniorodriguesromero/anaconda3/share/psi4/basis/cc-pvdz.gbs 


         ---------------------------------------------------------
                                   SCF
               by Justin Turney, Rob Parrish, Andy Simmonett
                          and Daniel G. A. Smith
                              UKS Reference
                        1 Threads,    500 MiB Core
         ---------------------------------------------------------

  ==> Geometry <==

    Molecular point group: d2h
    Full point group: D_inf_h

    Geometry (in Angstrom), charge = -1, multiplicity = 4:

       Center              X                  Y                   Z               Mass       
    ------------   -----------------  -----------------  -----------------  -----------------
         AR          -0.000000000000     0.637643295532     0.000000000000    39.962383123700
         AR           0.000000000000    -0.637643295532     0.000000000000    39.962383123700

  Running in d2h symmetry.

  Rotational constants: A = ************  B =      0.51875  C =      0.51875 [cm^-1]
  Rotational constants: A = ************  B =  15551.78448  C =  15551.78448 [MHz]
  Nuclear repulsion =  134.443047906711911

  Charge       = -1
  Multiplicity = 4
  Electrons    = 37
  Nalpha       = 20
  Nbeta        = 17

  ==> Algorithm <==

  SCF Algorithm Type is DF.
  DIIS enabled.
  MOM disabled.
  Fractional occupation disabled.
  Guess Type is READ.
  Energy threshold   = 1.00e-08
  Density threshold  = 1.00e-08
  Integral threshold = 1.00e-12

  ==> Primary Basis <==

  Basis Set: CC-PVDZ
    Blend: CC-PVDZ
    Number of shells: 16
    Number of basis functions: 36
    Number of Cartesian functions: 38
    Spherical Harmonics?: true
    Max angular momentum: 2

  ==> DFT Potential <==

   => LibXC <=

    Version 6.2.2
    S. Lehtola, C. Steigemann, M. J.T. Oliveira, and M. A.L. Marques.,  SoftwareX 7, 1–5 (2018) (10.1016/j.softx.2017.11.002)

   => Composite Functional: B3LYP <= 

    B3LYP Hyb-GGA Exchange-Correlation Functional

    P. J. Stephens, F. J. Devlin, C. F. Chabalowski, and M. J. Frisch.,  J. Phys. Chem. 98, 11623 (1994) (10.1021/j100096a001)

    Deriv               =              1
    GGA                 =           TRUE
    Meta                =          FALSE

    Exchange Hybrid     =           TRUE
    MP2 Hybrid          =          FALSE

   => Exchange Functionals <=

    0.0800   Slater exchange
    0.7200         Becke 88

   => Exact (HF) Exchange <=

    0.2000               HF 

   => Correlation Functionals <=

    0.1900   Vosko, Wilk & Nusair (VWN5_RPA)
    0.8100   Lee, Yang & Parr

   => LibXC Density Thresholds  <==

    XC_HYB_GGA_XC_B3LYP:  1.00E-15 

   => Molecular Quadrature <=

    Radial Scheme          =       TREUTLER
    Pruning Scheme         =           NONE
    Nuclear Scheme         =       TREUTLER

    Blocking Scheme        =         OCTREE
    BS radius alpha        =              1
    Pruning alpha          =              1
    Radial Points          =             75
    Spherical Points       =            302
    Total Points           =          38958
    Total Blocks           =            360
    Max Points             =            252
    Max Functions          =             36
    Weights Tolerance      =       1.00E-15

   => Loading Basis Set <=

    Name: (CC-PVDZ AUX)
    Role: JKFIT
    Keyword: DF_BASIS_SCF
    atoms 1-2 entry AR         line   741 file /Users/joseantoniorodriguesromero/anaconda3/share/psi4/basis/cc-pvdz-jkfit.gbs 

   => Loading Basis Set <=

    Name: CC-PVDZ
    Role: ORBITAL
    Keyword: BASIS
    atoms 1-2 entry AR         line   718 file /Users/joseantoniorodriguesromero/anaconda3/share/psi4/basis/cc-pvdz.gbs 

  Reading orbitals from file /tmp/quartet_ArAr.default.73557.180.npy, no projection.

  ==> Integral Setup <==

  DFHelper Memory: AOs need 0.003 GiB; user supplied 0.326 GiB. 
  Using in-core AOs.

  ==> MemDFJK: Density-Fitted J/K Matrices <==

    J tasked:                   Yes
    K tasked:                   Yes
    wK tasked:                   No
    OpenMP threads:               1
    Memory [MiB]:               333
    Algorithm:                 Core
    Schwarz Cutoff:           1E-12
    Mask sparsity (%):       0.0000
    Fitting Condition:        1E-10

   => Auxiliary Basis Set <=

  Basis Set: (CC-PVDZ AUX)
    Blend: CC-PVDZ-JKFIT
    Number of shells: 72
    Number of basis functions: 224
    Number of Cartesian functions: 260
    Spherical Harmonics?: true
    Max angular momentum: 3

  Cached 100.0% of DFT collocation blocks in 0.040 [GiB].

  Minimum eigenvalue in the overlap matrix is 1.7777631636E-02.
  Reciprocal condition number of the overlap matrix is 6.4004408147E-03.
    Using symmetric orthogonalization.

  ==> Pre-Iterations <==

  SCF Guess: Orbitals guess was supplied from a previous computation.

   -------------------------------------------------------
    Irrep   Nso     Nmo     Nalpha   Nbeta   Ndocc  Nsocc
   -------------------------------------------------------
     Ag         9       9       6       5       5       1
     B1g        4       4       2       2       2       0
     B2g        1       1       0       0       0       0
     B3g        4       4       2       2       2       0
     Au         1       1       0       0       0       0
     B1u        4       4       3       2       2       1
     B2u        9       9       5       4       4       1
     B3u        4       4       2       2       2       0
   -------------------------------------------------------
    Total      36      36      20      17      17       3
   -------------------------------------------------------

  ==> Iterations <==

                           Total Energy        Delta E     RMS |[F,P]|

   @DF-UKS iter   0: -1052.85282400113579   -1.05285e+03   8.17439e-02 
   @DF-UKS iter   1: -1052.83914672930473    1.36773e-02   4.18569e-03 ADIIS/DIIS
   @DF-UKS iter   2: -1052.84001518873379   -8.68459e-04   3.50183e-03 ADIIS/DIIS/DAMP=1%
   @DF-UKS iter   3: -1052.84634165705120   -6.32647e-03   1.98218e-04 ADIIS/DIIS/DAMP=1%
   @DF-UKS iter   4: -1052.84144754533918    4.89411e-03   5.93327e-05 DIIS/DAMP=1%
   @DF-UKS iter   5: -1052.84149010853207   -4.25632e-05   4.06837e-06 DIIS/DAMP=1%
   @DF-UKS iter   6: -1052.84145041208853    3.96964e-05   4.24375e-07 DIIS/DAMP=1%
   @DF-UKS iter   7: -1052.84144745665435    2.95543e-06   7.03766e-08 DIIS/DAMP=1%
   @DF-UKS iter   8: -1052.84144783936677   -3.82712e-07   8.61227e-09 DIIS/DAMP=1%
   @DF-UKS iter   9: -1052.84144773674370    1.02623e-07   4.52293e-10 DIIS/DAMP=1%
   @DF-UKS iter  10: -1052.84144774823449   -1.14908e-08   4.61505e-11 DIIS/DAMP=1%
   @DF-UKS iter  11: -1052.84144774775996    4.74529e-10   4.83685e-12 DIIS/DAMP=1%
  Energy and wave function converged.


  ==> Post-Iterations <==

   Electrons on quadrature grid:
      Nalpha   =   20.0000019813 ; deviation = 1.981e-06
      Nbeta    =   17.0000017691 ; deviation = 1.769e-06
      Ntotal   =   37.0000037503 ; deviation = 3.750e-06 

   @Spin Contamination Metric:   9.575349075E-04
   @S^2 Expected:                3.750000000E+00
   @S^2 Observed:                3.750957535E+00
   @S   Expected:                1.500000000E+00
   @S   Observed:                1.500000000E+00

    Orbital Energies [Eh]
    ---------------------

    Alpha Occupied:                                                       

       1Ag  -114.881566     1B2u -114.881563     2Ag   -10.933495  
       2B2u  -10.928737     3Ag    -8.499840     3B2u   -8.485940  
       1B3u   -8.474089     1B1g   -8.472789     1B1u   -8.471211  
       1B3g   -8.469860     4Ag    -1.204388     4B2u   -0.568358  
       2B3u   -0.425025     2B1u   -0.421996     5Ag    -0.375570  
       2B1g   -0.040163     2B3g   -0.032293     5B2u    0.310971  
       6Ag     0.432079     3B1u    0.555914  

    Alpha Virtual:                                                        

       3B3u    0.628881     6B2u    0.801224     3B1g    0.879709  
       3B3g    0.880030     7Ag     0.883935     1B2g    0.891371  
       8Ag     0.892397     4B3u    0.919511     4B1u    0.920061  
       1Au     1.212982     7B2u    1.213243     9Ag     1.496387  
       8B2u    1.505431     4B3g    1.695253     4B1g    1.699697  
       9B2u    2.506754  

    Beta Occupied:                                                        

       1Ag  -114.877551     1B2u -114.877549     2Ag   -10.928093  
       2B2u  -10.923563     3Ag    -8.492156     3B2u   -8.478787  
       1B3u   -8.471031     1B1g   -8.469723     1B1u   -8.465386  
       1B3g   -8.464086     4Ag    -1.138225     4B2u   -0.536459  
       2B3u   -0.393102     2B1u   -0.367985     5Ag    -0.328695  
       2B1g   -0.019964     2B3g   -0.000370  

    Beta Virtual:                                                         

       5B2u    0.437266     6Ag     0.566924     3B3u    0.654884  
       3B1u    0.675378     6B2u    0.847381     3B1g    0.897338  
       3B3g    0.914780     7Ag     0.918360     1B2g    0.919764  
       8Ag     0.925665     4B3u    0.933057     4B1u    0.947874  
       1Au     1.237869     7B2u    1.238171     8B2u    1.539744  
       9Ag     1.547953     4B1g    1.725253     4B3g    1.742609  
       9B2u    2.560770  

    Final Occupation by Irrep:
             Ag   B1g   B2g   B3g    Au   B1u   B2u   B3u 
    DOCC [     5,    2,    0,    2,    0,    2,    4,    2 ]
    SOCC [     1,    0,    0,    0,    0,    1,    1,    0 ]
    NA   [     6,    2,    0,    2,    0,    3,    5,    2 ]
    NB   [     5,    2,    0,    2,    0,    2,    4,    2 ]

  @DF-UKS Final Energy: -1052.84144774775996

   => Energetics <=

    Nuclear Repulsion Energy =            134.4430479067119109
    One-Electron Energy =               -1729.2639898694394560
    Two-Electron Energy =                 592.4506988055410375
    DFT Exchange-Correlation Energy =     -50.4712045905734428
    Empirical Dispersion Energy =           0.0000000000000000
    VV10 Nonlocal Energy =                  0.0000000000000000
    Total Energy =                      -1052.8414477477599576

  UHF NO Occupations:
  HONO-2 :    5B2u 1.0000000
  HONO-1 :    6 Ag 1.0000000
  HONO-0 :    3B1u 1.0000000
  LUNO+0 :    7 Ag 0.0001877
  LUNO+1 :    4B1u 0.0001097
  LUNO+2 :    6B2u 0.0000669
  LUNO+3 :    3B3u 0.0000350


Computation Completed


Properties will be evaluated at   0.000000,   0.000000,   0.000000 [a0]

Properties computed using the SCF density matrix


 Multipole Moments:

 ------------------------------------------------------------------------------------
     Multipole            Electronic (a.u.)      Nuclear  (a.u.)        Total (a.u.)
 ------------------------------------------------------------------------------------

 L = 1.  Multiply by 2.5417464519 to convert [e a0] to [Debye]
 Dipole X            :          0.0000000            0.0000000            0.0000000
 Dipole Y            :          0.0000000            0.0000000            0.0000000
 Dipole Z            :          0.0000000            0.0000000            0.0000000
 Magnitude           :                                                    0.0000000

 ------------------------------------------------------------------------------------

*** tstop() called on Joses-MacBook-Pro-2.local at Thu Jul 17 12:12:34 2025
Module time:
	user time   =       9.12 seconds =       0.15 minutes
	system time =       1.94 seconds =       0.03 minutes
	total time  =          1 seconds =       0.02 minutes
Total time:
	user time   =      46.42 seconds =       0.77 minutes
	system time =      11.36 seconds =       0.19 minutes
	total time  =          5 seconds =       0.08 minutes

*** tstart() called on Joses-MacBook-Pro-2.local
*** at Thu Jul 17 12:12:34 2025


         ------------------------------------------------------------
                                   SCF GRAD                          
                          Rob Parrish, Justin Turney,                
                       Andy Simmonett, and Alex Sokolov              
         ------------------------------------------------------------

  ==> Geometry <==

    Molecular point group: d2h
    Full point group: D_inf_h

    Geometry (in Angstrom), charge = -1, multiplicity = 4:

       Center              X                  Y                   Z               Mass       
    ------------   -----------------  -----------------  -----------------  -----------------
         AR          -0.000000000000     0.637643295532     0.000000000000    39.962383123700
         AR           0.000000000000    -0.637643295532     0.000000000000    39.962383123700

  Nuclear repulsion =  134.443047906711911

  ==> Basis Set <==

  Basis Set: CC-PVDZ
    Blend: CC-PVDZ
    Number of shells: 16
    Number of basis functions: 36
    Number of Cartesian functions: 38
    Spherical Harmonics?: true
    Max angular momentum: 2

  ==> DFJKGrad: Density-Fitted SCF Gradients <==

    Gradient:                    1
    J tasked:                  Yes
    K tasked:                  Yes
    wK tasked:                  No
    OpenMP threads:              1
    Integrals threads:           1
    Memory [MiB]:              375
    Schwarz Cutoff:          1E-12
    Fitting Condition:       1E-10

   => Auxiliary Basis Set <=

  Basis Set: (CC-PVDZ AUX)
    Blend: CC-PVDZ-JKFIT
    Number of shells: 72
    Number of basis functions: 224
    Number of Cartesian functions: 260
    Spherical Harmonics?: true
    Max angular momentum: 3

  ==> DFT Potential <==

   => LibXC <=

    Version 6.2.2
    S. Lehtola, C. Steigemann, M. J.T. Oliveira, and M. A.L. Marques.,  SoftwareX 7, 1–5 (2018) (10.1016/j.softx.2017.11.002)

   => Composite Functional: B3LYP <= 

    B3LYP Hyb-GGA Exchange-Correlation Functional

    P. J. Stephens, F. J. Devlin, C. F. Chabalowski, and M. J. Frisch.,  J. Phys. Chem. 98, 11623 (1994) (10.1021/j100096a001)

    Deriv               =              1
    GGA                 =           TRUE
    Meta                =          FALSE

    Exchange Hybrid     =           TRUE
    MP2 Hybrid          =          FALSE

   => Exchange Functionals <=

    0.0800   Slater exchange
    0.7200         Becke 88

   => Exact (HF) Exchange <=

    0.2000               HF 

   => Correlation Functionals <=

    0.1900   Vosko, Wilk & Nusair (VWN5_RPA)
    0.8100   Lee, Yang & Parr

   => LibXC Density Thresholds  <==

    XC_HYB_GGA_XC_B3LYP:  1.00E-15 

   => Molecular Quadrature <=

    Radial Scheme          =       TREUTLER
    Pruning Scheme         =           NONE
    Nuclear Scheme         =       TREUTLER

    Blocking Scheme        =         OCTREE
    BS radius alpha        =              1
    Pruning alpha          =              1
    Radial Points          =             75
    Spherical Points       =            302
    Total Points           =          38958
    Total Blocks           =            360
    Max Points             =            252
    Max Functions          =             36
    Weights Tolerance      =       1.00E-15


  -Total Gradient:
     Atom            X                  Y                   Z
    ------   -----------------  -----------------  -----------------
       1        0.000000000000    -2.102762223485    -0.000000000000
       2       -0.000000000000     2.102762223485    -0.000000000000


*** tstop() called on Joses-MacBook-Pro-2.local at Thu Jul 17 12:12:35 2025
Module time:
	user time   =       2.20 seconds =       0.04 minutes
	system time =       1.36 seconds =       0.02 minutes
	total time  =          1 seconds =       0.02 minutes
Total time:
	user time   =      48.64 seconds =       0.81 minutes
	system time =      12.72 seconds =       0.21 minutes
	total time  =          6 seconds =       0.10 minutes

    			-----------------------------------------

    			 OPTKING 3.0: for geometry optimizations 

    			     By R.A. King, Bethel University     

    			        with contributions from          

    			    A.V. Copan, J. Cayton, A. Heide      

    			-----------------------------------------

    
	                            ===> Fragment 1 <== 

	 Z (Atomic Numbers)          Masses                          Geom                  
	      18.000000            39.962383         -0.00000000  1.20497119  0.00000000   
	      18.000000            39.962383          0.00000000 -1.20497119  0.00000000   

	 - Coordinate -           - BOHR/RAD -       - ANG/DEG -
	 R(1,2)           =         2.409942           1.275287


	        --- Internal Coordinate Step in ANG or DEG, aJ/ANG or AJ/DEG ---
	-------------------------------------------------------------------------------
	           Coordinate      Previous         Force          Change          New 
	           ----------      --------        ------          ------        ------
	               R(1,2)       1.27529       17.32408        0.14667       1.42195
	-------------------------------------------------------------------------------

	                                 ==> Convergence Check <==                                  
    
	Measures of convergence in internal coordinates in au.
    
	Criteria marked as inactive (o), active & met (*), and active & unmet ( ).

	----------------------------------------------------------------------------------------------
	   Step    Total Energy     Delta E     Max Force     RMS Force      Max Disp      RMS Disp   
	----------------------------------------------------------------------------------------------
	  Convergence Criteria     1.00e-06 *    3.00e-04 *             o    1.20e-03 *             o
	----------------------------------------------------------------------------------------------
	     4   -1052.84144775   -2.44e-01      2.10e+00      2.10e+00 o    2.77e-01      2.77e-01 o  ~
	----------------------------------------------------------------------------------------------

Next Geometry in Ang 
	Fragment 1 (Ang)

	   Ar  -0.0000000000   0.7109772361   0.0000000000
	   Ar   0.0000000000  -0.7109772361   0.0000000000


    Structure for next step:
    Molecular point group: d2h
    Full point group: D_inf_h

    Geometry (in Angstrom), charge = -1, multiplicity = 4:

    AR          -0.000000000000     0.710977236127     0.000000000000
    AR           0.000000000000    -0.710977236127     0.000000000000


Scratch directory: /tmp/
gradient() will perform analytic gradient computation.
   => Libint2 <=

    Primary   basis highest AM E, G, H:  6, 6, 3
    Auxiliary basis highest AM E, G, H:  7, 7, 4
    Onebody   basis highest AM E, G, H:  -, -, -
    Solid Harmonics ordering:            Gaussian

*** tstart() called on Joses-MacBook-Pro-2.local
*** at Thu Jul 17 12:12:35 2025

   => Loading Basis Set <=

    Name: CC-PVDZ
    Role: ORBITAL
    Keyword: BASIS
    atoms 1-2 entry AR         line   718 file /Users/joseantoniorodriguesromero/anaconda3/share/psi4/basis/cc-pvdz.gbs 


         ---------------------------------------------------------
                                   SCF
               by Justin Turney, Rob Parrish, Andy Simmonett
                          and Daniel G. A. Smith
                              UKS Reference
                        1 Threads,    500 MiB Core
         ---------------------------------------------------------

  ==> Geometry <==

    Molecular point group: d2h
    Full point group: D_inf_h

    Geometry (in Angstrom), charge = -1, multiplicity = 4:

       Center              X                  Y                   Z               Mass       
    ------------   -----------------  -----------------  -----------------  -----------------
         AR          -0.000000000000     0.710977236127     0.000000000000    39.962383123700
         AR           0.000000000000    -0.710977236127     0.000000000000    39.962383123700

  Running in d2h symmetry.

  Rotational constants: A = ************  B =      0.41726  C =      0.41726 [cm^-1]
  Rotational constants: A = ************  B =  12509.05301  C =  12509.05301 [MHz]
  Nuclear repulsion =  120.575883125997166

  Charge       = -1
  Multiplicity = 4
  Electrons    = 37
  Nalpha       = 20
  Nbeta        = 17

  ==> Algorithm <==

  SCF Algorithm Type is DF.
  DIIS enabled.
  MOM disabled.
  Fractional occupation disabled.
  Guess Type is READ.
  Energy threshold   = 1.00e-08
  Density threshold  = 1.00e-08
[...]
    
	Measures of convergence in internal coordinates in au.
    
	Criteria marked as inactive (o), active & met (*), and active & unmet ( ).

	----------------------------------------------------------------------------------------------
	   Step    Total Energy     Delta E     Max Force     RMS Force      Max Disp      RMS Disp   
	----------------------------------------------------------------------------------------------
	  Convergence Criteria     1.00e-06 *    3.00e-04 *             o    1.20e-03 *             o
	----------------------------------------------------------------------------------------------
	    11   -1053.59325231   -4.84e-06      8.37e-04      8.37e-04 o    1.02e-03 *    1.02e-03 o  ~
	----------------------------------------------------------------------------------------------

Next Geometry in Ang 
	Fragment 1 (Ang)

	   Ar  -0.0000000000   0.9453470394   0.0000000000
	   Ar   0.0000000000  -0.9453470394   0.0000000000


    Structure for next step:
    Molecular point group: d2h
    Full point group: D_inf_h

    Geometry (in Angstrom), charge = -1, multiplicity = 4:

    AR          -0.000000000000     0.945347039441     0.000000000000
    AR           0.000000000000    -0.945347039441     0.000000000000


Scratch directory: /tmp/
gradient() will perform analytic gradient computation.
   => Libint2 <=

    Primary   basis highest AM E, G, H:  6, 6, 3
    Auxiliary basis highest AM E, G, H:  7, 7, 4
    Onebody   basis highest AM E, G, H:  -, -, -
    Solid Harmonics ordering:            Gaussian

*** tstart() called on Joses-MacBook-Pro-2.local
*** at Thu Jul 17 12:12:43 2025

   => Loading Basis Set <=

    Name: CC-PVDZ
    Role: ORBITAL
    Keyword: BASIS
    atoms 1-2 entry AR         line   718 file /Users/joseantoniorodriguesromero/anaconda3/share/psi4/basis/cc-pvdz.gbs 


         ---------------------------------------------------------
                                   SCF
               by Justin Turney, Rob Parrish, Andy Simmonett
                          and Daniel G. A. Smith
                              UKS Reference
                        1 Threads,    500 MiB Core
         ---------------------------------------------------------

  ==> Geometry <==

    Molecular point group: d2h
    Full point group: D_inf_h

    Geometry (in Angstrom), charge = -1, multiplicity = 4:

       Center              X                  Y                   Z               Mass       
    ------------   -----------------  -----------------  -----------------  -----------------
         AR          -0.000000000000     0.945347039441     0.000000000000    39.962383123700
         AR           0.000000000000    -0.945347039441     0.000000000000    39.962383123700

  Running in d2h symmetry.

  Rotational constants: A = ************  B =      0.23601  C =      0.23601 [cm^-1]
  Rotational constants: A = ************  B =   7075.43731  C =   7075.43731 [MHz]
  Nuclear repulsion =   90.682791135885850

  Charge       = -1
  Multiplicity = 4
  Electrons    = 37
  Nalpha       = 20
  Nbeta        = 17

  ==> Algorithm <==

  SCF Algorithm Type is DF.
  DIIS enabled.
  MOM disabled.
  Fractional occupation disabled.
  Guess Type is READ.
  Energy threshold   = 1.00e-08
  Density threshold  = 1.00e-08
  Integral threshold = 1.00e-12

  ==> Primary Basis <==

  Basis Set: CC-PVDZ
    Blend: CC-PVDZ
    Number of shells: 16
    Number of basis functions: 36
    Number of Cartesian functions: 38
    Spherical Harmonics?: true
    Max angular momentum: 2

  ==> DFT Potential <==

   => LibXC <=

    Version 6.2.2
    S. Lehtola, C. Steigemann, M. J.T. Oliveira, and M. A.L. Marques.,  SoftwareX 7, 1–5 (2018) (10.1016/j.softx.2017.11.002)

   => Composite Functional: B3LYP <= 

    B3LYP Hyb-GGA Exchange-Correlation Functional

    P. J. Stephens, F. J. Devlin, C. F. Chabalowski, and M. J. Frisch.,  J. Phys. Chem. 98, 11623 (1994) (10.1021/j100096a001)

    Deriv               =              1
    GGA                 =           TRUE
    Meta                =          FALSE

    Exchange Hybrid     =           TRUE
    MP2 Hybrid          =          FALSE

   => Exchange Functionals <=

    0.0800   Slater exchange
    0.7200         Becke 88

   => Exact (HF) Exchange <=

    0.2000               HF 

   => Correlation Functionals <=

    0.1900   Vosko, Wilk & Nusair (VWN5_RPA)
    0.8100   Lee, Yang & Parr

   => LibXC Density Thresholds  <==

    XC_HYB_GGA_XC_B3LYP:  1.00E-15 

   => Molecular Quadrature <=

    Radial Scheme          =       TREUTLER
    Pruning Scheme         =           NONE
    Nuclear Scheme         =       TREUTLER

    Blocking Scheme        =         OCTREE
    BS radius alpha        =              1
    Pruning alpha          =              1
    Radial Points          =             75
    Spherical Points       =            302
    Total Points           =          39090
    Total Blocks           =            364
    Max Points             =            256
    Max Functions          =             36
    Weights Tolerance      =       1.00E-15

   => Loading Basis Set <=

    Name: (CC-PVDZ AUX)
    Role: JKFIT
    Keyword: DF_BASIS_SCF
    atoms 1-2 entry AR         line   741 file /Users/joseantoniorodriguesromero/anaconda3/share/psi4/basis/cc-pvdz-jkfit.gbs 

   => Loading Basis Set <=

    Name: CC-PVDZ
    Role: ORBITAL
    Keyword: BASIS
    atoms 1-2 entry AR         line   718 file /Users/joseantoniorodriguesromero/anaconda3/share/psi4/basis/cc-pvdz.gbs 

  Reading orbitals from file /tmp/quartet_ArAr.default.73557.180.npy, no projection.

  ==> Integral Setup <==

  DFHelper Memory: AOs need 0.003 GiB; user supplied 0.327 GiB. 
  Using in-core AOs.

  ==> MemDFJK: Density-Fitted J/K Matrices <==

    J tasked:                   Yes
    K tasked:                   Yes
    wK tasked:                   No
    OpenMP threads:               1
    Memory [MiB]:               334
    Algorithm:                 Core
    Schwarz Cutoff:           1E-12
    Mask sparsity (%):       0.0000
    Fitting Condition:        1E-10

   => Auxiliary Basis Set <=

  Basis Set: (CC-PVDZ AUX)
    Blend: CC-PVDZ-JKFIT
    Number of shells: 72
    Number of basis functions: 224
    Number of Cartesian functions: 260
    Spherical Harmonics?: true
    Max angular momentum: 3

  Cached 100.0% of DFT collocation blocks in 0.040 [GiB].

  Minimum eigenvalue in the overlap matrix is 4.5705837530E-02.
  Reciprocal condition number of the overlap matrix is 2.0283964235E-02.
    Using symmetric orthogonalization.

  ==> Pre-Iterations <==

  SCF Guess: Orbitals guess was supplied from a previous computation.

   -------------------------------------------------------
    Irrep   Nso     Nmo     Nalpha   Nbeta   Ndocc  Nsocc
   -------------------------------------------------------
     Ag         9       9       6       5       5       1
     B1g        4       4       2       2       2       0
     B2g        1       1       0       0       0       0
     B3g        4       4       2       2       2       0
     Au         1       1       0       0       0       0
     B1u        4       4       2       2       2       0
     B2u        9       9       6       4       4       2
     B3u        4       4       2       2       2       0
   -------------------------------------------------------
    Total      36      36      20      17      17       3
   -------------------------------------------------------

  ==> Iterations <==

                           Total Energy        Delta E     RMS |[F,P]|

   @DF-UKS iter   0: -1053.59328643491290   -1.05359e+03   2.73753e-04 
   @DF-UKS iter   1: -1053.59325286383614    3.35711e-05   1.29485e-05 DIIS
   @DF-UKS iter   2: -1053.59325287785646   -1.40203e-08   1.11957e-05 DIIS/DAMP=1%
   @DF-UKS iter   3: -1053.59325640409270   -3.52624e-06   8.30146e-07 DIIS/DAMP=1%
   @DF-UKS iter   4: -1053.59325156474983    4.83934e-06   5.17204e-07 DIIS/DAMP=1%
   @DF-UKS iter   5: -1053.59325341212184   -1.84737e-06   7.28553e-08 DIIS/DAMP=1%
   @DF-UKS iter   6: -1053.59325289798085    5.14141e-07   4.96009e-09 DIIS/DAMP=1%
   @DF-UKS iter   7: -1053.59325289453022    3.45062e-09   6.42835e-10 DIIS/DAMP=1%
  Energy and wave function converged.


  ==> Post-Iterations <==

   Electrons on quadrature grid:
      Nalpha   =   20.0000000202 ; deviation = 2.021e-08
      Nbeta    =   16.9999996500 ; deviation = -3.500e-07
      Ntotal   =   36.9999996702 ; deviation = -3.298e-07 

   @Spin Contamination Metric:   1.789405471E-03
   @S^2 Expected:                3.750000000E+00
   @S^2 Observed:                3.751789405E+00
   @S   Expected:                1.500000000E+00
   @S   Observed:                1.500000000E+00

    Orbital Energies [Eh]
    ---------------------

    Alpha Occupied:                                                       

       1B2u -114.811992     1Ag  -114.811991     2B2u  -10.856186  
       2Ag   -10.856093     3Ag    -8.413855     3B2u   -8.413700  
       1B3g   -8.403690     1B1g   -8.403690     1B1u   -8.403690  
       1B3u   -8.403690     4Ag    -0.834673     4B2u   -0.664532  
       5Ag    -0.318735     2B3u   -0.237908     2B1u   -0.237908  
       2B1g   -0.132164     2B3g   -0.132164     5B2u   -0.007928  
       6Ag     0.664995     6B2u    0.680469  

    Alpha Virtual:                                                        

       3B3u    0.777223     3B1u    0.777223     3B1g    0.845107  
       3B3g    0.845107     7Ag     0.908497     4B3u    0.952528  
       4B1u    0.952528     8Ag     1.056148     1B2g    1.056149  
       7B2u    1.097654     8B2u    1.103213     1Au     1.103214  
       9Ag     1.129239     4B1g    1.287310     4B3g    1.287310  
       9B2u    1.798310  

    Beta Occupied:                                                        

       1Ag  -114.801648     1B2u -114.801648     2B2u  -10.845745  
       2Ag   -10.845688     1B1u   -8.397199     1B3u   -8.397199  
       1B3g   -8.397193     1B1g   -8.397193     3Ag    -8.383426  
       3B2u   -8.383308     4Ag    -0.777728     4B2u   -0.613943  
       5Ag    -0.223974     2B3u   -0.213899     2B1u   -0.213899  
       2B1g   -0.108514     2B3g   -0.108514  

    Beta Virtual:                                                         

       5B2u    0.154270     3B3u    0.796132     3B1u    0.796132  
       6Ag     0.814561     6B2u    0.823421     3B1g    0.868428  
       3B3g    0.868428     7Ag     0.969945     4B3u    0.993200  
       4B1u    0.993200     8Ag     1.074248     1B2g    1.074249  
       7B2u    1.121469     1Au     1.121470     8B2u    1.160552  
       9Ag     1.182776     4B1g    1.329785     4B3g    1.329785  
       9B2u    1.853794  

    Final Occupation by Irrep:
             Ag   B1g   B2g   B3g    Au   B1u   B2u   B3u 
    DOCC [     5,    2,    0,    2,    0,    2,    4,    2 ]
    SOCC [     1,    0,    0,    0,    0,    0,    2,    0 ]
    NA   [     6,    2,    0,    2,    0,    2,    6,    2 ]
    NB   [     5,    2,    0,    2,    0,    2,    4,    2 ]

  @DF-UKS Final Energy: -1053.59325289453022

   => Energetics <=

    Nuclear Repulsion Energy =             90.6827911358858501
    One-Electron Energy =               -1646.0291261361785473
    Two-Electron Energy =                 551.9277184203779143
    DFT Exchange-Correlation Energy =     -50.1746363146154692
    Empirical Dispersion Energy =           0.0000000000000000
    VV10 Nonlocal Energy =                  0.0000000000000000
    Total Energy =                      -1053.5932528945302238

  UHF NO Occupations:
  HONO-2 :    5B2u 1.0000000
  HONO-1 :    6 Ag 1.0000000
  HONO-0 :    6B2u 1.0000000
  LUNO+0 :    7 Ag 0.0003591
  LUNO+1 :    7B2u 0.0002725
  LUNO+2 :    8 Ag 0.0000951
  LUNO+3 :    3B3g 0.0000461


Computation Completed


Properties will be evaluated at   0.000000,   0.000000,   0.000000 [a0]

Properties computed using the SCF density matrix


 Multipole Moments:

 ------------------------------------------------------------------------------------
     Multipole            Electronic (a.u.)      Nuclear  (a.u.)        Total (a.u.)
 ------------------------------------------------------------------------------------

 L = 1.  Multiply by 2.5417464519 to convert [e a0] to [Debye]
 Dipole X            :          0.0000000            0.0000000            0.0000000
 Dipole Y            :          0.0000000            0.0000000            0.0000000
 Dipole Z            :          0.0000000            0.0000000            0.0000000
 Magnitude           :                                                    0.0000000

 ------------------------------------------------------------------------------------

*** tstop() called on Joses-MacBook-Pro-2.local at Thu Jul 17 12:12:44 2025
Module time:
	user time   =       5.61 seconds =       0.09 minutes
	system time =       1.94 seconds =       0.03 minutes
	total time  =          1 seconds =       0.02 minutes
Total time:
	user time   =     128.03 seconds =       2.13 minutes
	system time =      34.16 seconds =       0.57 minutes
	total time  =         15 seconds =       0.25 minutes

*** tstart() called on Joses-MacBook-Pro-2.local
*** at Thu Jul 17 12:12:44 2025


         ------------------------------------------------------------
                                   SCF GRAD                          
                          Rob Parrish, Justin Turney,                
                       Andy Simmonett, and Alex Sokolov              
         ------------------------------------------------------------

  ==> Geometry <==

    Molecular point group: d2h
    Full point group: D_inf_h

    Geometry (in Angstrom), charge = -1, multiplicity = 4:

       Center              X                  Y                   Z               Mass       
    ------------   -----------------  -----------------  -----------------  -----------------
         AR          -0.000000000000     0.945347039441     0.000000000000    39.962383123700
         AR           0.000000000000    -0.945347039441     0.000000000000    39.962383123700

  Nuclear repulsion =   90.682791135885850

  ==> Basis Set <==

  Basis Set: CC-PVDZ
    Blend: CC-PVDZ
    Number of shells: 16
    Number of basis functions: 36
    Number of Cartesian functions: 38
    Spherical Harmonics?: true
    Max angular momentum: 2

  ==> DFJKGrad: Density-Fitted SCF Gradients <==

    Gradient:                    1
    J tasked:                  Yes
    K tasked:                  Yes
    wK tasked:                  No
    OpenMP threads:              1
    Integrals threads:           1
    Memory [MiB]:              375
    Schwarz Cutoff:          1E-12
    Fitting Condition:       1E-10

   => Auxiliary Basis Set <=

  Basis Set: (CC-PVDZ AUX)
    Blend: CC-PVDZ-JKFIT
    Number of shells: 72
    Number of basis functions: 224
    Number of Cartesian functions: 260
    Spherical Harmonics?: true
    Max angular momentum: 3

  ==> DFT Potential <==

   => LibXC <=

    Version 6.2.2
    S. Lehtola, C. Steigemann, M. J.T. Oliveira, and M. A.L. Marques.,  SoftwareX 7, 1–5 (2018) (10.1016/j.softx.2017.11.002)

   => Composite Functional: B3LYP <= 

    B3LYP Hyb-GGA Exchange-Correlation Functional

    P. J. Stephens, F. J. Devlin, C. F. Chabalowski, and M. J. Frisch.,  J. Phys. Chem. 98, 11623 (1994) (10.1021/j100096a001)

    Deriv               =              1
    GGA                 =           TRUE
    Meta                =          FALSE

    Exchange Hybrid     =           TRUE
    MP2 Hybrid          =          FALSE

   => Exchange Functionals <=

    0.0800   Slater exchange
    0.7200         Becke 88

   => Exact (HF) Exchange <=

    0.2000               HF 

   => Correlation Functionals <=

    0.1900   Vosko, Wilk & Nusair (VWN5_RPA)
    0.8100   Lee, Yang & Parr

   => LibXC Density Thresholds  <==

    XC_HYB_GGA_XC_B3LYP:  1.00E-15 

   => Molecular Quadrature <=

    Radial Scheme          =       TREUTLER
    Pruning Scheme         =           NONE
    Nuclear Scheme         =       TREUTLER

    Blocking Scheme        =         OCTREE
    BS radius alpha        =              1
    Pruning alpha          =              1
    Radial Points          =             75
    Spherical Points       =            302
    Total Points           =          39090
    Total Blocks           =            364
    Max Points             =            256
    Max Functions          =             36
    Weights Tolerance      =       1.00E-15


  -Total Gradient:
     Atom            X                  Y                   Z
    ------   -----------------  -----------------  -----------------
       1       -0.000000000000     0.000288655993    -0.000000000000
       2        0.000000000000    -0.000288655993     0.000000000000


*** tstop() called on Joses-MacBook-Pro-2.local at Thu Jul 17 12:12:44 2025
Module time:
	user time   =       2.59 seconds =       0.04 minutes
	system time =       0.81 seconds =       0.01 minutes
	total time  =          0 seconds =       0.00 minutes
Total time:
	user time   =     130.62 seconds =       2.18 minutes
	system time =      34.97 seconds =       0.58 minutes
	total time  =         15 seconds =       0.25 minutes

    			-----------------------------------------

    			 OPTKING 3.0: for geometry optimizations 

    			     By R.A. King, Bethel University     

    			        with contributions from          

    			    A.V. Copan, J. Cayton, A. Heide      

    			-----------------------------------------

    
	                            ===> Fragment 1 <== 

	 Z (Atomic Numbers)          Masses                          Geom                  
	      18.000000            39.962383         -0.00000000  1.78644700  0.00000000   
	      18.000000            39.962383          0.00000000 -1.78644700  0.00000000   

	 - Coordinate -           - BOHR/RAD -       - ANG/DEG -
	 R(1,2)           =         3.572894           1.890694


	        --- Internal Coordinate Step in ANG or DEG, aJ/ANG or AJ/DEG ---
	-------------------------------------------------------------------------------
	           Coordinate      Previous         Force          Change          New 
	           ----------      --------        ------          ------        ------
	               R(1,2)       1.89069       -0.00238       -0.00019       1.89051
	-------------------------------------------------------------------------------

	                                 ==> Convergence Check <==                                  
    
	Measures of convergence in internal coordinates in au.
    
	Criteria marked as inactive (o), active & met (*), and active & unmet ( ).

	----------------------------------------------------------------------------------------------
	   Step    Total Energy     Delta E     Max Force     RMS Force      Max Disp      RMS Disp   
	----------------------------------------------------------------------------------------------
	  Convergence Criteria     1.00e-06 *    3.00e-04 *             o    1.20e-03 *             o
	----------------------------------------------------------------------------------------------
	    12   -1053.59325289   -5.82e-07 *    2.89e-04 *    2.89e-04 o    3.51e-04 *    3.51e-04 o  ~
	----------------------------------------------------------------------------------------------

Next Geometry in Ang 
	Fragment 1 (Ang)

	   Ar  -0.0000000000   0.9452541522   0.0000000000
	   Ar   0.0000000000  -0.9452541522   0.0000000000


    Final optimized geometry and variables:
    Molecular point group: d2h
    Full point group: D_inf_h

    Geometry (in Angstrom), charge = -1, multiplicity = 4:

    AR          -0.000000000000     0.945347039441     0.000000000000
    AR           0.000000000000    -0.945347039441     0.000000000000


    Psi4 stopped on: Thursday, 17 July 2025 12:12PM
    Psi4 wall time for execution: 0:00:16.25

*** Psi4 exiting successfully. Buy a developer a beer!
