
    -----------------------------------------------------------------------
          Psi4: An Open-Source Ab Initio Electronic Structure Package
                               Psi4 1.9.1 release

                         Git: Rev {} zzzzzzz 


    D. G. A. Smith, L. A. Burns, A. C. Simmonett, R. M. Parrish,
    M. C. Schieber, R. Galvelis, P. Kraus, H. Kruse, R. Di Remigio,
    A. Alenaizan, A. M. James, S. Lehtola, J. P. Misiewicz, M. Scheurer,
    R. A. Shaw, J. B. Schriber, Y. Xie, Z. L. Glick, D. A. Sirianni,
    J. S. O'Brien, J. M. Waldrop, A. Kumar, E. G. Hohenstein,
    B. P. Pritchard, B. R. Brooks, H. F. Schaefer III, A. Yu. Sokolov,
    K. Patkowski, A. E. DePrince III, U. Bozkaya, R. A. King,
    F. A. Evangelista, J. M. Turney, T. D. Crawford, C. D. Sherrill,
    J. Chem. Phys. 152(18) 184108 (2020). https://doi.org/10.1063/5.0006002

                            Additional Code Authors
    E. T. Seidl, C. L. Janssen, E. F. Valeev, M. L. Leininger,
    J. F. Gonthier, R. M. Richard, H. R. McAlexander, M. Saitow, X. Wang,
    P. Verma, M. H. Lechner, A. Jiang, S. Behnle, A. G. Heide,
    M. F. Herbst, and D. L. Poole

             Previous Authors, Complete List of Code Contributors,
                       and Citations for Specific Modules
    https://github.com/psi4/psi4/blob/master/codemeta.json
    https://github.com/psi4/psi4/graphs/contributors
    http://psicode.org/psi4manual/master/introduction.html#citing-psifour

    -----------------------------------------------------------------------


    Psi4 started on: Thursday, 17 July 2025 11:49AM

    Process ID: 73310
    Host:       Joses-MacBook-Pro-2.local
    PSIDATADIR: /Users/joseantoniorodriguesromero/anaconda3/share/psi4
    Memory:     500.0 MiB
    Threads:    1
    
  ==> Input File <==

--------------------------------------------------------------------------
molecule { 
-1 4
Si   0.00000        0.60000        0.00000
S   0.00000       -0.60000        0.00000
}

set { 
basis              cc-pvdz
reference          uks
maxiter            500
geom_maxiter       500
DAMPING_PERCENTAGE 1
guess              SAP
}

optimize('b3lyp')
--------------------------------------------------------------------------

Scratch directory: /tmp/
gradient() will perform analytic gradient computation.
   => Libint2 <=

    Primary   basis highest AM E, G, H:  6, 6, 3
    Auxiliary basis highest AM E, G, H:  7, 7, 4
    Onebody   basis highest AM E, G, H:  -, -, -
    Solid Harmonics ordering:            Gaussian

*** tstart() called on Joses-MacBook-Pro-2.local
*** at Thu Jul 17 11:49:34 2025

   => Loading Basis Set <=

    Name: CC-PVDZ
    Role: ORBITAL
    Keyword: BASIS
    atoms 1 entry SI         line   478 file /Users/joseantoniorodriguesromero/anaconda3/share/psi4/basis/cc-pvdz.gbs 
    atoms 2 entry S          line   598 file /Users/joseantoniorodriguesromero/anaconda3/share/psi4/basis/cc-pvdz.gbs 


         ---------------------------------------------------------
                                   SCF
               by Justin Turney, Rob Parrish, Andy Simmonett
                          and Daniel G. A. Smith
                              UKS Reference
                        1 Threads,    500 MiB Core
         ---------------------------------------------------------

  ==> Geometry <==

    Molecular point group: c2v
    Full point group: C_inf_v

    Geometry (in Angstrom), charge = -1, multiplicity = 4:

       Center              X                  Y                   Z               Mass       
    ------------   -----------------  -----------------  -----------------  -----------------
         SI           0.000000000000     0.000000000000     0.639985435544    27.976926534650
         S            0.000000000000     0.000000000000    -0.560014564456    31.972071174400

  Running in c2v symmetry.

  Rotational constants: A = ************  B =      0.78459  C =      0.78459 [cm^-1]
  Rotational constants: A = ************  B =  23521.54584  C =  23521.54584 [MHz]
  Nuclear repulsion =   98.779745991733350

  Charge       = -1
  Multiplicity = 4
  Electrons    = 31
  Nalpha       = 17
  Nbeta        = 14

  ==> Algorithm <==

  SCF Algorithm Type is DF.
  DIIS enabled.
  MOM disabled.
  Fractional occupation disabled.
  Guess Type is SAP.
  Energy threshold   = 1.00e-08
  Density threshold  = 1.00e-08
  Integral threshold = 1.00e-12

  ==> Primary Basis <==

  Basis Set: CC-PVDZ
    Blend: CC-PVDZ
    Number of shells: 16
    Number of basis functions: 36
    Number of Cartesian functions: 38
    Spherical Harmonics?: true
    Max angular momentum: 2

  ==> DFT Potential <==

   => LibXC <=

    Version 6.2.2
    S. Lehtola, C. Steigemann, M. J.T. Oliveira, and M. A.L. Marques.,  SoftwareX 7, 1–5 (2018) (10.1016/j.softx.2017.11.002)

   => Composite Functional: B3LYP <= 

    B3LYP Hyb-GGA Exchange-Correlation Functional

    P. J. Stephens, F. J. Devlin, C. F. Chabalowski, and M. J. Frisch.,  J. Phys. Chem. 98, 11623 (1994) (10.1021/j100096a001)

    Deriv               =              1
    GGA                 =           TRUE
    Meta                =          FALSE

    Exchange Hybrid     =           TRUE
    MP2 Hybrid          =          FALSE

   => Exchange Functionals <=

    0.0800   Slater exchange
    0.7200         Becke 88

   => Exact (HF) Exchange <=

    0.2000               HF 

   => Correlation Functionals <=

    0.1900   Vosko, Wilk & Nusair (VWN5_RPA)
    0.8100   Lee, Yang & Parr

   => LibXC Density Thresholds  <==

    XC_HYB_GGA_XC_B3LYP:  1.00E-15 

   => Molecular Quadrature <=

    Radial Scheme          =       TREUTLER
    Pruning Scheme         =           NONE
    Nuclear Scheme         =       TREUTLER

    Blocking Scheme        =         OCTREE
    BS radius alpha        =              1
    Pruning alpha          =              1
    Radial Points          =             75
    Spherical Points       =            302
    Total Points           =          41465
    Total Blocks           =            389
    Max Points             =            249
    Max Functions          =             36
    Weights Tolerance      =       1.00E-15

   => Loading Basis Set <=

    Name: (CC-PVDZ AUX)
    Role: JKFIT
    Keyword: DF_BASIS_SCF
    atoms 1 entry SI         line   445 file /Users/joseantoniorodriguesromero/anaconda3/share/psi4/basis/cc-pvdz-jkfit.gbs 
    atoms 2 entry S          line   593 file /Users/joseantoniorodriguesromero/anaconda3/share/psi4/basis/cc-pvdz-jkfit.gbs 

  ==> Integral Setup <==

  DFHelper Memory: AOs need 0.003 GiB; user supplied 0.324 GiB. 
  Using in-core AOs.

  ==> MemDFJK: Density-Fitted J/K Matrices <==

    J tasked:                   Yes
    K tasked:                   Yes
    wK tasked:                   No
    OpenMP threads:               1
    Memory [MiB]:               331
    Algorithm:                 Core
    Schwarz Cutoff:           1E-12
    Mask sparsity (%):       0.0000
    Fitting Condition:        1E-10

   => Auxiliary Basis Set <=

  Basis Set: (CC-PVDZ AUX)
    Blend: CC-PVDZ-JKFIT
    Number of shells: 72
    Number of basis functions: 224
    Number of Cartesian functions: 260
    Spherical Harmonics?: true
    Max angular momentum: 3

  Cached 100.0% of DFT collocation blocks in 0.043 [GiB].

  Minimum eigenvalue in the overlap matrix is 5.0097687474E-03.
  Reciprocal condition number of the overlap matrix is 1.5708927969E-03.
    Using symmetric orthogonalization.

  ==> Pre-Iterations <==

  SCF Guess: Superposition of Atomic Potentials (doi:10.1021/acs.jctc.8b01089).

  ==> SAP guess <==

   => Molecular Quadrature <=

    Radial Scheme          =       TREUTLER
    Pruning Scheme         =           NONE
    Nuclear Scheme         =       TREUTLER

    Blocking Scheme        =         OCTREE
    BS radius alpha        =              1
    Pruning alpha          =              1
    Radial Points          =             75
    Spherical Points       =            302
    Total Points           =          41465
    Total Blocks           =            389
    Max Points             =            249
    Max Functions          =             36
    Weights Tolerance      =       1.00E-15

   -------------------------------------------------------
    Irrep   Nso     Nmo     Nalpha   Nbeta   Ndocc  Nsocc
   -------------------------------------------------------
     A1        18      18       9       8       8       1
     A2         2       2       0       0       0       0
     B1         8       8       4       3       3       1
     B2         8       8       4       3       3       1
   -------------------------------------------------------
    Total      36      36      17      14      14       3
   -------------------------------------------------------

  ==> Iterations <==

                           Total Energy        Delta E     RMS |[F,P]|

   @DF-UKS iter   1:  -685.87415756127848   -6.85874e+02   3.73802e-02 ADIIS/DIIS
   @DF-UKS iter   2:  -685.69692118972557    1.77236e-01   4.71610e-02 ADIIS/DIIS/DAMP=1%
   @DF-UKS iter   3:  -686.27998117771267   -5.83060e-01   4.79902e-03 ADIIS/DIIS/DAMP=1%
   @DF-UKS iter   4:  -686.37102586481785   -9.10447e-02   4.19277e-03 ADIIS/DIIS/DAMP=1%
   @DF-UKS iter   5:  -686.37880242755955   -7.77656e-03   3.00299e-04 ADIIS/DIIS/DAMP=1%
   @DF-UKS iter   6:  -686.37879348493186    8.94263e-06   8.13199e-05 DIIS/DAMP=1%
   @DF-UKS iter   7:  -686.37931109057013   -5.17606e-04   2.65982e-05 DIIS/DAMP=1%
   @DF-UKS iter   8:  -686.37925300976462    5.80808e-05   2.29924e-06 DIIS/DAMP=1%
   @DF-UKS iter   9:  -686.37923305842548    1.99513e-05   5.19665e-07 DIIS/DAMP=1%
   @DF-UKS iter  10:  -686.37923131145658    1.74697e-06   3.67188e-08 DIIS/DAMP=1%
   @DF-UKS iter  11:  -686.37923148757386   -1.76117e-07   8.09243e-09 DIIS/DAMP=1%
   @DF-UKS iter  12:  -686.37923152506744   -3.74936e-08   6.09184e-10 DIIS/DAMP=1%
   @DF-UKS iter  13:  -686.37923152447968    5.87761e-10   4.85643e-11 DIIS/DAMP=1%
  Energy and wave function converged.


  ==> Post-Iterations <==

   Electrons on quadrature grid:
      Nalpha   =   16.9999981088 ; deviation = -1.891e-06
      Nbeta    =   13.9999981454 ; deviation = -1.855e-06
      Ntotal   =   30.9999962542 ; deviation = -3.746e-06 

   @Spin Contamination Metric:   2.156873276E-03
   @S^2 Expected:                3.750000000E+00
   @S^2 Observed:                3.752156873E+00
   @S   Expected:                1.500000000E+00
   @S   Observed:                1.500000000E+00

    Orbital Energies [Eh]
    ---------------------

    Alpha Occupied:                                                       

       1A1   -88.623122     2A1   -65.913344     3A1    -7.766854  
       4A1    -5.748317     1B1    -5.702605     1B2    -5.702605  
       5A1    -5.156398     6A1    -3.547691     2B2    -3.483699  
       2B1    -3.483699     7A1    -0.588486     3B1    -0.186933  
       3B2    -0.186933     8A1    -0.183464     9A1    -0.028097  
       4B1     0.142171     4B2     0.142171  

    Alpha Virtual:                                                        

      10A1     0.283965     5B1     0.419199     5B2     0.419199  
      11A1     0.465838    12A1     0.497197     1A2     0.497198  
      13A1     0.547637     6B1     0.612058     6B2     0.612058  
      14A1     0.665928     7B1     0.813630     7B2     0.813630  
       2A2     0.923516    15A1     0.923517    16A1     0.929155  
       8B2     1.308776     8B1     1.308776    17A1     1.356118  
      18A1     2.042534  

    Beta Occupied:                                                        

       1A1   -88.618227     2A1   -65.907484     3A1    -7.761640  
       4A1    -5.740164     1B1    -5.696170     1B2    -5.696170  
       5A1    -5.150035     6A1    -3.533431     2B1    -3.476564  
       2B2    -3.476564     7A1    -0.562454     3B1    -0.163479  
       3B2    -0.163479     8A1    -0.125646  

    Beta Virtual:                                                         

       9A1     0.105108     4B1     0.251801     4B2     0.251801  
      10A1     0.301624     5B1     0.440756     5B2     0.440756  
      11A1     0.515081    12A1     0.535408     1A2     0.535408  
      13A1     0.566623     6B1     0.675091     6B2     0.675091  
      14A1     0.721110     7B1     0.843207     7B2     0.843207  
      15A1     0.949795     2A2     0.968933    16A1     0.968935  
       8B2     1.347531     8B1     1.347531    17A1     1.379777  
      18A1     2.069112  

    Final Occupation by Irrep:
             A1    A2    B1    B2 
    DOCC [     8,    0,    3,    3 ]
    SOCC [     1,    0,    1,    1 ]
    NA   [     9,    0,    4,    4 ]
    NB   [     8,    0,    3,    3 ]

  @DF-UKS Final Energy:  -686.37923152447968

   => Energetics <=

    Nuclear Repulsion Energy =             98.7797459917333498
    One-Electron Energy =               -1151.0620547910068581
    Two-Electron Energy =                 404.0968917624842334
    DFT Exchange-Correlation Energy =     -38.1938144876903678
    Empirical Dispersion Energy =           0.0000000000000000
    VV10 Nonlocal Energy =                  0.0000000000000000
    Total Energy =                       -686.3792315244796782

  UHF NO Occupations:
  HONO-2 :    9 A1 1.0000000
  HONO-1 :    4 B2 1.0000000
  HONO-0 :    4 B1 1.0000000
  LUNO+0 :    5 B2 0.0004528
  LUNO+1 :    5 B1 0.0004528
  LUNO+2 :   10 A1 0.0001410
  LUNO+3 :   11 A1 0.0000318


Computation Completed


Properties will be evaluated at   0.000000,   0.000000,   0.000000 [a0]

Properties computed using the SCF density matrix


 Multipole Moments:

 ------------------------------------------------------------------------------------
     Multipole            Electronic (a.u.)      Nuclear  (a.u.)        Total (a.u.)
 ------------------------------------------------------------------------------------

 L = 1.  Multiply by 2.5417464519 to convert [e a0] to [Debye]
 Dipole X            :          0.0000000            0.0000000            0.0000000
 Dipole Y            :          0.0000000            0.0000000            0.0000000
 Dipole Z            :         -1.1935927           -0.0008257           -1.1944183
 Magnitude           :                                                    1.1944183

 ------------------------------------------------------------------------------------

*** tstop() called on Joses-MacBook-Pro-2.local at Thu Jul 17 11:49:36 2025
Module time:
	user time   =      18.20 seconds =       0.30 minutes
	system time =       1.53 seconds =       0.03 minutes
	total time  =          2 seconds =       0.03 minutes
Total time:
	user time   =      18.20 seconds =       0.30 minutes
	system time =       1.53 seconds =       0.03 minutes
	total time  =          2 seconds =       0.03 minutes

*** tstart() called on Joses-MacBook-Pro-2.local
*** at Thu Jul 17 11:49:36 2025


         ------------------------------------------------------------
                                   SCF GRAD                          
                          Rob Parrish, Justin Turney,                
                       Andy Simmonett, and Alex Sokolov              
         ------------------------------------------------------------

  ==> Geometry <==

    Molecular point group: c2v
    Full point group: C_inf_v

    Geometry (in Angstrom), charge = -1, multiplicity = 4:

       Center              X                  Y                   Z               Mass       
    ------------   -----------------  -----------------  -----------------  -----------------
         SI           0.000000000000     0.000000000000     0.639985435544    27.976926534650
         S            0.000000000000     0.000000000000    -0.560014564456    31.972071174400

  Nuclear repulsion =   98.779745991733350

  ==> Basis Set <==

  Basis Set: CC-PVDZ
    Blend: CC-PVDZ
    Number of shells: 16
    Number of basis functions: 36
    Number of Cartesian functions: 38
    Spherical Harmonics?: true
    Max angular momentum: 2

  ==> DFJKGrad: Density-Fitted SCF Gradients <==

    Gradient:                    1
    J tasked:                  Yes
    K tasked:                  Yes
    wK tasked:                  No
    OpenMP threads:              1
    Integrals threads:           1
    Memory [MiB]:              375
    Schwarz Cutoff:          1E-12
    Fitting Condition:       1E-10

   => Auxiliary Basis Set <=

  Basis Set: (CC-PVDZ AUX)
    Blend: CC-PVDZ-JKFIT
    Number of shells: 72
    Number of basis functions: 224
    Number of Cartesian functions: 260
    Spherical Harmonics?: true
    Max angular momentum: 3

  ==> DFT Potential <==

   => LibXC <=

    Version 6.2.2
    S. Lehtola, C. Steigemann, M. J.T. Oliveira, and M. A.L. Marques.,  SoftwareX 7, 1–5 (2018) (10.1016/j.softx.2017.11.002)

   => Composite Functional: B3LYP <= 

    B3LYP Hyb-GGA Exchange-Correlation Functional

    P. J. Stephens, F. J. Devlin, C. F. Chabalowski, and M. J. Frisch.,  J. Phys. Chem. 98, 11623 (1994) (10.1021/j100096a001)

    Deriv               =              1
    GGA                 =           TRUE
    Meta                =          FALSE

    Exchange Hybrid     =           TRUE
    MP2 Hybrid          =          FALSE

   => Exchange Functionals <=

    0.0800   Slater exchange
    0.7200         Becke 88

   => Exact (HF) Exchange <=

    0.2000               HF 

   => Correlation Functionals <=

    0.1900   Vosko, Wilk & Nusair (VWN5_RPA)
    0.8100   Lee, Yang & Parr

   => LibXC Density Thresholds  <==

    XC_HYB_GGA_XC_B3LYP:  1.00E-15 

   => Molecular Quadrature <=

    Radial Scheme          =       TREUTLER
    Pruning Scheme         =           NONE
    Nuclear Scheme         =       TREUTLER

    Blocking Scheme        =         OCTREE
    BS radius alpha        =              1
    Pruning alpha          =              1
    Radial Points          =             75
    Spherical Points       =            302
    Total Points           =          41465
    Total Blocks           =            389
    Max Points             =            249
    Max Functions          =             36
    Weights Tolerance      =       1.00E-15


  -Total Gradient:
     Atom            X                  Y                   Z
    ------   -----------------  -----------------  -----------------
       1        0.000000000000    -0.000000000000    -2.738798632526
       2        0.000000000000     0.000000000000     2.738865891486


*** tstop() called on Joses-MacBook-Pro-2.local at Thu Jul 17 11:49:36 2025
Module time:
	user time   =       2.79 seconds =       0.05 minutes
	system time =       0.97 seconds =       0.02 minutes
	total time  =          0 seconds =       0.00 minutes
Total time:
	user time   =      20.99 seconds =       0.35 minutes
	system time =       2.50 seconds =       0.04 minutes
	total time  =          2 seconds =       0.03 minutes

    			-----------------------------------------

    			 OPTKING 3.0: for geometry optimizations 

    			     By R.A. King, Bethel University     

    			        with contributions from          

    			    A.V. Copan, J. Cayton, A. Heide      

    			-----------------------------------------

    
	                            ===> Fragment 1 <== 

	 Z (Atomic Numbers)          Masses                          Geom                  
	      14.000000            27.976927          0.00000000  0.00000000  1.20939720   
	      16.000000            31.972071          0.00000000  0.00000000 -1.05827415   

	 - Coordinate -           - BOHR/RAD -       - ANG/DEG -
	 R(1,2)           =         2.267671           1.200000


	        --- Internal Coordinate Step in ANG or DEG, aJ/ANG or AJ/DEG ---
	-------------------------------------------------------------------------------
	           Coordinate      Previous         Force          Change          New 
	           ----------      --------        ------          ------        ------
	               R(1,2)       1.20000       22.56448        0.00665       1.20665
	-------------------------------------------------------------------------------

	                                 ==> Convergence Check <==                                  
    
	Measures of convergence in internal coordinates in au.
    
	Criteria marked as inactive (o), active & met (*), and active & unmet ( ).

	----------------------------------------------------------------------------------------------
	   Step    Total Energy     Delta E     Max Force     RMS Force      Max Disp      RMS Disp   
	----------------------------------------------------------------------------------------------
	  Convergence Criteria     1.00e-06 *    3.00e-04 *             o    1.20e-03 *             o
	----------------------------------------------------------------------------------------------
	     1    -686.37923152   -6.86e+02      2.74e+00      2.74e+00 o    1.26e-02      1.26e-02 o  ~
	----------------------------------------------------------------------------------------------

Next Geometry in Ang 
	Fragment 1 (Ang)

	   Si   0.0000000000   0.0000000000   0.6433117714
	    S   0.0000000000   0.0000000000  -0.5633409003


    Structure for next step:
    Molecular point group: c2v
    Full point group: C_inf_v

    Geometry (in Angstrom), charge = -1, multiplicity = 4:

    SI           0.000000000000     0.000000000000     0.643533446406
    S            0.000000000000     0.000000000000    -0.563119225354


Scratch directory: /tmp/
gradient() will perform analytic gradient computation.
   => Libint2 <=

    Primary   basis highest AM E, G, H:  6, 6, 3
    Auxiliary basis highest AM E, G, H:  7, 7, 4
    Onebody   basis highest AM E, G, H:  -, -, -
    Solid Harmonics ordering:            Gaussian

*** tstart() called on Joses-MacBook-Pro-2.local
*** at Thu Jul 17 11:49:36 2025

   => Loading Basis Set <=

    Name: CC-PVDZ
    Role: ORBITAL
    Keyword: BASIS
    atoms 1 entry SI         line   478 file /Users/joseantoniorodriguesromero/anaconda3/share/psi4/basis/cc-pvdz.gbs 
    atoms 2 entry S          line   598 file /Users/joseantoniorodriguesromero/anaconda3/share/psi4/basis/cc-pvdz.gbs 


         ---------------------------------------------------------
                                   SCF
               by Justin Turney, Rob Parrish, Andy Simmonett
                          and Daniel G. A. Smith
                              UKS Reference
                        1 Threads,    500 MiB Core
         ---------------------------------------------------------

  ==> Geometry <==

    Molecular point group: c2v
    Full point group: C_inf_v

    Geometry (in Angstrom), charge = -1, multiplicity = 4:

       Center              X                  Y                   Z               Mass       
    ------------   -----------------  -----------------  -----------------  -----------------
         SI           0.000000000000     0.000000000000     0.643533446406    27.976926534650
         S            0.000000000000     0.000000000000    -0.563119225354    31.972071174400

  Running in c2v symmetry.

  Rotational constants: A = ************  B =      0.77597  C =      0.77597 [cm^-1]
  Rotational constants: A = ************  B =  23262.89683  C =  23262.89683 [MHz]
  Nuclear repulsion =   98.235140868871596

  Charge       = -1
  Multiplicity = 4
  Electrons    = 31
  Nalpha       = 17
  Nbeta        = 14

  ==> Algorithm <==

  SCF Algorithm Type is DF.
  DIIS enabled.
  MOM disabled.
  Fractional occupation disabled.
  Guess Type is READ.
  Energy threshold   = 1.00e-08
  Density threshold  = 1.00e-08
  Integral threshold = 1.00e-12

  ==> Primary Basis <==

  Basis Set: CC-PVDZ
    Blend: CC-PVDZ
    Number of shells: 16
    Number of basis functions: 36
    Number of Cartesian functions: 38
    Spherical Harmonics?: true
    Max angular momentum: 2

  ==> DFT Potential <==

   => LibXC <=

    Version 6.2.2
    S. Lehtola, C. Steigemann, M. J.T. Oliveira, and M. A.L. Marques.,  SoftwareX 7, 1–5 (2018) (10.1016/j.softx.2017.11.002)

   => Composite Functional: B3LYP <= 

    B3LYP Hyb-GGA Exchange-Correlation Functional

    P. J. Stephens, F. J. Devlin, C. F. Chabalowski, and M. J. Frisch.,  J. Phys. Chem. 98, 11623 (1994) (10.1021/j100096a001)

    Deriv               =              1
    GGA                 =           TRUE
    Meta                =          FALSE

    Exchange Hybrid     =           TRUE
    MP2 Hybrid          =          FALSE

   => Exchange Functionals <=

    0.0800   Slater exchange
    0.7200         Becke 88

   => Exact (HF) Exchange <=

    0.2000               HF 

   => Correlation Functionals <=

    0.1900   Vosko, Wilk & Nusair (VWN5_RPA)
    0.8100   Lee, Yang & Parr

   => LibXC Density Thresholds  <==

    XC_HYB_GGA_XC_B3LYP:  1.00E-15 

   => Molecular Quadrature <=

    Radial Scheme          =       TREUTLER
    Pruning Scheme         =           NONE
    Nuclear Scheme         =       TREUTLER

    Blocking Scheme        =         OCTREE
    BS radius alpha        =              1
    Pruning alpha          =              1
    Radial Points          =             75
    Spherical Points       =            302
    Total Points           =          41466
    Total Blocks           =            389
    Max Points             =            250
    Max Functions          =             36
    Weights Tolerance      =       1.00E-15

   => Loading Basis Set <=

    Name: (CC-PVDZ AUX)
    Role: JKFIT
    Keyword: DF_BASIS_SCF
    atoms 1 entry SI         line   445 file /Users/joseantoniorodriguesromero/anaconda3/share/psi4/basis/cc-pvdz-jkfit.gbs 
    atoms 2 entry S          line   593 file /Users/joseantoniorodriguesromero/anaconda3/share/psi4/basis/cc-pvdz-jkfit.gbs 

   => Loading Basis Set <=

    Name: CC-PVDZ
    Role: ORBITAL
    Keyword: BASIS
    atoms 1 entry SI         line   478 file /Users/joseantoniorodriguesromero/anaconda3/share/psi4/basis/cc-pvdz.gbs 
    atoms 2 entry S          line   598 file /Users/joseantoniorodriguesromero/anaconda3/share/psi4/basis/cc-pvdz.gbs 

  Reading orbitals from file /tmp/quartet_SiS.default.73310.180.npy, no projection.

  ==> Integral Setup <==

  DFHelper Memory: AOs need 0.003 GiB; user supplied 0.324 GiB. 
  Using in-core AOs.

  ==> MemDFJK: Density-Fitted J/K Matrices <==

    J tasked:                   Yes
    K tasked:                   Yes
    wK tasked:                   No
    OpenMP threads:               1
    Memory [MiB]:               331
    Algorithm:                 Core
    Schwarz Cutoff:           1E-12
    Mask sparsity (%):       0.0000
    Fitting Condition:        1E-10

   => Auxiliary Basis Set <=

  Basis Set: (CC-PVDZ AUX)
    Blend: CC-PVDZ-JKFIT
    Number of shells: 72
    Number of basis functions: 224
    Number of Cartesian functions: 260
    Spherical Harmonics?: true
    Max angular momentum: 3

  Cached 100.0% of DFT collocation blocks in 0.043 [GiB].

  Minimum eigenvalue in the overlap matrix is 5.0827787358E-03.
  Reciprocal condition number of the overlap matrix is 1.5939708653E-03.
    Using symmetric orthogonalization.

  ==> Pre-Iterations <==

  SCF Guess: Orbitals guess was supplied from a previous computation.

   -------------------------------------------------------
    Irrep   Nso     Nmo     Nalpha   Nbeta   Ndocc  Nsocc
   -------------------------------------------------------
     A1        18      18       9       8       8       1
     A2         2       2       0       0       0       0
     B1         8       8       4       3       3       1
     B2         8       8       4       3       3       1
   -------------------------------------------------------
    Total      36      36      17      14      14       3
   -------------------------------------------------------

  ==> Iterations <==

                           Total Energy        Delta E     RMS |[F,P]|

   @DF-UKS iter   0:  -686.41019193606508   -6.86410e+02   3.06382e-03 
   @DF-UKS iter   1:  -686.41323195656844   -3.04002e-03   3.43714e-04 ADIIS/DIIS
   @DF-UKS iter   2:  -686.41323883485609   -6.87829e-06   3.17231e-04 ADIIS/DIIS/DAMP=1%
   @DF-UKS iter   3:  -686.41386392313586   -6.25088e-04   8.03494e-06 DIIS/DAMP=1%
   @DF-UKS iter   4:  -686.41327042146497    5.93502e-04   4.55908e-06 DIIS/DAMP=1%
   @DF-UKS iter   5:  -686.41327234304129   -1.92158e-06   1.66791e-06 DIIS/DAMP=1%
   @DF-UKS iter   6:  -686.41326931957963    3.02346e-06   1.58494e-07 DIIS/DAMP=1%
   @DF-UKS iter   7:  -686.41326867649877    6.43081e-07   2.34914e-08 DIIS/DAMP=1%
   @DF-UKS iter   8:  -686.41326881455848   -1.38060e-07   6.58270e-09 DIIS/DAMP=1%
   @DF-UKS iter   9:  -686.41326879841154    1.61469e-08   3.64789e-10 DIIS/DAMP=1%
   @DF-UKS iter  10:  -686.41326879597932    2.43222e-09   7.74380e-11 DIIS/DAMP=1%
  Energy and wave function converged.


  ==> Post-Iterations <==

   Electrons on quadrature grid:
      Nalpha   =   16.9999980874 ; deviation = -1.913e-06
      Nbeta    =   13.9999981171 ; deviation = -1.883e-06
      Ntotal   =   30.9999962045 ; deviation = -3.795e-06 

   @Spin Contamination Metric:   2.191016271E-03
   @S^2 Expected:                3.750000000E+00
   @S^2 Observed:                3.752191016E+00
   @S   Expected:                1.500000000E+00
   @S   Observed:                1.500000000E+00

    Orbital Energies [Eh]
    ---------------------

    Alpha Occupied:                                                       

       1A1   -88.619924     2A1   -65.910207     3A1    -7.762416  
       4A1    -5.743266     1B2    -5.698875     1B1    -5.698875  
       5A1    -5.151677     6A1    -3.542476     2B2    -3.479821  
       2B1    -3.479821     7A1    -0.588147     3B1    -0.184818  
       3B2    -0.184818     8A1    -0.183865     9A1    -0.029517  
       4B1     0.141634     4B2     0.141634  

    Alpha Virtual:                                                        

      10A1     0.283779     5B2     0.419992     5B1     0.419992  
      11A1     0.465608    12A1     0.498526     1A2     0.498527  
      13A1     0.546483     6B2     0.611869     6B1     0.611869  
      14A1     0.664507     7B2     0.812915     7B1     0.812915  
       2A2     0.922817    15A1     0.922818    16A1     0.927989  
       8B2     1.306992     8B1     1.306992    17A1     1.351104  
      18A1     2.030338  

    Beta Occupied:                                                        

       1A1   -88.615049     2A1   -65.904332     3A1    -7.757231  
       4A1    -5.735148     1B2    -5.692452     1B1    -5.692452  
       5A1    -5.145286     6A1    -3.528269     2B2    -3.472633  
       2B1    -3.472633     7A1    -0.562196     3B1    -0.161312  
       3B2    -0.161312     8A1    -0.126219  

    Beta Virtual:                                                         

       9A1     0.103989     4B1     0.251348     4B2     0.251348  
      10A1     0.301524     5B2     0.441566     5B1     0.441566  
      11A1     0.514754    12A1     0.537032     1A2     0.537032  
      13A1     0.565483     6B2     0.675088     6B1     0.675088  
      14A1     0.719742     7B2     0.842362     7B1     0.842362  
      15A1     0.948605     2A2     0.968152    16A1     0.968153  
       8B2     1.345748     8B1     1.345748    17A1     1.374639  
      18A1     2.056954  

    Final Occupation by Irrep:
             A1    A2    B1    B2 
    DOCC [     8,    0,    3,    3 ]
    SOCC [     1,    0,    1,    1 ]
    NA   [     9,    0,    4,    4 ]
    NB   [     8,    0,    3,    3 ]

  @DF-UKS Final Energy:  -686.41326879597932

   => Energetics <=

    Nuclear Repulsion Energy =             98.2351408688715964
    One-Electron Energy =               -1150.1322752114269861
    Two-Electron Energy =                 403.6722302037409236
    DFT Exchange-Correlation Energy =     -38.1883646571649038
    Empirical Dispersion Energy =           0.0000000000000000
    VV10 Nonlocal Energy =                  0.0000000000000000
    Total Energy =                       -686.4132687959793202

  UHF NO Occupations:
  HONO-2 :    4 B2 1.0000000
  HONO-1 :    4 B1 1.0000000
  HONO-0 :    9 A1 1.0000000
  LUNO+0 :    5 B2 0.0004612
  LUNO+1 :    5 B1 0.0004612
  LUNO+2 :   10 A1 0.0001416
  LUNO+3 :   11 A1 0.0000315


Computation Completed


Properties will be evaluated at   0.000000,   0.000000,   0.000000 [a0]

Properties computed using the SCF density matrix


 Multipole Moments:

 ------------------------------------------------------------------------------------
     Multipole            Electronic (a.u.)      Nuclear  (a.u.)        Total (a.u.)
 ------------------------------------------------------------------------------------

 L = 1.  Multiply by 2.5417464519 to convert [e a0] to [Debye]
 Dipole X            :          0.0000000            0.0000000            0.0000000
 Dipole Y            :          0.0000000            0.0000000            0.0000000
 Dipole Z            :         -1.1786908           -0.0008303           -1.1795211
 Magnitude           :                                                    1.1795211

 ------------------------------------------------------------------------------------

*** tstop() called on Joses-MacBook-Pro-2.local at Thu Jul 17 11:49:37 2025
Module time:
	user time   =       7.80 seconds =       0.13 minutes
	system time =       1.90 seconds =       0.03 minutes
	total time  =          1 seconds =       0.02 minutes
Total time:
	user time   =      28.96 seconds =       0.48 minutes
	system time =       4.56 seconds =       0.08 minutes
	total time  =          3 seconds =       0.05 minutes

*** tstart() called on Joses-MacBook-Pro-2.local
*** at Thu Jul 17 11:49:37 2025


         ------------------------------------------------------------
                                   SCF GRAD                          
                          Rob Parrish, Justin Turney,                
                       Andy Simmonett, and Alex Sokolov              
         ------------------------------------------------------------

  ==> Geometry <==

    Molecular point group: c2v
    Full point group: C_inf_v

    Geometry (in Angstrom), charge = -1, multiplicity = 4:

       Center              X                  Y                   Z               Mass       
    ------------   -----------------  -----------------  -----------------  -----------------
         SI           0.000000000000     0.000000000000     0.643533446406    27.976926534650
         S            0.000000000000     0.000000000000    -0.563119225354    31.972071174400

  Nuclear repulsion =   98.235140868871596

  ==> Basis Set <==

  Basis Set: CC-PVDZ
    Blend: CC-PVDZ
    Number of shells: 16
    Number of basis functions: 36
    Number of Cartesian functions: 38
    Spherical Harmonics?: true
    Max angular momentum: 2

  ==> DFJKGrad: Density-Fitted SCF Gradients <==

    Gradient:                    1
    J tasked:                  Yes
    K tasked:                  Yes
    wK tasked:                  No
    OpenMP threads:              1
    Integrals threads:           1
    Memory [MiB]:              375
    Schwarz Cutoff:          1E-12
    Fitting Condition:       1E-10

   => Auxiliary Basis Set <=

  Basis Set: (CC-PVDZ AUX)
    Blend: CC-PVDZ-JKFIT
    Number of shells: 72
    Number of basis functions: 224
    Number of Cartesian functions: 260
    Spherical Harmonics?: true
    Max angular momentum: 3

  ==> DFT Potential <==

   => LibXC <=

    Version 6.2.2
    S. Lehtola, C. Steigemann, M. J.T. Oliveira, and M. A.L. Marques.,  SoftwareX 7, 1–5 (2018) (10.1016/j.softx.2017.11.002)

   => Composite Functional: B3LYP <= 

    B3LYP Hyb-GGA Exchange-Correlation Functional

    P. J. Stephens, F. J. Devlin, C. F. Chabalowski, and M. J. Frisch.,  J. Phys. Chem. 98, 11623 (1994) (10.1021/j100096a001)

    Deriv               =              1
    GGA                 =           TRUE
    Meta                =          FALSE

    Exchange Hybrid     =           TRUE
    MP2 Hybrid          =          FALSE

   => Exchange Functionals <=

    0.0800   Slater exchange
    0.7200         Becke 88

   => Exact (HF) Exchange <=

    0.2000               HF 

   => Correlation Functionals <=

    0.1900   Vosko, Wilk & Nusair (VWN5_RPA)
    0.8100   Lee, Yang & Parr

   => LibXC Density Thresholds  <==

    XC_HYB_GGA_XC_B3LYP:  1.00E-15 

   => Molecular Quadrature <=

    Radial Scheme          =       TREUTLER
    Pruning Scheme         =           NONE
    Nuclear Scheme         =       TREUTLER

    Blocking Scheme        =         OCTREE
    BS radius alpha        =              1
    Pruning alpha          =              1
    Radial Points          =             75
    Spherical Points       =            302
    Total Points           =          41466
    Total Blocks           =            389
    Max Points             =            250
    Max Functions          =             36
    Weights Tolerance      =       1.00E-15


  -Total Gradient:
     Atom            X                  Y                   Z
    ------   -----------------  -----------------  -----------------
       1        0.000000000000     0.000000000000    -2.676227676812
       2        0.000000000000     0.000000000000     2.676291776572


*** tstop() called on Joses-MacBook-Pro-2.local at Thu Jul 17 11:49:38 2025
Module time:
	user time   =       2.79 seconds =       0.05 minutes
	system time =       0.95 seconds =       0.02 minutes
	total time  =          1 seconds =       0.02 minutes
Total time:
	user time   =      31.75 seconds =       0.53 minutes
	system time =       5.51 seconds =       0.09 minutes
	total time  =          4 seconds =       0.07 minutes

    			-----------------------------------------

    			 OPTKING 3.0: for geometry optimizations 

    			     By R.A. King, Bethel University     

    			        with contributions from          

    			    A.V. Copan, J. Cayton, A. Heide      

    			-----------------------------------------

    
	                            ===> Fragment 1 <== 

	 Z (Atomic Numbers)          Masses                          Geom                  
	      14.000000            27.976927          0.00000000  0.00000000  1.21610197   
	      16.000000            31.972071          0.00000000  0.00000000 -1.06414111   

	 - Coordinate -           - BOHR/RAD -       - ANG/DEG -
	 R(1,2)           =         2.280243           1.206653


	        --- Internal Coordinate Step in ANG or DEG, aJ/ANG or AJ/DEG ---
	-------------------------------------------------------------------------------
	           Coordinate      Previous         Force          Change          New 
	           ----------      --------        ------          ------        ------
	               R(1,2)       1.20665       22.04896        0.01300       1.21965
	-------------------------------------------------------------------------------

	                                 ==> Convergence Check <==                                  
    
	Measures of convergence in internal coordinates in au.
    
	Criteria marked as inactive (o), active & met (*), and active & unmet ( ).

	----------------------------------------------------------------------------------------------
	   Step    Total Energy     Delta E     Max Force     RMS Force      Max Disp      RMS Disp   
	----------------------------------------------------------------------------------------------
	  Convergence Criteria     1.00e-06 *    3.00e-04 *             o    1.20e-03 *             o
	----------------------------------------------------------------------------------------------
	     2    -686.41326880   -3.40e-02      2.68e+00      2.68e+00 o    2.46e-02      2.46e-02 o  ~
	----------------------------------------------------------------------------------------------

Next Geometry in Ang 
	Fragment 1 (Ang)

	   Si   0.0000000000   0.0000000000   0.6500312348
	    S   0.0000000000   0.0000000000  -0.5696170137


    Structure for next step:
    Molecular point group: c2v
    Full point group: C_inf_v

    Geometry (in Angstrom), charge = -1, multiplicity = 4:

    SI           0.000000000000     0.000000000000     0.650464262947
    S            0.000000000000     0.000000000000    -0.569183985567


Scratch directory: /tmp/
gradient() will perform analytic gradient computation.
   => Libint2 <=

    Primary   basis highest AM E, G, H:  6, 6, 3
    Auxiliary basis highest AM E, G, H:  7, 7, 4
    Onebody   basis highest AM E, G, H:  -, -, -
    Solid Harmonics ordering:            Gaussian

*** tstart() called on Joses-MacBook-Pro-2.local
*** at Thu Jul 17 11:49:38 2025

   => Loading Basis Set <=

    Name: CC-PVDZ
    Role: ORBITAL
    Keyword: BASIS
    atoms 1 entry SI         line   478 file /Users/joseantoniorodriguesromero/anaconda3/share/psi4/basis/cc-pvdz.gbs 
    atoms 2 entry S          line   598 file /Users/joseantoniorodriguesromero/anaconda3/share/psi4/basis/cc-pvdz.gbs 


         ---------------------------------------------------------
                                   SCF
               by Justin Turney, Rob Parrish, Andy Simmonett
                          and Daniel G. A. Smith
                              UKS Reference
                        1 Threads,    500 MiB Core
         ---------------------------------------------------------

  ==> Geometry <==

    Molecular point group: c2v
    Full point group: C_inf_v

    Geometry (in Angstrom), charge = -1, multiplicity = 4:

       Center              X                  Y                   Z               Mass       
    ------------   -----------------  -----------------  -----------------  -----------------
         SI           0.000000000000     0.000000000000     0.650464262947    27.976926534650
         S            0.000000000000     0.000000000000    -0.569183985567    31.972071174400

  Running in c2v symmetry.

  Rotational constants: A = ************  B =      0.75952  C =      0.75952 [cm^-1]
  Rotational constants: A = ************  B =  22769.79703  C =  22769.79703 [MHz]
  Nuclear repulsion =   97.188427347345453

  Charge       = -1
  Multiplicity = 4
  Electrons    = 31
  Nalpha       = 17
  Nbeta        = 14

  ==> Algorithm <==

  SCF Algorithm Type is DF.
  DIIS enabled.
  MOM disabled.
  Fractional occupation disabled.
  Guess Type is READ.
  Energy threshold   = 1.00e-08
  Density threshold  = 1.00e-08
  Integral threshold = 1.00e-12

  ==> Primary Basis <==

  Basis Set: CC-PVDZ
    Blend: CC-PVDZ
    Number of shells: 16
    Number of basis functions: 36
    Number of Cartesian functions: 38
    Spherical Harmonics?: true
    Max angular momentum: 2

  ==> DFT Potential <==

   => LibXC <=

    Version 6.2.2
    S. Lehtola, C. Steigemann, M. J.T. Oliveira, and M. A.L. Marques.,  SoftwareX 7, 1–5 (2018) (10.1016/j.softx.2017.11.002)

   => Composite Functional: B3LYP <= 

    B3LYP Hyb-GGA Exchange-Correlation Functional

    P. J. Stephens, F. J. Devlin, C. F. Chabalowski, and M. J. Frisch.,  J. Phys. Chem. 98, 11623 (1994) (10.1021/j100096a001)

    Deriv               =              1
    GGA                 =           TRUE
    Meta                =          FALSE

    Exchange Hybrid     =           TRUE
    MP2 Hybrid          =          FALSE

   => Exchange Functionals <=

    0.0800   Slater exchange
    0.7200         Becke 88

   => Exact (HF) Exchange <=

    0.2000               HF 

   => Correlation Functionals <=

    0.1900   Vosko, Wilk & Nusair (VWN5_RPA)
    0.8100   Lee, Yang & Parr

   => LibXC Density Thresholds  <==

    XC_HYB_GGA_XC_B3LYP:  1.00E-15 

   => Molecular Quadrature <=

    Radial Scheme          =       TREUTLER
    Pruning Scheme         =           NONE
    Nuclear Scheme         =       TREUTLER

    Blocking Scheme        =         OCTREE
    BS radius alpha        =              1
    Pruning alpha          =              1
    Radial Points          =             75
    Spherical Points       =            302
    Total Points           =          41466
    Total Blocks           =            389
    Max Points             =            248
    Max Functions          =             36
    Weights Tolerance      =       1.00E-15

   => Loading Basis Set <=

    Name: (CC-PVDZ AUX)
    Role: JKFIT
    Keyword: DF_BASIS_SCF
    atoms 1 entry SI         line   445 file /Users/joseantoniorodriguesromero/anaconda3/share/psi4/basis/cc-pvdz-jkfit.gbs 
    atoms 2 entry S          line   593 file /Users/joseantoniorodriguesromero/anaconda3/share/psi4/basis/cc-pvdz-jkfit.gbs 

   => Loading Basis Set <=

    Name: CC-PVDZ
    Role: ORBITAL
    Keyword: BASIS
    atoms 1 entry SI         line   478 file /Users/joseantoniorodriguesromero/anaconda3/share/psi4/basis/cc-pvdz.gbs 
    atoms 2 entry S          line   598 file /Users/joseantoniorodriguesromero/anaconda3/share/psi4/basis/cc-pvdz.gbs 

  Reading orbitals from file /tmp/quartet_SiS.default.73310.180.npy, no projection.

  ==> Integral Setup <==

  DFHelper Memory: AOs need 0.003 GiB; user supplied 0.324 GiB. 
  Using in-core AOs.

  ==> MemDFJK: Density-Fitted J/K Matrices <==

    J tasked:                   Yes
    K tasked:                   Yes
    wK tasked:                   No
    OpenMP threads:               1
    Memory [MiB]:               331
    Algorithm:                 Core
    Schwarz Cutoff:           1E-12
    Mask sparsity (%):       0.0000
    Fitting Condition:        1E-10

   => Auxiliary Basis Set <=

  Basis Set: (CC-PVDZ AUX)
    Blend: CC-PVDZ-JKFIT
    Number of shells: 72
    Number of basis functions: 224
    Number of Cartesian functions: 260
    Spherical Harmonics?: true
    Max angular momentum: 3

  Cached 100.0% of DFT collocation blocks in 0.043 [GiB].

  Minimum eigenvalue in the overlap matrix is 5.2273489691E-03.
  Reciprocal condition number of the overlap matrix is 1.6397032834E-03.
    Using symmetric orthogonalization.

  ==> Pre-Iterations <==

  SCF Guess: Orbitals guess was supplied from a previous computation.

   -------------------------------------------------------
    Irrep   Nso     Nmo     Nalpha   Nbeta   Ndocc  Nsocc
   -------------------------------------------------------
     A1        18      18       9       8       8       1
     A2         2       2       0       0       0       0
     B1         8       8       4       3       3       1
     B2         8       8       4       3       3       1
   -------------------------------------------------------
    Total      36      36      17      14      14       3
   -------------------------------------------------------

  ==> Iterations <==

                           Total Energy        Delta E     RMS |[F,P]|

   @DF-UKS iter   0:  -686.47208250988342   -6.86472e+02   5.92364e-03 
   @DF-UKS iter   1:  -686.47738437098519   -5.30186e-03   6.65266e-04 ADIIS/DIIS
   @DF-UKS iter   2:  -686.47741016538998   -2.57944e-05   6.11635e-04 ADIIS/DIIS/DAMP=1%
   @DF-UKS iter   3:  -686.47866379597269   -1.25363e-03   1.52764e-05 DIIS/DAMP=1%
   @DF-UKS iter   4:  -686.47752478720622    1.13901e-03   8.16511e-06 DIIS/DAMP=1%
   @DF-UKS iter   5:  -686.47752873931620   -3.95211e-06   3.29042e-06 DIIS/DAMP=1%
   @DF-UKS iter   6:  -686.47752282092540    5.91839e-06   2.93056e-07 DIIS/DAMP=1%
   @DF-UKS iter   7:  -686.47752182945931    9.91466e-07   4.22809e-08 DIIS/DAMP=1%
   @DF-UKS iter   8:  -686.47752207726921   -2.47810e-07   1.29521e-08 DIIS/DAMP=1%
   @DF-UKS iter   9:  -686.47752205475331    2.25159e-08   7.40769e-10 DIIS/DAMP=1%
   @DF-UKS iter  10:  -686.47752204859296    6.16035e-09   1.40041e-10 DIIS/DAMP=1%
  Energy and wave function converged.


  ==> Post-Iterations <==

   Electrons on quadrature grid:
      Nalpha   =   16.9999980637 ; deviation = -1.936e-06
      Nbeta    =   13.9999980788 ; deviation = -1.921e-06
      Ntotal   =   30.9999961424 ; deviation = -3.858e-06 

   @Spin Contamination Metric:   2.257543852E-03
   @S^2 Expected:                3.750000000E+00
   @S^2 Observed:                3.752257544E+00
   @S   Expected:                1.500000000E+00
   @S   Observed:                1.500000000E+00

    Orbital Energies [Eh]
    ---------------------

    Alpha Occupied:                                                       

       1A1   -88.614142     2A1   -65.904613     3A1    -7.754232  
       4A1    -5.733934     1B1    -5.692007     1B2    -5.692007  
       5A1    -5.142960     6A1    -3.532760     2B2    -3.472706  
       2B1    -3.472706     7A1    -0.587452     8A1    -0.184666  
       3B1    -0.180772     3B2    -0.180772     9A1    -0.032208  
       4B2     0.140569     4B1     0.140569  

    Alpha Virtual:                                                        

      10A1     0.283427     5B2     0.421545     5B1     0.421545  
      11A1     0.465146    12A1     0.501064     1A2     0.501064  
      13A1     0.544347     6B2     0.611479     6B1     0.611479  
      14A1     0.661738     7B2     0.811503     7B1     0.811503  
       2A2     0.921447    15A1     0.921448    16A1     0.925796  
       8B2     1.303396     8B1     1.303396    17A1     1.341542  
      18A1     2.008043  

    Beta Occupied:                                                        

       1A1   -88.609307     2A1   -65.898710     3A1    -7.749105  
       4A1    -5.725891     1B1    -5.685608     1B2    -5.685608  
       5A1    -5.136512     6A1    -3.518664     2B2    -3.465415  
       2B1    -3.465415     7A1    -0.561657     3B1    -0.157159  
       3B2    -0.157159     8A1    -0.127335  

    Beta Virtual:                                                         

       9A1     0.101863     4B2     0.250439     4B1     0.250439  
      10A1     0.301340     5B2     0.443153     5B1     0.443153  
      11A1     0.514078    12A1     0.540149     1A2     0.540149  
      13A1     0.563391     6B2     0.675045     6B1     0.675045  
      14A1     0.717074     7B2     0.840699     7B1     0.840699  
      15A1     0.946371     2A2     0.966614    16A1     0.966616  
       8B2     1.342149     8B1     1.342149    17A1     1.364857  
      18A1     2.034715  

    Final Occupation by Irrep:
             A1    A2    B1    B2 
    DOCC [     8,    0,    3,    3 ]
    SOCC [     1,    0,    1,    1 ]
    NA   [     9,    0,    4,    4 ]
    NB   [     8,    0,    3,    3 ]

  @DF-UKS Final Energy:  -686.47752204859296

   => Energetics <=

    Nuclear Repulsion Energy =             97.1884273473454527
    One-Electron Energy =               -1148.3361028410165545
    Two-Electron Energy =                 402.8478165770917485
    DFT Exchange-Correlation Energy =     -38.1776631320135138
    Empirical Dispersion Energy =           0.0000000000000000
    VV10 Nonlocal Energy =                  0.0000000000000000
    Total Energy =                       -686.4775220485929594

  UHF NO Occupations:
  HONO-2 :    4 B2 1.0000000
  HONO-1 :    9 A1 1.0000000
  HONO-0 :    4 B1 1.0000000
  LUNO+0 :    5 B2 0.0004775
  LUNO+1 :    5 B1 0.0004775
  LUNO+2 :   10 A1 0.0001428
  LUNO+3 :   11 A1 0.0000310


Computation Completed


Properties will be evaluated at   0.000000,   0.000000,   0.000000 [a0]

Properties computed using the SCF density matrix


 Multipole Moments:

 ------------------------------------------------------------------------------------
     Multipole            Electronic (a.u.)      Nuclear  (a.u.)        Total (a.u.)
 ------------------------------------------------------------------------------------

 L = 1.  Multiply by 2.5417464519 to convert [e a0] to [Debye]
 Dipole X            :          0.0000000            0.0000000            0.0000000
 Dipole Y            :          0.0000000            0.0000000            0.0000000
 Dipole Z            :         -1.1499959           -0.0008392           -1.1508351
 Magnitude           :                                                    1.1508351

 ------------------------------------------------------------------------------------

*** tstop() called on Joses-MacBook-Pro-2.local at Thu Jul 17 11:49:39 2025
Module time:
	user time   =      11.57 seconds =       0.19 minutes
	system time =       1.86 seconds =       0.03 minutes
	total time  =          1 seconds =       0.02 minutes
Total time:
	user time   =      43.57 seconds =       0.73 minutes
	system time =       7.37 seconds =       0.12 minutes
	total time  =          5 seconds =       0.08 minutes

*** tstart() called on Joses-MacBook-Pro-2.local
*** at Thu Jul 17 11:49:39 2025


         ------------------------------------------------------------
                                   SCF GRAD                          
                          Rob Parrish, Justin Turney,                
                       Andy Simmonett, and Alex Sokolov              
         ------------------------------------------------------------

  ==> Geometry <==

    Molecular point group: c2v
    Full point group: C_inf_v

    Geometry (in Angstrom), charge = -1, multiplicity = 4:

       Center              X                  Y                   Z               Mass       
    ------------   -----------------  -----------------  -----------------  -----------------
         SI           0.000000000000     0.000000000000     0.650464262947    27.976926534650
         S            0.000000000000     0.000000000000    -0.569183985567    31.972071174400

  Nuclear repulsion =   97.188427347345453

  ==> Basis Set <==

  Basis Set: CC-PVDZ
    Blend: CC-PVDZ
    Number of shells: 16
    Number of basis functions: 36
    Number of Cartesian functions: 38
    Spherical Harmonics?: true
    Max angular momentum: 2

  ==> DFJKGrad: Density-Fitted SCF Gradients <==

    Gradient:                    1
    J tasked:                  Yes
    K tasked:                  Yes
    wK tasked:                  No
    OpenMP threads:              1
    Integrals threads:           1
    Memory [MiB]:              375
    Schwarz Cutoff:          1E-12
    Fitting Condition:       1E-10

   => Auxiliary Basis Set <=

  Basis Set: (CC-PVDZ AUX)
    Blend: CC-PVDZ-JKFIT
    Number of shells: 72
    Number of basis functions: 224
    Number of Cartesian functions: 260
    Spherical Harmonics?: true
    Max angular momentum: 3

  ==> DFT Potential <==

   => LibXC <=

    Version 6.2.2
    S. Lehtola, C. Steigemann, M. J.T. Oliveira, and M. A.L. Marques.,  SoftwareX 7, 1–5 (2018) (10.1016/j.softx.2017.11.002)

   => Composite Functional: B3LYP <= 

    B3LYP Hyb-GGA Exchange-Correlation Functional

    P. J. Stephens, F. J. Devlin, C. F. Chabalowski, and M. J. Frisch.,  J. Phys. Chem. 98, 11623 (1994) (10.1021/j100096a001)

    Deriv               =              1
    GGA                 =           TRUE
    Meta                =          FALSE

    Exchange Hybrid     =           TRUE
    MP2 Hybrid          =          FALSE

   => Exchange Functionals <=

    0.0800   Slater exchange
    0.7200         Becke 88

   => Exact (HF) Exchange <=

    0.2000               HF 

   => Correlation Functionals <=

    0.1900   Vosko, Wilk & Nusair (VWN5_RPA)
    0.8100   Lee, Yang & Parr

   => LibXC Density Thresholds  <==

    XC_HYB_GGA_XC_B3LYP:  1.00E-15 

   => Molecular Quadrature <=

    Radial Scheme          =       TREUTLER
    Pruning Scheme         =           NONE
    Nuclear Scheme         =       TREUTLER

    Blocking Scheme        =         OCTREE
    BS radius alpha        =              1
    Pruning alpha          =              1
    Radial Points          =             75
    Spherical Points       =            302
    Total Points           =          41466
    Total Blocks           =            389
    Max Points             =            248
    Max Functions          =             36
    Weights Tolerance      =       1.00E-15


  -Total Gradient:
     Atom            X                  Y                   Z
    ------   -----------------  -----------------  -----------------
       1        0.000000000000     0.000000000000    -2.557181176487
       2       -0.000000000000    -0.000000000000     2.557239518710


*** tstop() called on Joses-MacBook-Pro-2.local at Thu Jul 17 11:49:39 2025
Module time:
	user time   =       2.25 seconds =       0.04 minutes
	system time =       1.12 seconds =       0.02 minutes
	total time  =          0 seconds =       0.00 minutes
Total time:
	user time   =      45.83 seconds =       0.76 minutes
	system time =       8.49 seconds =       0.14 minutes
	total time  =          5 seconds =       0.08 minutes

    			-----------------------------------------

    			 OPTKING 3.0: for geometry optimizations 

    			     By R.A. King, Bethel University     

    			        with contributions from          

    			    A.V. Copan, J. Cayton, A. Heide      

    			-----------------------------------------

    
	                            ===> Fragment 1 <== 

	 Z (Atomic Numbers)          Masses                          Geom                  
	      14.000000            27.976927          0.00000000  0.00000000  1.22919931   
	      16.000000            31.972071          0.00000000  0.00000000 -1.07560185   

	 - Coordinate -           - BOHR/RAD -       - ANG/DEG -
	 R(1,2)           =         2.304801           1.219648


	        --- Internal Coordinate Step in ANG or DEG, aJ/ANG or AJ/DEG ---
	-------------------------------------------------------------------------------
	           Coordinate      Previous         Force          Change          New 
	           ----------      --------        ------          ------        ------
	               R(1,2)       1.21965       21.06815        0.04927       1.26892
	-------------------------------------------------------------------------------

	                                 ==> Convergence Check <==                                  
    
	Measures of convergence in internal coordinates in au.
    
	Criteria marked as inactive (o), active & met (*), and active & unmet ( ).

	----------------------------------------------------------------------------------------------
	   Step    Total Energy     Delta E     Max Force     RMS Force      Max Disp      RMS Disp   
	----------------------------------------------------------------------------------------------
	  Convergence Criteria     1.00e-06 *    3.00e-04 *             o    1.20e-03 *             o
	----------------------------------------------------------------------------------------------
	     3    -686.47752205   -6.43e-02      2.56e+00      2.56e+00 o    9.31e-02      9.31e-02 o  ~
	----------------------------------------------------------------------------------------------

Next Geometry in Ang 
	Fragment 1 (Ang)

	   Si   0.0000000000   0.0000000000   0.6750988128
	    S   0.0000000000   0.0000000000  -0.5938185354


    Structure for next step:
    Molecular point group: c2v
    Full point group: C_inf_v

    Geometry (in Angstrom), charge = -1, multiplicity = 4:

    SI           0.000000000000     0.000000000000     0.676740518105
    S            0.000000000000     0.000000000000    -0.592176830045


Scratch directory: /tmp/
gradient() will perform analytic gradient computation.
   => Libint2 <=

    Primary   basis highest AM E, G, H:  6, 6, 3
    Auxiliary basis highest AM E, G, H:  7, 7, 4
    Onebody   basis highest AM E, G, H:  -, -, -
    Solid Harmonics ordering:            Gaussian

*** tstart() called on Joses-MacBook-Pro-2.local
*** at Thu Jul 17 11:49:39 2025

   => Loading Basis Set <=

    Name: CC-PVDZ
    Role: ORBITAL
    Keyword: BASIS
    atoms 1 entry SI         line   478 file /Users/joseantoniorodriguesromero/anaconda3/share/psi4/basis/cc-pvdz.gbs 
    atoms 2 entry S          line   598 file /Users/joseantoniorodriguesromero/anaconda3/share/psi4/basis/cc-pvdz.gbs 


         ---------------------------------------------------------
                                   SCF
               by Justin Turney, Rob Parrish, Andy Simmonett
                          and Daniel G. A. Smith
                              UKS Reference
                        1 Threads,    500 MiB Core
         ---------------------------------------------------------

  ==> Geometry <==

    Molecular point group: c2v
    Full point group: C_inf_v

    Geometry (in Angstrom), charge = -1, multiplicity = 4:

       Center              X                  Y                   Z               Mass       
    ------------   -----------------  -----------------  -----------------  -----------------
         SI           0.000000000000     0.000000000000     0.676740518105    27.976926534650
         S            0.000000000000     0.000000000000    -0.592176830045    31.972071174400

  Running in c2v symmetry.

  Rotational constants: A = ************  B =      0.70168  C =      0.70168 [cm^-1]
  Rotational constants: A = ************  B =  21035.92833  C =  21035.92833 [MHz]
  Nuclear repulsion =   93.414827500663932

  Charge       = -1
  Multiplicity = 4
  Electrons    = 31
  Nalpha       = 17
  Nbeta        = 14

  ==> Algorithm <==

  SCF Algorithm Type is DF.
  DIIS enabled.
  MOM disabled.
  Fractional occupation disabled.
  Guess Type is READ.
  Energy threshold   = 1.00e-08
  Density threshold  = 1.00e-08
  Integral threshold = 1.00e-12

  ==> Primary Basis <==

  Basis Set: CC-PVDZ
    Blend: CC-PVDZ
    Number of shells: 16
    Number of basis functions: 36
    Number of Cartesian functions: 38
    Spherical Harmonics?: true
    Max angular momentum: 2

  ==> DFT Potential <==

   => LibXC <=

    Version 6.2.2
    S. Lehtola, C. Steigemann, M. J.T. Oliveira, and M. A.L. Marques.,  SoftwareX 7, 1–5 (2018) (10.1016/j.softx.2017.11.002)

   => Composite Functional: B3LYP <= 

    B3LYP Hyb-GGA Exchange-Correlation Functional

    P. J. Stephens, F. J. Devlin, C. F. Chabalowski, and M. J. Frisch.,  J. Phys. Chem. 98, 11623 (1994) (10.1021/j100096a001)

    Deriv               =              1
    GGA                 =           TRUE
    Meta                =          FALSE

    Exchange Hybrid     =           TRUE
    MP2 Hybrid          =          FALSE

   => Exchange Functionals <=

    0.0800   Slater exchange
    0.7200         Becke 88

   => Exact (HF) Exchange <=

    0.2000               HF 

   => Correlation Functionals <=

    0.1900   Vosko, Wilk & Nusair (VWN5_RPA)
    0.8100   Lee, Yang & Parr

   => LibXC Density Thresholds  <==

    XC_HYB_GGA_XC_B3LYP:  1.00E-15 

   => Molecular Quadrature <=

    Radial Scheme          =       TREUTLER
    Pruning Scheme         =           NONE
    Nuclear Scheme         =       TREUTLER

    Blocking Scheme        =         OCTREE
    BS radius alpha        =              1
    Pruning alpha          =              1
    Radial Points          =             75
    Spherical Points       =            302
    Total Points           =          41474
    Total Blocks           =            388
    Max Points             =            250
    Max Functions          =             36
    Weights Tolerance      =       1.00E-15

   => Loading Basis Set <=

    Name: (CC-PVDZ AUX)
    Role: JKFIT
    Keyword: DF_BASIS_SCF
    atoms 1 entry SI         line   445 file /Users/joseantoniorodriguesromero/anaconda3/share/psi4/basis/cc-pvdz-jkfit.gbs 
    atoms 2 entry S          line   593 file /Users/joseantoniorodriguesromero/anaconda3/share/psi4/basis/cc-pvdz-jkfit.gbs 

   => Loading Basis Set <=

    Name: CC-PVDZ
    Role: ORBITAL
    Keyword: BASIS
    atoms 1 entry SI         line   478 file /Users/joseantoniorodriguesromero/anaconda3/share/psi4/basis/cc-pvdz.gbs 
    atoms 2 entry S          line   598 file /Users/joseantoniorodriguesromero/anaconda3/share/psi4/basis/cc-pvdz.gbs 

  Reading orbitals from file /tmp/quartet_SiS.default.73310.180.npy, no projection.

  ==> Integral Setup <==

  DFHelper Memory: AOs need 0.003 GiB; user supplied 0.324 GiB. 
  Using in-core AOs.

  ==> MemDFJK: Density-Fitted J/K Matrices <==

    J tasked:                   Yes
    K tasked:                   Yes
    wK tasked:                   No
    OpenMP threads:               1
    Memory [MiB]:               331
    Algorithm:                 Core
    Schwarz Cutoff:           1E-12
    Mask sparsity (%):       0.0000
    Fitting Condition:        1E-10

   => Auxiliary Basis Set <=

  Basis Set: (CC-PVDZ AUX)
    Blend: CC-PVDZ-JKFIT
    Number of shells: 72
    Number of basis functions: 224
    Number of Cartesian functions: 260
    Spherical Harmonics?: true
    Max angular momentum: 3

  Cached 100.0% of DFT collocation blocks in 0.043 [GiB].

  Minimum eigenvalue in the overlap matrix is 5.7988927937E-03.
  Reciprocal condition number of the overlap matrix is 1.8209930889E-03.
    Using symmetric orthogonalization.

  ==> Pre-Iterations <==

  SCF Guess: Orbitals guess was supplied from a previous computation.

   -------------------------------------------------------
    Irrep   Nso     Nmo     Nalpha   Nbeta   Ndocc  Nsocc
   -------------------------------------------------------
     A1        18      18       9       8       8       1
     A2         2       2       0       0       0       0
     B1         8       8       4       3       3       1
     B2         8       8       4       3       3       1
   -------------------------------------------------------
    Total      36      36      17      14      14       3
   -------------------------------------------------------

  ==> Iterations <==

                           Total Energy        Delta E     RMS |[F,P]|

   @DF-UKS iter   0:  -686.68372146837635   -6.86684e+02   2.17419e-02 
   @DF-UKS iter   1:  -686.69400390989631   -1.02824e-02   2.45969e-03 ADIIS/DIIS
   @DF-UKS iter   2:  -686.69436895730826   -3.65047e-04   2.22389e-03 ADIIS/DIIS/DAMP=1%
   @DF-UKS iter   3:  -686.69994806588829   -5.57911e-03   5.59337e-05 DIIS/DAMP=1%
   @DF-UKS iter   4:  -686.69588210902532    4.06596e-03   2.24248e-05 DIIS/DAMP=1%
   @DF-UKS iter   5:  -686.69589629644236   -1.41874e-05   1.26799e-05 DIIS/DAMP=1%
   @DF-UKS iter   6:  -686.69587361920708    2.26772e-05   9.51376e-07 DIIS/DAMP=1%
   @DF-UKS iter   7:  -686.69587331397156    3.05236e-07   1.17190e-07 DIIS/DAMP=1%
   @DF-UKS iter   8:  -686.69587392383926   -6.09868e-07   5.25864e-08 DIIS/DAMP=1%
   @DF-UKS iter   9:  -686.69587397139685   -4.75576e-08   3.10708e-09 DIIS/DAMP=1%
   @DF-UKS iter  10:  -686.69587393014228    4.12546e-08   4.02141e-10 DIIS/DAMP=1%
   @DF-UKS iter  11:  -686.69587393211680   -1.97451e-09   5.52218e-11 DIIS/DAMP=1%
  Energy and wave function converged.


  ==> Post-Iterations <==

   Electrons on quadrature grid:
      Nalpha   =   16.9999984705 ; deviation = -1.530e-06
      Nbeta    =   13.9999984239 ; deviation = -1.576e-06
      Ntotal   =   30.9999968943 ; deviation = -3.106e-06 

   @Spin Contamination Metric:   2.503269391E-03
   @S^2 Expected:                3.750000000E+00
   @S^2 Observed:                3.752503269E+00
   @S   Expected:                1.500000000E+00
   @S   Observed:                1.500000000E+00

    Orbital Energies [Eh]
    ---------------------

    Alpha Occupied:                                                       

       1A1   -88.597392     2A1   -65.889072     3A1    -7.728575  
       4A1    -5.704495     1B2    -5.670649     1B1    -5.670649  
       5A1    -5.115460     6A1    -3.501250     2B2    -3.450710  
       2B1    -3.450710     7A1    -0.584313     8A1    -0.187858  
       3B1    -0.166444     3B2    -0.166444     9A1    -0.041428  
       4B1     0.136346     4B2     0.136346  

    Alpha Virtual:                                                        

      10A1     0.282256     5B2     0.427430     5B1     0.427430  
      11A1     0.463245    12A1     0.510001     1A2     0.510001  
      13A1     0.537581     6B2     0.609751     6B1     0.609751  
      14A1     0.651286     7B2     0.805963     7B1     0.805963  
       2A2     0.916211    15A1     0.916212    16A1     0.918500  
       8B2     1.288502     8B1     1.288502    17A1     1.308013  
      18A1     1.937998  

    Beta Occupied:                                                        

       1A1   -88.592708     2A1   -65.883059     3A1    -7.723660  
       4A1    -5.696766     1B2    -5.664337     1B1    -5.664337  
       5A1    -5.108770     6A1    -3.487626     2B2    -3.443023  
       2B1    -3.443023     7A1    -0.559075     3B1    -0.142366  
       3B2    -0.142366     8A1    -0.131442  

    Beta Virtual:                                                         

       9A1     0.094481     4B1     0.246708     4B2     0.246708  
      10A1     0.300811     5B2     0.449197     5B1     0.449197  
      11A1     0.511086    12A1     0.551297     1A2     0.551297  
      13A1     0.556992     6B2     0.674449     6B1     0.674449  
      14A1     0.706954     7B2     0.834226     7B1     0.834226  
      15A1     0.939001     2A2     0.960656    16A1     0.960657  
       8B2     1.327173     8B1     1.327173    17A1     1.330744  
      18A1     1.964723  

    Final Occupation by Irrep:
             A1    A2    B1    B2 
    DOCC [     8,    0,    3,    3 ]
    SOCC [     1,    0,    1,    1 ]
    NA   [     9,    0,    4,    4 ]
    NB   [     8,    0,    3,    3 ]

  @DF-UKS Final Energy:  -686.69587393211680

   => Energetics <=

    Nuclear Repulsion Energy =             93.4148275006639324
    One-Electron Energy =               -1141.7586542242615906
    Two-Electron Energy =                 399.7845942508340045
    DFT Exchange-Correlation Energy =     -38.1366414593532070
    Empirical Dispersion Energy =           0.0000000000000000
    VV10 Nonlocal Energy =                  0.0000000000000000
    Total Energy =                       -686.6958739321167968

  UHF NO Occupations:
  HONO-2 :    4 B2 1.0000000
  HONO-1 :    9 A1 1.0000000
  HONO-0 :    4 B1 1.0000000
  LUNO+0 :    5 B2 0.0005376
  LUNO+1 :    5 B1 0.0005376
  LUNO+2 :   10 A1 0.0001468
  LUNO+3 :   11 A1 0.0000297


Computation Completed


Properties will be evaluated at   0.000000,   0.000000,   0.000000 [a0]

Properties computed using the SCF density matrix


 Multipole Moments:

 ------------------------------------------------------------------------------------
     Multipole            Electronic (a.u.)      Nuclear  (a.u.)        Total (a.u.)
 ------------------------------------------------------------------------------------

 L = 1.  Multiply by 2.5417464519 to convert [e a0] to [Debye]
 Dipole X            :          0.0000000            0.0000000            0.0000000
 Dipole Y            :          0.0000000            0.0000000            0.0000000
 Dipole Z            :         -1.0465311           -0.0008731           -1.0474042
 Magnitude           :                                                    1.0474042

 ------------------------------------------------------------------------------------

*** tstop() called on Joses-MacBook-Pro-2.local at Thu Jul 17 11:49:40 2025
Module time:
	user time   =       8.66 seconds =       0.14 minutes
	system time =       1.62 seconds =       0.03 minutes
	total time  =          1 seconds =       0.02 minutes
Total time:
	user time   =      54.59 seconds =       0.91 minutes
	system time =      10.28 seconds =       0.17 minutes
	total time  =          6 seconds =       0.10 minutes

*** tstart() called on Joses-MacBook-Pro-2.local
*** at Thu Jul 17 11:49:40 2025


         ------------------------------------------------------------
                                   SCF GRAD                          
                          Rob Parrish, Justin Turney,                
                       Andy Simmonett, and Alex Sokolov              
         ------------------------------------------------------------

  ==> Geometry <==

    Molecular point group: c2v
    Full point group: C_inf_v

    Geometry (in Angstrom), charge = -1, multiplicity = 4:

       Center              X                  Y                   Z               Mass       
    ------------   -----------------  -----------------  -----------------  -----------------
         SI           0.000000000000     0.000000000000     0.676740518105    27.976926534650
         S            0.000000000000     0.000000000000    -0.592176830045    31.972071174400

  Nuclear repulsion =   93.414827500663932

  ==> Basis Set <==

  Basis Set: CC-PVDZ
    Blend: CC-PVDZ
    Number of shells: 16
    Number of basis functions: 36
    Number of Cartesian functions: 38
    Spherical Harmonics?: true
    Max angular momentum: 2

  ==> DFJKGrad: Density-Fitted SCF Gradients <==

    Gradient:                    1
    J tasked:                  Yes
    K tasked:                  Yes
    wK tasked:                  No
    OpenMP threads:              1
    Integrals threads:           1
    Memory [MiB]:              375
    Schwarz Cutoff:          1E-12
    Fitting Condition:       1E-10

   => Auxiliary Basis Set <=

  Basis Set: (CC-PVDZ AUX)
    Blend: CC-PVDZ-JKFIT
    Number of shells: 72
    Number of basis functions: 224
    Number of Cartesian functions: 260
    Spherical Harmonics?: true
    Max angular momentum: 3

  ==> DFT Potential <==

   => LibXC <=

    Version 6.2.2
    S. Lehtola, C. Steigemann, M. J.T. Oliveira, and M. A.L. Marques.,  SoftwareX 7, 1–5 (2018) (10.1016/j.softx.2017.11.002)

   => Composite Functional: B3LYP <= 

    B3LYP Hyb-GGA Exchange-Correlation Functional

    P. J. Stephens, F. J. Devlin, C. F. Chabalowski, and M. J. Frisch.,  J. Phys. Chem. 98, 11623 (1994) (10.1021/j100096a001)

    Deriv               =              1
    GGA                 =           TRUE
    Meta                =          FALSE

    Exchange Hybrid     =           TRUE
    MP2 Hybrid          =          FALSE

   => Exchange Functionals <=

    0.0800   Slater exchange
    0.7200         Becke 88

   => Exact (HF) Exchange <=

    0.2000               HF 

   => Correlation Functionals <=

    0.1900   Vosko, Wilk & Nusair (VWN5_RPA)
    0.8100   Lee, Yang & Parr

   => LibXC Density Thresholds  <==

    XC_HYB_GGA_XC_B3LYP:  1.00E-15 

   => Molecular Quadrature <=

    Radial Scheme          =       TREUTLER
    Pruning Scheme         =           NONE
    Nuclear Scheme         =       TREUTLER

    Blocking Scheme        =         OCTREE
    BS radius alpha        =              1
    Pruning alpha          =              1
    Radial Points          =             75
    Spherical Points       =            302
    Total Points           =          41474
    Total Blocks           =            388
    Max Points             =            250
    Max Functions          =             36
    Weights Tolerance      =       1.00E-15


  -Total Gradient:
     Atom            X                  Y                   Z
    ------   -----------------  -----------------  -----------------
       1       -0.000000000000     0.000000000000    -2.142756947558
       2       -0.000000000000     0.000000000000     2.142774337937


*** tstop() called on Joses-MacBook-Pro-2.local at Thu Jul 17 11:49:41 2025
Module time:
	user time   =       3.08 seconds =       0.05 minutes
	system time =       1.22 seconds =       0.02 minutes
	total time  =          1 seconds =       0.02 minutes
Total time:
	user time   =      57.69 seconds =       0.96 minutes
	system time =      11.50 seconds =       0.19 minutes
	total time  =          7 seconds =       0.12 minutes

    			-----------------------------------------

    			 OPTKING 3.0: for geometry optimizations 

    			     By R.A. King, Bethel University     

    			        with contributions from          

    			    A.V. Copan, J. Cayton, A. Heide      

    			-----------------------------------------

    
	                            ===> Fragment 1 <== 

	 Z (Atomic Numbers)          Masses                          Geom                  
	      14.000000            27.976927          0.00000000  0.00000000  1.27885424   
	      16.000000            31.972071          0.00000000  0.00000000 -1.11905203   

	 - Coordinate -           - BOHR/RAD -       - ANG/DEG -
	 R(1,2)           =         2.397906           1.268917


	        --- Internal Coordinate Step in ANG or DEG, aJ/ANG or AJ/DEG ---
	-------------------------------------------------------------------------------
	           Coordinate      Previous         Force          Change          New 
	           ----------      --------        ------          ------        ------
	               R(1,2)       1.26892       17.65365        0.20907       1.47799
	-------------------------------------------------------------------------------

	                                 ==> Convergence Check <==                                  
    
	Measures of convergence in internal coordinates in au.
    
	Criteria marked as inactive (o), active & met (*), and active & unmet ( ).

	----------------------------------------------------------------------------------------------
	   Step    Total Energy     Delta E     Max Force     RMS Force      Max Disp      RMS Disp   
	----------------------------------------------------------------------------------------------
	  Convergence Criteria     1.00e-06 *    3.00e-04 *             o    1.20e-03 *             o
	----------------------------------------------------------------------------------------------
	     4    -686.69587393   -2.18e-01      2.14e+00      2.14e+00 o    3.95e-01      3.95e-01 o  ~
	----------------------------------------------------------------------------------------------

Next Geometry in Ang 
	Fragment 1 (Ang)

	   Si   0.0000000000   0.0000000000   0.7812775770
	    S   0.0000000000   0.0000000000  -0.6967138889


    Structure for next step:
    Molecular point group: c2v
    Full point group: C_inf_v

    Geometry (in Angstrom), charge = -1, multiplicity = 4:

    SI           0.000000000000     0.000000000000     0.788244176726
    S            0.000000000000     0.000000000000    -0.689747289231


Scratch directory: /tmp/
gradient() will perform analytic gradient computation.
   => Libint2 <=

    Primary   basis highest AM E, G, H:  6, 6, 3
    Auxiliary basis highest AM E, G, H:  7, 7, 4
    Onebody   basis highest AM E, G, H:  -, -, -
    Solid Harmonics ordering:            Gaussian

*** tstart() called on Joses-MacBook-Pro-2.local
*** at Thu Jul 17 11:49:41 2025

   => Loading Basis Set <=

    Name: CC-PVDZ
    Role: ORBITAL
    Keyword: BASIS
    atoms 1 entry SI         line   478 file /Users/joseantoniorodriguesromero/anaconda3/share/psi4/basis/cc-pvdz.gbs 
    atoms 2 entry S          line   598 file /Users/joseantoniorodriguesromero/anaconda3/share/psi4/basis/cc-pvdz.gbs 


         ---------------------------------------------------------
                                   SCF
               by Justin Turney, Rob Parrish, Andy Simmonett
                          and Daniel G. A. Smith
                              UKS Reference
                        1 Threads,    500 MiB Core
         ---------------------------------------------------------

  ==> Geometry <==

    Molecular point group: c2v
    Full point group: C_inf_v

    Geometry (in Angstrom), charge = -1, multiplicity = 4:

       Center              X                  Y                   Z               Mass       
    ------------   -----------------  -----------------  -----------------  -----------------
         SI           0.000000000000     0.000000000000     0.788244176726    27.976926534650
         S            0.000000000000     0.000000000000    -0.689747289231    31.972071174400

  Running in c2v symmetry.

  Rotational constants: A = ************  B =      0.51721  C =      0.51721 [cm^-1]
  Rotational constants: A = ************  B =  15505.45445  C =  15505.45445 [MHz]
  Nuclear repulsion =   80.200527486382072

  Charge       = -1
  Multiplicity = 4
  Electrons    = 31
  Nalpha       = 17
  Nbeta        = 14

  ==> Algorithm <==

[...]

	----------------------------------------------------------------------------------------------
	   Step    Total Energy     Delta E     Max Force     RMS Force      Max Disp      RMS Disp   
	----------------------------------------------------------------------------------------------
	  Convergence Criteria     1.00e-06 *    3.00e-04 *             o    1.20e-03 *             o
	----------------------------------------------------------------------------------------------
	    15    -687.64250473   -6.49e-06      3.14e-04      3.14e-04 o    2.77e-03      2.77e-03 o  ~
	----------------------------------------------------------------------------------------------

Next Geometry in Ang 
	Fragment 1 (Ang)

	   Si   0.0000000000   0.0000000000   1.1660734769
	    S   0.0000000000   0.0000000000  -1.0204555072


    Structure for next step:
    Molecular point group: c2v
    Full point group: C_inf_v

    Geometry (in Angstrom), charge = -1, multiplicity = 4:

    SI           0.000000000000     0.000000000000     1.166122253534
    S            0.000000000000     0.000000000000    -1.020406730598


Scratch directory: /tmp/
gradient() will perform analytic gradient computation.
   => Libint2 <=

    Primary   basis highest AM E, G, H:  6, 6, 3
    Auxiliary basis highest AM E, G, H:  7, 7, 4
    Onebody   basis highest AM E, G, H:  -, -, -
    Solid Harmonics ordering:            Gaussian

*** tstart() called on Joses-MacBook-Pro-2.local
*** at Thu Jul 17 11:49:56 2025

   => Loading Basis Set <=

    Name: CC-PVDZ
    Role: ORBITAL
    Keyword: BASIS
    atoms 1 entry SI         line   478 file /Users/joseantoniorodriguesromero/anaconda3/share/psi4/basis/cc-pvdz.gbs 
    atoms 2 entry S          line   598 file /Users/joseantoniorodriguesromero/anaconda3/share/psi4/basis/cc-pvdz.gbs 


         ---------------------------------------------------------
                                   SCF
               by Justin Turney, Rob Parrish, Andy Simmonett
                          and Daniel G. A. Smith
                              UKS Reference
                        1 Threads,    500 MiB Core
         ---------------------------------------------------------

  ==> Geometry <==

    Molecular point group: c2v
    Full point group: C_inf_v

    Geometry (in Angstrom), charge = -1, multiplicity = 4:

       Center              X                  Y                   Z               Mass       
    ------------   -----------------  -----------------  -----------------  -----------------
         SI           0.000000000000     0.000000000000     1.166122253534    27.976926534650
         S            0.000000000000     0.000000000000    -1.020406730598    31.972071174400

  Running in c2v symmetry.

  Rotational constants: A = ************  B =      0.23632  C =      0.23632 [cm^-1]
  Rotational constants: A = ************  B =   7084.64144  C =   7084.64144 [MHz]
  Nuclear repulsion =   54.211810614135210

  Charge       = -1
  Multiplicity = 4
  Electrons    = 31
  Nalpha       = 17
  Nbeta        = 14

  ==> Algorithm <==

  SCF Algorithm Type is DF.
  DIIS enabled.
  MOM disabled.
  Fractional occupation disabled.
  Guess Type is READ.
  Energy threshold   = 1.00e-08
  Density threshold  = 1.00e-08
  Integral threshold = 1.00e-12

  ==> Primary Basis <==

  Basis Set: CC-PVDZ
    Blend: CC-PVDZ
    Number of shells: 16
    Number of basis functions: 36
    Number of Cartesian functions: 38
    Spherical Harmonics?: true
    Max angular momentum: 2

  ==> DFT Potential <==

   => LibXC <=

    Version 6.2.2
    S. Lehtola, C. Steigemann, M. J.T. Oliveira, and M. A.L. Marques.,  SoftwareX 7, 1–5 (2018) (10.1016/j.softx.2017.11.002)

   => Composite Functional: B3LYP <= 

    B3LYP Hyb-GGA Exchange-Correlation Functional

    P. J. Stephens, F. J. Devlin, C. F. Chabalowski, and M. J. Frisch.,  J. Phys. Chem. 98, 11623 (1994) (10.1021/j100096a001)

    Deriv               =              1
    GGA                 =           TRUE
    Meta                =          FALSE

    Exchange Hybrid     =           TRUE
    MP2 Hybrid          =          FALSE

   => Exchange Functionals <=

    0.0800   Slater exchange
    0.7200         Becke 88

   => Exact (HF) Exchange <=

    0.2000               HF 

   => Correlation Functionals <=

    0.1900   Vosko, Wilk & Nusair (VWN5_RPA)
    0.8100   Lee, Yang & Parr

   => LibXC Density Thresholds  <==

    XC_HYB_GGA_XC_B3LYP:  1.00E-15 

   => Molecular Quadrature <=

    Radial Scheme          =       TREUTLER
    Pruning Scheme         =           NONE
    Nuclear Scheme         =       TREUTLER

    Blocking Scheme        =         OCTREE
    BS radius alpha        =              1
    Pruning alpha          =              1
    Radial Points          =             75
    Spherical Points       =            302
    Total Points           =          41609
    Total Blocks           =            383
    Max Points             =            256
    Max Functions          =             36
    Weights Tolerance      =       1.00E-15

   => Loading Basis Set <=

    Name: (CC-PVDZ AUX)
    Role: JKFIT
    Keyword: DF_BASIS_SCF
    atoms 1 entry SI         line   445 file /Users/joseantoniorodriguesromero/anaconda3/share/psi4/basis/cc-pvdz-jkfit.gbs 
    atoms 2 entry S          line   593 file /Users/joseantoniorodriguesromero/anaconda3/share/psi4/basis/cc-pvdz-jkfit.gbs 

   => Loading Basis Set <=

    Name: CC-PVDZ
    Role: ORBITAL
    Keyword: BASIS
    atoms 1 entry SI         line   478 file /Users/joseantoniorodriguesromero/anaconda3/share/psi4/basis/cc-pvdz.gbs 
    atoms 2 entry S          line   598 file /Users/joseantoniorodriguesromero/anaconda3/share/psi4/basis/cc-pvdz.gbs 

  Reading orbitals from file /tmp/quartet_SiS.default.73310.180.npy, no projection.

  ==> Integral Setup <==

  DFHelper Memory: AOs need 0.003 GiB; user supplied 0.324 GiB. 
  Using in-core AOs.

  ==> MemDFJK: Density-Fitted J/K Matrices <==

    J tasked:                   Yes
    K tasked:                   Yes
    wK tasked:                   No
    OpenMP threads:               1
    Memory [MiB]:               331
    Algorithm:                 Core
    Schwarz Cutoff:           1E-12
    Mask sparsity (%):       0.0000
    Fitting Condition:        1E-10

   => Auxiliary Basis Set <=

  Basis Set: (CC-PVDZ AUX)
    Blend: CC-PVDZ-JKFIT
    Number of shells: 72
    Number of basis functions: 224
    Number of Cartesian functions: 260
    Spherical Harmonics?: true
    Max angular momentum: 3

  Cached 100.0% of DFT collocation blocks in 0.042 [GiB].

  Minimum eigenvalue in the overlap matrix is 2.4095932501E-02.
  Reciprocal condition number of the overlap matrix is 8.5222431747E-03.
    Using symmetric orthogonalization.

  ==> Pre-Iterations <==

  SCF Guess: Orbitals guess was supplied from a previous computation.

   -------------------------------------------------------
    Irrep   Nso     Nmo     Nalpha   Nbeta   Ndocc  Nsocc
   -------------------------------------------------------
     A1        18      18       9       8       8       1
     A2         2       2       0       0       0       0
     B1         8       8       4       3       3       1
     B2         8       8       4       3       3       1
   -------------------------------------------------------
    Total      36      36      17      14      14       3
   -------------------------------------------------------

  ==> Iterations <==

                           Total Energy        Delta E     RMS |[F,P]|

   @DF-UKS iter   0:  -687.64218170809556   -6.87642e+02   9.68243e-05 
   @DF-UKS iter   1:  -687.64250506896838   -3.23361e-04   1.67141e-05 DIIS
   @DF-UKS iter   2:  -687.64250500064895    6.83194e-08   2.32331e-05 DIIS/DAMP=1%
   @DF-UKS iter   3:  -687.64247989450519    2.51061e-05   5.27825e-06 DIIS/DAMP=1%
   @DF-UKS iter   4:  -687.64250551005432   -2.56155e-05   1.57563e-06 DIIS/DAMP=1%
   @DF-UKS iter   5:  -687.64250439918976    1.11086e-06   2.59695e-07 DIIS/DAMP=1%
   @DF-UKS iter   6:  -687.64250533315214   -9.33962e-07   7.41241e-08 DIIS/DAMP=1%
   @DF-UKS iter   7:  -687.64250519367545    1.39477e-07   1.26662e-08 DIIS/DAMP=1%
   @DF-UKS iter   8:  -687.64250519629206   -2.61662e-09   3.17700e-09 DIIS/DAMP=1%
  Energy and wave function converged.


  ==> Post-Iterations <==

   Electrons on quadrature grid:
      Nalpha   =   17.0000007288 ; deviation = 7.288e-07
      Nbeta    =   14.0000006842 ; deviation = 6.842e-07
      Ntotal   =   31.0000014130 ; deviation = 1.413e-06 

   @Spin Contamination Metric:   4.336237017E-03
   @S^2 Expected:                3.750000000E+00
   @S^2 Observed:                3.754336237E+00
   @S   Expected:                1.500000000E+00
   @S   Observed:                1.500000000E+00

    Orbital Energies [Eh]
    ---------------------

    Alpha Occupied:                                                       

       1A1   -88.637451     2A1   -65.933805     3A1    -7.697015  
       4A1    -5.666582     1B1    -5.653908     1B2    -5.653908  
       5A1    -5.076449     6A1    -3.437732     2B1    -3.434872  
       2B2    -3.434872     7A1    -0.462090     8A1    -0.238476  
       9A1    -0.088086     3B2    -0.053019     3B1    -0.053019  
       4B2     0.052058     4B1     0.052058  

    Alpha Virtual:                                                        

      10A1     0.213178    11A1     0.432428    12A1     0.470039  
       5B1     0.500972     5B2     0.500972     6B2     0.546135  
       6B1     0.546135    13A1     0.558314     1A2     0.558315  
      14A1     0.589885     7B1     0.737286     7B2     0.737286  
      15A1     0.829284     2A2     0.856369    16A1     0.856370  
      17A1     0.878469     8B1     0.966488     8B2     0.966488  
      18A1     1.289741  

    Beta Occupied:                                                        

       1A1   -88.633063     2A1   -65.927000     3A1    -7.692591  
       4A1    -5.656641     1B1    -5.648847     1B2    -5.648847  
       5A1    -5.068393     6A1    -3.429409     2B1    -3.423184  
       2B2    -3.423184     7A1    -0.426691     8A1    -0.163919  
       3B2    -0.025173     3B1    -0.025173  

    Beta Virtual:                                                         

       9A1     0.025151     4B1     0.159036     4B2     0.159036  
      10A1     0.250863    11A1     0.458233    12A1     0.507229  
       5B1     0.534398     5B2     0.534398     6B1     0.604898  
       6B2     0.604898    13A1     0.625495    14A1     0.629763  
       1A2     0.629764     7B1     0.749591     7B2     0.749591  
      15A1     0.861863     2A2     0.877071    16A1     0.877072  
      17A1     0.908458     8B1     1.004289     8B2     1.004289  
      18A1     1.315698  

    Final Occupation by Irrep:
             A1    A2    B1    B2 
    DOCC [     8,    0,    3,    3 ]
    SOCC [     1,    0,    1,    1 ]
    NA   [     9,    0,    4,    4 ]
    NB   [     8,    0,    3,    3 ]

  @DF-UKS Final Energy:  -687.64250519629206

   => Energetics <=

    Nuclear Repulsion Energy =             54.2118106141352101
    One-Electron Energy =               -1066.2782130555974618
    Two-Electron Energy =                 362.1085141684623068
    DFT Exchange-Correlation Energy =     -37.6846169232920616
    Empirical Dispersion Energy =           0.0000000000000000
    VV10 Nonlocal Energy =                  0.0000000000000000
    Total Energy =                       -687.6425051962920634

  UHF NO Occupations:
  HONO-2 :    4 B2 1.0000000
  HONO-1 :    4 B1 1.0000000
  HONO-0 :    9 A1 1.0000000
  LUNO+0 :   10 A1 0.0010529
  LUNO+1 :    5 B2 0.0004839
  LUNO+2 :    5 B1 0.0004839
  LUNO+3 :   11 A1 0.0001479


Computation Completed


Properties will be evaluated at   0.000000,   0.000000,   0.000000 [a0]

Properties computed using the SCF density matrix


 Multipole Moments:

 ------------------------------------------------------------------------------------
     Multipole            Electronic (a.u.)      Nuclear  (a.u.)        Total (a.u.)
 ------------------------------------------------------------------------------------

 L = 1.  Multiply by 2.5417464519 to convert [e a0] to [Debye]
 Dipole X            :          0.0000000            0.0000000            0.0000000
 Dipole Y            :          0.0000000            0.0000000            0.0000000
 Dipole Z            :         -0.1002900           -0.0015045           -0.1017944
 Magnitude           :                                                    0.1017944

 ------------------------------------------------------------------------------------

*** tstop() called on Joses-MacBook-Pro-2.local at Thu Jul 17 11:49:57 2025
Module time:
	user time   =       8.23 seconds =       0.14 minutes
	system time =       1.81 seconds =       0.03 minutes
	total time  =          1 seconds =       0.02 minutes
Total time:
	user time   =     200.08 seconds =       3.33 minutes
	system time =      44.45 seconds =       0.74 minutes
	total time  =         23 seconds =       0.38 minutes

*** tstart() called on Joses-MacBook-Pro-2.local
*** at Thu Jul 17 11:49:57 2025


         ------------------------------------------------------------
                                   SCF GRAD                          
                          Rob Parrish, Justin Turney,                
                       Andy Simmonett, and Alex Sokolov              
         ------------------------------------------------------------

  ==> Geometry <==

    Molecular point group: c2v
    Full point group: C_inf_v

    Geometry (in Angstrom), charge = -1, multiplicity = 4:

       Center              X                  Y                   Z               Mass       
    ------------   -----------------  -----------------  -----------------  -----------------
         SI           0.000000000000     0.000000000000     1.166122253534    27.976926534650
         S            0.000000000000     0.000000000000    -1.020406730598    31.972071174400

  Nuclear repulsion =   54.211810614135210

  ==> Basis Set <==

  Basis Set: CC-PVDZ
    Blend: CC-PVDZ
    Number of shells: 16
    Number of basis functions: 36
    Number of Cartesian functions: 38
    Spherical Harmonics?: true
    Max angular momentum: 2

  ==> DFJKGrad: Density-Fitted SCF Gradients <==

    Gradient:                    1
    J tasked:                  Yes
    K tasked:                  Yes
    wK tasked:                  No
    OpenMP threads:              1
    Integrals threads:           1
    Memory [MiB]:              375
    Schwarz Cutoff:          1E-12
    Fitting Condition:       1E-10

   => Auxiliary Basis Set <=

  Basis Set: (CC-PVDZ AUX)
    Blend: CC-PVDZ-JKFIT
    Number of shells: 72
    Number of basis functions: 224
    Number of Cartesian functions: 260
    Spherical Harmonics?: true
    Max angular momentum: 3

  ==> DFT Potential <==

   => LibXC <=

    Version 6.2.2
    S. Lehtola, C. Steigemann, M. J.T. Oliveira, and M. A.L. Marques.,  SoftwareX 7, 1–5 (2018) (10.1016/j.softx.2017.11.002)

   => Composite Functional: B3LYP <= 

    B3LYP Hyb-GGA Exchange-Correlation Functional

    P. J. Stephens, F. J. Devlin, C. F. Chabalowski, and M. J. Frisch.,  J. Phys. Chem. 98, 11623 (1994) (10.1021/j100096a001)

    Deriv               =              1
    GGA                 =           TRUE
    Meta                =          FALSE

    Exchange Hybrid     =           TRUE
    MP2 Hybrid          =          FALSE

   => Exchange Functionals <=

    0.0800   Slater exchange
    0.7200         Becke 88

   => Exact (HF) Exchange <=

    0.2000               HF 

   => Correlation Functionals <=

    0.1900   Vosko, Wilk & Nusair (VWN5_RPA)
    0.8100   Lee, Yang & Parr

   => LibXC Density Thresholds  <==

    XC_HYB_GGA_XC_B3LYP:  1.00E-15 

   => Molecular Quadrature <=

    Radial Scheme          =       TREUTLER
    Pruning Scheme         =           NONE
    Nuclear Scheme         =       TREUTLER

    Blocking Scheme        =         OCTREE
    BS radius alpha        =              1
    Pruning alpha          =              1
    Radial Points          =             75
    Spherical Points       =            302
    Total Points           =          41609
    Total Blocks           =            383
    Max Points             =            256
    Max Functions          =             36
    Weights Tolerance      =       1.00E-15


  -Total Gradient:
     Atom            X                  Y                   Z
    ------   -----------------  -----------------  -----------------
       1        0.000000000000     0.000000000000    -0.000039674214
       2       -0.000000000000     0.000000000000     0.000055206497


*** tstop() called on Joses-MacBook-Pro-2.local at Thu Jul 17 11:49:57 2025
Module time:
	user time   =       3.15 seconds =       0.05 minutes
	system time =       0.61 seconds =       0.01 minutes
	total time  =          0 seconds =       0.00 minutes
Total time:
	user time   =     203.23 seconds =       3.39 minutes
	system time =      45.06 seconds =       0.75 minutes
	total time  =         23 seconds =       0.38 minutes

    			-----------------------------------------

    			 OPTKING 3.0: for geometry optimizations 

    			     By R.A. King, Bethel University     

    			        with contributions from          

    			    A.V. Copan, J. Cayton, A. Heide      

    			-----------------------------------------

    
	                            ===> Fragment 1 <== 

	 Z (Atomic Numbers)          Masses                          Geom                  
	      14.000000            27.976927          0.00000000  0.00000000  2.20365169   
	      16.000000            31.972071          0.00000000  0.00000000 -1.92828926   

	 - Coordinate -           - BOHR/RAD -       - ANG/DEG -
	 R(1,2)           =         4.131941           2.186529


	        --- Internal Coordinate Step in ANG or DEG, aJ/ANG or AJ/DEG ---
	-------------------------------------------------------------------------------
	           Coordinate      Previous         Force          Change          New 
	           ----------      --------        ------          ------        ------
	               R(1,2)       2.18653        0.00039        0.00024       2.18677
	-------------------------------------------------------------------------------

	                                 ==> Convergence Check <==                                  
    
	Measures of convergence in internal coordinates in au.
    
	Criteria marked as inactive (o), active & met (*), and active & unmet ( ).

	----------------------------------------------------------------------------------------------
	   Step    Total Energy     Delta E     Max Force     RMS Force      Max Disp      RMS Disp   
	----------------------------------------------------------------------------------------------
	  Convergence Criteria     1.00e-06 *    3.00e-04 *             o    1.20e-03 *             o
	----------------------------------------------------------------------------------------------
	    16    -687.64250520   -4.68e-07 *    4.74e-05 *    4.74e-05 o    4.52e-04 *    4.52e-04 o  ~
	----------------------------------------------------------------------------------------------

Next Geometry in Ang 
	Fragment 1 (Ang)

	   Si   0.0000000000   0.0000000000   1.1662419420
	    S   0.0000000000   0.0000000000  -1.0205264190


    Final optimized geometry and variables:
    Molecular point group: c2v
    Full point group: C_inf_v

    Geometry (in Angstrom), charge = -1, multiplicity = 4:

    SI           0.000000000000     0.000000000000     1.166122253534
    S            0.000000000000     0.000000000000    -1.020406730598


    Psi4 stopped on: Thursday, 17 July 2025 11:49AM
    Psi4 wall time for execution: 0:00:24.05

*** Psi4 exiting successfully. Buy a developer a beer!
