
    -----------------------------------------------------------------------
          Psi4: An Open-Source Ab Initio Electronic Structure Package
                               Psi4 1.9.1 release

                         Git: Rev {} zzzzzzz 


    D. G. A. Smith, L. A. Burns, A. C. Simmonett, R. M. Parrish,
    M. C. Schieber, R. Galvelis, P. Kraus, H. Kruse, R. Di Remigio,
    A. Alenaizan, A. M. James, S. Lehtola, J. P. Misiewicz, M. Scheurer,
    R. A. Shaw, J. B. Schriber, Y. Xie, Z. L. Glick, D. A. Sirianni,
    J. S. O'Brien, J. M. Waldrop, A. Kumar, E. G. Hohenstein,
    B. P. Pritchard, B. R. Brooks, H. F. Schaefer III, A. Yu. Sokolov,
    K. Patkowski, A. E. DePrince III, U. Bozkaya, R. A. King,
    F. A. Evangelista, J. M. Turney, T. D. Crawford, C. D. Sherrill,
    J. Chem. Phys. 152(18) 184108 (2020). https://doi.org/10.1063/5.0006002

                            Additional Code Authors
    E. T. Seidl, C. L. Janssen, E. F. Valeev, M. L. Leininger,
    J. F. Gonthier, R. M. Richard, H. R. McAlexander, M. Saitow, X. Wang,
    P. Verma, M. H. Lechner, A. Jiang, S. Behnle, A. G. Heide,
    M. F. Herbst, and D. L. Poole

             Previous Authors, Complete List of Code Contributors,
                       and Citations for Specific Modules
    https://github.com/psi4/psi4/blob/master/codemeta.json
    https://github.com/psi4/psi4/graphs/contributors
    http://psicode.org/psi4manual/master/introduction.html#citing-psifour

    -----------------------------------------------------------------------


    Psi4 started on: Thursday, 17 July 2025 11:02AM

    Process ID: 72928
    Host:       Joses-MacBook-Pro-2.local
    PSIDATADIR: /Users/joseantoniorodriguesromero/anaconda3/share/psi4
    Memory:     500.0 MiB
    Threads:    1
    
  ==> Input File <==

--------------------------------------------------------------------------
molecule { 
-1 5
Ne   0.00000        0.60000        0.00000
P   0.00000       -0.60000        0.00000
}

set { 
basis              cc-pvdz
reference          uks
maxiter            500
geom_maxiter       500
DAMPING_PERCENTAGE 1
guess              SAP
}

optimize('b3lyp')
--------------------------------------------------------------------------

Scratch directory: /tmp/
gradient() will perform analytic gradient computation.
   => Libint2 <=

    Primary   basis highest AM E, G, H:  6, 6, 3
    Auxiliary basis highest AM E, G, H:  7, 7, 4
    Onebody   basis highest AM E, G, H:  -, -, -
    Solid Harmonics ordering:            Gaussian

*** tstart() called on Joses-MacBook-Pro-2.local
*** at Thu Jul 17 11:02:10 2025

   => Loading Basis Set <=

    Name: CC-PVDZ
    Role: ORBITAL
    Keyword: BASIS
    atoms 1 entry NE         line   258 file /Users/joseantoniorodriguesromero/anaconda3/share/psi4/basis/cc-pvdz.gbs 
    atoms 2 entry P          line   538 file /Users/joseantoniorodriguesromero/anaconda3/share/psi4/basis/cc-pvdz.gbs 


         ---------------------------------------------------------
                                   SCF
               by Justin Turney, Rob Parrish, Andy Simmonett
                          and Daniel G. A. Smith
                              UKS Reference
                        1 Threads,    500 MiB Core
         ---------------------------------------------------------

  ==> Geometry <==

    Molecular point group: c2v
    Full point group: C_inf_v

    Geometry (in Angstrom), charge = -1, multiplicity = 5:

       Center              X                  Y                   Z               Mass       
    ------------   -----------------  -----------------  -----------------  -----------------
         NE           0.000000000000     0.000000000000     0.729277694084    19.992440176200
         P            0.000000000000     0.000000000000    -0.470722305916    30.973761998420

  Running in c2v symmetry.

  Rotational constants: A = ************  B =      0.96351  C =      0.96351 [cm^-1]
  Rotational constants: A = ************  B =  28885.32231  C =  28885.32231 [MHz]
  Nuclear repulsion =   66.147151333750003

  Charge       = -1
  Multiplicity = 5
  Electrons    = 26
  Nalpha       = 15
  Nbeta        = 11

  ==> Algorithm <==

  SCF Algorithm Type is DF.
  DIIS enabled.
  MOM disabled.
  Fractional occupation disabled.
  Guess Type is SAP.
  Energy threshold   = 1.00e-08
  Density threshold  = 1.00e-08
  Integral threshold = 1.00e-12

  ==> Primary Basis <==

  Basis Set: CC-PVDZ
    Blend: CC-PVDZ
    Number of shells: 14
    Number of basis functions: 32
    Number of Cartesian functions: 34
    Spherical Harmonics?: true
    Max angular momentum: 2

  ==> DFT Potential <==

   => LibXC <=

    Version 6.2.2
    S. Lehtola, C. Steigemann, M. J.T. Oliveira, and M. A.L. Marques.,  SoftwareX 7, 1–5 (2018) (10.1016/j.softx.2017.11.002)

   => Composite Functional: B3LYP <= 

    B3LYP Hyb-GGA Exchange-Correlation Functional

    P. J. Stephens, F. J. Devlin, C. F. Chabalowski, and M. J. Frisch.,  J. Phys. Chem. 98, 11623 (1994) (10.1021/j100096a001)

    Deriv               =              1
    GGA                 =           TRUE
    Meta                =          FALSE

    Exchange Hybrid     =           TRUE
    MP2 Hybrid          =          FALSE

   => Exchange Functionals <=

    0.0800   Slater exchange
    0.7200         Becke 88

   => Exact (HF) Exchange <=

    0.2000               HF 

   => Correlation Functionals <=

    0.1900   Vosko, Wilk & Nusair (VWN5_RPA)
    0.8100   Lee, Yang & Parr

   => LibXC Density Thresholds  <==

    XC_HYB_GGA_XC_B3LYP:  1.00E-15 

   => Molecular Quadrature <=

    Radial Scheme          =       TREUTLER
    Pruning Scheme         =           NONE
    Nuclear Scheme         =       TREUTLER

    Blocking Scheme        =         OCTREE
    BS radius alpha        =              1
    Pruning alpha          =              1
    Radial Points          =             75
    Spherical Points       =            302
    Total Points           =          42609
    Total Blocks           =            382
    Max Points             =            256
    Max Functions          =             32
    Weights Tolerance      =       1.00E-15

   => Loading Basis Set <=

    Name: (CC-PVDZ AUX)
    Role: JKFIT
    Keyword: DF_BASIS_SCF
    atoms 1 entry NE         line   321 file /Users/joseantoniorodriguesromero/anaconda3/share/psi4/basis/cc-pvdz-jkfit.gbs 
    atoms 2 entry P          line   519 file /Users/joseantoniorodriguesromero/anaconda3/share/psi4/basis/cc-pvdz-jkfit.gbs 

  ==> Integral Setup <==

  DFHelper Memory: AOs need 0.002 GiB; user supplied 0.328 GiB. 
  Using in-core AOs.

  ==> MemDFJK: Density-Fitted J/K Matrices <==

    J tasked:                   Yes
    K tasked:                   Yes
    wK tasked:                   No
    OpenMP threads:               1
    Memory [MiB]:               336
    Algorithm:                 Core
    Schwarz Cutoff:           1E-12
    Mask sparsity (%):       0.0000
    Fitting Condition:        1E-10

   => Auxiliary Basis Set <=

  Basis Set: (CC-PVDZ AUX)
    Blend: CC-PVDZ-JKFIT
    Number of shells: 60
    Number of basis functions: 182
    Number of Cartesian functions: 211
    Spherical Harmonics?: true
    Max angular momentum: 3

  Cached 100.0% of DFT collocation blocks in 0.038 [GiB].

  Minimum eigenvalue in the overlap matrix is 2.2613368908E-02.
  Reciprocal condition number of the overlap matrix is 7.8326629012E-03.
    Using symmetric orthogonalization.

  ==> Pre-Iterations <==

  SCF Guess: Superposition of Atomic Potentials (doi:10.1021/acs.jctc.8b01089).

  ==> SAP guess <==

   => Molecular Quadrature <=

    Radial Scheme          =       TREUTLER
    Pruning Scheme         =           NONE
    Nuclear Scheme         =       TREUTLER

    Blocking Scheme        =         OCTREE
    BS radius alpha        =              1
    Pruning alpha          =              1
    Radial Points          =             75
    Spherical Points       =            302
    Total Points           =          42609
    Total Blocks           =            382
    Max Points             =            256
    Max Functions          =             32
    Weights Tolerance      =       1.00E-15

   -------------------------------------------------------
    Irrep   Nso     Nmo     Nalpha   Nbeta   Ndocc  Nsocc
   -------------------------------------------------------
     A1        16      16       9       7       7       2
     A2         2       2       0       0       0       0
     B1         7       7       3       2       2       1
     B2         7       7       3       2       2       1
   -------------------------------------------------------
    Total      32      32      15      11      11       4
   -------------------------------------------------------

  ==> Iterations <==

                           Total Energy        Delta E     RMS |[F,P]|

   @DF-UKS iter   1:  -469.00641843546543   -4.69006e+02   2.09424e-02 DIIS/ADIIS
   @DF-UKS iter   2:  -469.06478026848964   -5.83618e-02   1.18886e-02 DIIS/ADIIS/DAMP=1%
   @DF-UKS iter   3:  -469.07204969240422   -7.26942e-03   2.06387e-03 DIIS/ADIIS/DAMP=1%
   @DF-UKS iter   4:  -469.08668859515603   -1.46389e-02   8.94363e-04 DIIS/ADIIS/DAMP=1%
   @DF-UKS iter   5:  -469.08493019641935    1.75840e-03   4.96791e-05 DIIS/DAMP=1%
   @DF-UKS iter   6:  -469.08523036359395   -3.00167e-04   2.38347e-05 DIIS/DAMP=1%
   @DF-UKS iter   7:  -469.08523444629793   -4.08270e-06   3.16613e-06 DIIS/DAMP=1%
   @DF-UKS iter   8:  -469.08523737629793   -2.93000e-06   7.16493e-07 DIIS/DAMP=1%
   @DF-UKS iter   9:  -469.08523709760067    2.78697e-07   8.69708e-08 DIIS/DAMP=1%
   @DF-UKS iter  10:  -469.08523703277280    6.48279e-08   8.68753e-09 DIIS/DAMP=1%
   @DF-UKS iter  11:  -469.08523700386377    2.89090e-08   1.96409e-09 DIIS/DAMP=1%
   @DF-UKS iter  12:  -469.08523701016543   -6.30166e-09   1.72542e-10 DIIS/DAMP=1%
  Energy and wave function converged.


  ==> Post-Iterations <==

   Electrons on quadrature grid:
      Nalpha   =   15.0000051882 ; deviation = 5.188e-06
      Nbeta    =   11.0000046826 ; deviation = 4.683e-06
      Ntotal   =   26.0000098708 ; deviation = 9.871e-06 

   @Spin Contamination Metric:   3.816234963E-04
   @S^2 Expected:                6.000000000E+00
   @S^2 Observed:                6.000381623E+00
   @S   Expected:                2.000000000E+00
   @S   Observed:                2.000000000E+00

    Orbital Energies [Eh]
    ---------------------

    Alpha Occupied:                                                       

       1A1   -76.814739     2A1   -31.010390     3A1    -6.313366  
       4A1    -4.482505     1B1    -4.461893     1B2    -4.461893  
       5A1    -1.638991     6A1    -0.757054     2B1    -0.671501  
       2B2    -0.671501     7A1    -0.197383     3B2     0.053226  
       3B1     0.053226     8A1     0.191672     9A1     0.534677  

    Alpha Virtual:                                                        

       4B2     0.614728     4B1     0.614728    10A1     0.703568  
       1A2     0.703570    11A1     0.723923     5B2     0.821413  
       5B1     0.821413    12A1     1.175735     6B1     1.560637  
       6B2     1.560637    13A1     1.571865    14A1     2.817923  
      15A1     4.632230     2A2     4.632282     7B2     4.750540  
       7B1     4.750540    16A1     5.157473  

    Beta Occupied:                                                        

       1A1   -76.801120     2A1   -30.998388     3A1    -6.297330  
       4A1    -4.470185     1B1    -4.441818     1B2    -4.441818  
       5A1    -1.618279     6A1    -0.732927     2B1    -0.646217  
       2B2    -0.646217     7A1    -0.086464  

    Beta Virtual:                                                         

       3B2     0.200809     3B1     0.200809     8A1     0.311708  
       9A1     0.667064     4B2     0.692872     4B1     0.692872  
      10A1     0.785259    11A1     0.801791     1A2     0.801792  
       5B2     0.892635     5B1     0.892635    12A1     1.220817  
       6B1     1.583339     6B2     1.583339    13A1     1.606330  
      14A1     2.837068    15A1     4.647192     2A2     4.647243  
       7B2     4.767865     7B1     4.767865    16A1     5.177642  

    Final Occupation by Irrep:
             A1    A2    B1    B2 
    DOCC [     7,    0,    2,    2 ]
    SOCC [     2,    0,    1,    1 ]
    NA   [     9,    0,    3,    3 ]
    NB   [     7,    0,    2,    2 ]

  @DF-UKS Final Energy:  -469.08523701016543

   => Energetics <=

    Nuclear Repulsion Energy =             66.1471513337500028
    One-Electron Energy =                -787.8101350359647768
    Two-Electron Energy =                 281.7940780957762854
    DFT Exchange-Correlation Energy =     -29.2163314037269508
    Empirical Dispersion Energy =           0.0000000000000000
    VV10 Nonlocal Energy =                  0.0000000000000000
    Total Energy =                       -469.0852370101654287

  UHF NO Occupations:
  HONO-2 :    9 A1 1.0000000
  HONO-1 :    3 B1 1.0000000
  HONO-0 :    3 B2 1.0000000
  LUNO+0 :   10 A1 0.0001260
  LUNO+1 :    4 B2 0.0000246
  LUNO+2 :    4 B1 0.0000246
  LUNO+3 :   11 A1 0.0000106


Computation Completed


Properties will be evaluated at   0.000000,   0.000000,   0.000000 [a0]

Properties computed using the SCF density matrix


 Multipole Moments:

 ------------------------------------------------------------------------------------
     Multipole            Electronic (a.u.)      Nuclear  (a.u.)        Total (a.u.)
 ------------------------------------------------------------------------------------

 L = 1.  Multiply by 2.5417464519 to convert [e a0] to [Debye]
 Dipole X            :          0.0000000            0.0000000            0.0000000
 Dipole Y            :          0.0000000            0.0000000            0.0000000
 Dipole Z            :          1.8999011            0.4383075            2.3382086
 Magnitude           :                                                    2.3382086

 ------------------------------------------------------------------------------------

*** tstop() called on Joses-MacBook-Pro-2.local at Thu Jul 17 11:02:11 2025
Module time:
	user time   =       5.20 seconds =       0.09 minutes
	system time =       4.51 seconds =       0.08 minutes
	total time  =          1 seconds =       0.02 minutes
Total time:
	user time   =       5.20 seconds =       0.09 minutes
	system time =       4.51 seconds =       0.08 minutes
	total time  =          1 seconds =       0.02 minutes

*** tstart() called on Joses-MacBook-Pro-2.local
*** at Thu Jul 17 11:02:11 2025


         ------------------------------------------------------------
                                   SCF GRAD                          
                          Rob Parrish, Justin Turney,                
                       Andy Simmonett, and Alex Sokolov              
         ------------------------------------------------------------

  ==> Geometry <==

    Molecular point group: c2v
    Full point group: C_inf_v

    Geometry (in Angstrom), charge = -1, multiplicity = 5:

       Center              X                  Y                   Z               Mass       
    ------------   -----------------  -----------------  -----------------  -----------------
         NE           0.000000000000     0.000000000000     0.729277694084    19.992440176200
         P            0.000000000000     0.000000000000    -0.470722305916    30.973761998420

  Nuclear repulsion =   66.147151333750017

  ==> Basis Set <==

  Basis Set: CC-PVDZ
    Blend: CC-PVDZ
    Number of shells: 14
    Number of basis functions: 32
    Number of Cartesian functions: 34
    Spherical Harmonics?: true
    Max angular momentum: 2

  ==> DFJKGrad: Density-Fitted SCF Gradients <==

    Gradient:                    1
    J tasked:                  Yes
    K tasked:                  Yes
    wK tasked:                  No
    OpenMP threads:              1
    Integrals threads:           1
    Memory [MiB]:              375
    Schwarz Cutoff:          1E-12
    Fitting Condition:       1E-10

   => Auxiliary Basis Set <=

  Basis Set: (CC-PVDZ AUX)
    Blend: CC-PVDZ-JKFIT
    Number of shells: 60
    Number of basis functions: 182
    Number of Cartesian functions: 211
    Spherical Harmonics?: true
    Max angular momentum: 3

  ==> DFT Potential <==

   => LibXC <=

    Version 6.2.2
    S. Lehtola, C. Steigemann, M. J.T. Oliveira, and M. A.L. Marques.,  SoftwareX 7, 1–5 (2018) (10.1016/j.softx.2017.11.002)

   => Composite Functional: B3LYP <= 

    B3LYP Hyb-GGA Exchange-Correlation Functional

    P. J. Stephens, F. J. Devlin, C. F. Chabalowski, and M. J. Frisch.,  J. Phys. Chem. 98, 11623 (1994) (10.1021/j100096a001)

    Deriv               =              1
    GGA                 =           TRUE
    Meta                =          FALSE

    Exchange Hybrid     =           TRUE
    MP2 Hybrid          =          FALSE

   => Exchange Functionals <=

    0.0800   Slater exchange
    0.7200         Becke 88

   => Exact (HF) Exchange <=

    0.2000               HF 

   => Correlation Functionals <=

    0.1900   Vosko, Wilk & Nusair (VWN5_RPA)
    0.8100   Lee, Yang & Parr

   => LibXC Density Thresholds  <==

    XC_HYB_GGA_XC_B3LYP:  1.00E-15 

   => Molecular Quadrature <=

    Radial Scheme          =       TREUTLER
    Pruning Scheme         =           NONE
    Nuclear Scheme         =       TREUTLER

    Blocking Scheme        =         OCTREE
    BS radius alpha        =              1
    Pruning alpha          =              1
    Radial Points          =             75
    Spherical Points       =            302
    Total Points           =          42609
    Total Blocks           =            382
    Max Points             =            256
    Max Functions          =             32
    Weights Tolerance      =       1.00E-15


  -Total Gradient:
     Atom            X                  Y                   Z
    ------   -----------------  -----------------  -----------------
       1       -0.000000000000    -0.000000000000    -1.224344274997
       2        0.000000000000     0.000000000000     1.224190813401


*** tstop() called on Joses-MacBook-Pro-2.local at Thu Jul 17 11:02:12 2025
Module time:
	user time   =       1.23 seconds =       0.02 minutes
	system time =       1.44 seconds =       0.02 minutes
	total time  =          1 seconds =       0.02 minutes
Total time:
	user time   =       6.43 seconds =       0.11 minutes
	system time =       5.95 seconds =       0.10 minutes
	total time  =          2 seconds =       0.03 minutes

    			-----------------------------------------

    			 OPTKING 3.0: for geometry optimizations 

    			     By R.A. King, Bethel University     

    			        with contributions from          

    			    A.V. Copan, J. Cayton, A. Heide      

    			-----------------------------------------

    
	                            ===> Fragment 1 <== 

	 Z (Atomic Numbers)          Masses                          Geom                  
	      10.000000            19.992440          0.00000000  0.00000000  1.37813511   
	      15.000000            30.973762          0.00000000  0.00000000 -0.88953624   

	 - Coordinate -           - BOHR/RAD -       - ANG/DEG -
	 R(1,2)           =         2.267671           1.200000


	        --- Internal Coordinate Step in ANG or DEG, aJ/ANG or AJ/DEG ---
	-------------------------------------------------------------------------------
	           Coordinate      Previous         Force          Change          New 
	           ----------      --------        ------          ------        ------
	               R(1,2)       1.20000       10.08640        0.14351       1.34351
	-------------------------------------------------------------------------------

	                                 ==> Convergence Check <==                                  
    
	Measures of convergence in internal coordinates in au.
    
	Criteria marked as inactive (o), active & met (*), and active & unmet ( ).

	----------------------------------------------------------------------------------------------
	   Step    Total Energy     Delta E     Max Force     RMS Force      Max Disp      RMS Disp   
	----------------------------------------------------------------------------------------------
	  Convergence Criteria     1.00e-06 *    3.00e-04 *             o    1.20e-03 *             o
	----------------------------------------------------------------------------------------------
	     1    -469.08523701   -4.69e+02      1.22e+00      1.22e+00 o    2.71e-01      2.71e-01 o  ~
	----------------------------------------------------------------------------------------------

Next Geometry in Ang 
	Fragment 1 (Ang)

	   Ne   0.0000000000   0.0000000000   0.8010344344
	    P   0.0000000000   0.0000000000  -0.5424790463


    Structure for next step:
    Molecular point group: c2v
    Full point group: C_inf_v

    Geometry (in Angstrom), charge = -1, multiplicity = 5:

    NE           0.000000000000     0.000000000000     0.816495344326
    P            0.000000000000     0.000000000000    -0.527018136396


Scratch directory: /tmp/
gradient() will perform analytic gradient computation.
   => Libint2 <=

    Primary   basis highest AM E, G, H:  6, 6, 3
    Auxiliary basis highest AM E, G, H:  7, 7, 4
    Onebody   basis highest AM E, G, H:  -, -, -
    Solid Harmonics ordering:            Gaussian

*** tstart() called on Joses-MacBook-Pro-2.local
*** at Thu Jul 17 11:02:12 2025

   => Loading Basis Set <=

    Name: CC-PVDZ
    Role: ORBITAL
    Keyword: BASIS
    atoms 1 entry NE         line   258 file /Users/joseantoniorodriguesromero/anaconda3/share/psi4/basis/cc-pvdz.gbs 
    atoms 2 entry P          line   538 file /Users/joseantoniorodriguesromero/anaconda3/share/psi4/basis/cc-pvdz.gbs 


         ---------------------------------------------------------
                                   SCF
               by Justin Turney, Rob Parrish, Andy Simmonett
                          and Daniel G. A. Smith
                              UKS Reference
                        1 Threads,    500 MiB Core
         ---------------------------------------------------------

  ==> Geometry <==

    Molecular point group: c2v
    Full point group: C_inf_v

    Geometry (in Angstrom), charge = -1, multiplicity = 5:

       Center              X                  Y                   Z               Mass       
    ------------   -----------------  -----------------  -----------------  -----------------
         NE           0.000000000000     0.000000000000     0.816495344326    19.992440176200
         P            0.000000000000     0.000000000000    -0.527018136396    30.973761998420

  Running in c2v symmetry.

  Rotational constants: A = ************  B =      0.76866  C =      0.76866 [cm^-1]
  Rotational constants: A = ************  B =  23043.88255  C =  23043.88255 [MHz]
  Nuclear repulsion =   59.081343610976525

  Charge       = -1
  Multiplicity = 5
  Electrons    = 26
  Nalpha       = 15
  Nbeta        = 11

  ==> Algorithm <==

  SCF Algorithm Type is DF.
  DIIS enabled.
  MOM disabled.
  Fractional occupation disabled.
  Guess Type is READ.
  Energy threshold   = 1.00e-08
  Density threshold  = 1.00e-08
  Integral threshold = 1.00e-12

  ==> Primary Basis <==

  Basis Set: CC-PVDZ
    Blend: CC-PVDZ
    Number of shells: 14
    Number of basis functions: 32
    Number of Cartesian functions: 34
    Spherical Harmonics?: true
    Max angular momentum: 2

  ==> DFT Potential <==

   => LibXC <=

    Version 6.2.2
    S. Lehtola, C. Steigemann, M. J.T. Oliveira, and M. A.L. Marques.,  SoftwareX 7, 1–5 (2018) (10.1016/j.softx.2017.11.002)

   => Composite Functional: B3LYP <= 

    B3LYP Hyb-GGA Exchange-Correlation Functional

    P. J. Stephens, F. J. Devlin, C. F. Chabalowski, and M. J. Frisch.,  J. Phys. Chem. 98, 11623 (1994) (10.1021/j100096a001)

    Deriv               =              1
    GGA                 =           TRUE
    Meta                =          FALSE

    Exchange Hybrid     =           TRUE
    MP2 Hybrid          =          FALSE

   => Exchange Functionals <=

    0.0800   Slater exchange
    0.7200         Becke 88

   => Exact (HF) Exchange <=

    0.2000               HF 

   => Correlation Functionals <=

    0.1900   Vosko, Wilk & Nusair (VWN5_RPA)
    0.8100   Lee, Yang & Parr

   => LibXC Density Thresholds  <==

    XC_HYB_GGA_XC_B3LYP:  1.00E-15 

   => Molecular Quadrature <=

    Radial Scheme          =       TREUTLER
    Pruning Scheme         =           NONE
    Nuclear Scheme         =       TREUTLER

    Blocking Scheme        =         OCTREE
    BS radius alpha        =              1
    Pruning alpha          =              1
    Radial Points          =             75
    Spherical Points       =            302
    Total Points           =          42631
    Total Blocks           =            382
    Max Points             =            254
    Max Functions          =             32
    Weights Tolerance      =       1.00E-15

   => Loading Basis Set <=

    Name: (CC-PVDZ AUX)
    Role: JKFIT
    Keyword: DF_BASIS_SCF
    atoms 1 entry NE         line   321 file /Users/joseantoniorodriguesromero/anaconda3/share/psi4/basis/cc-pvdz-jkfit.gbs 
    atoms 2 entry P          line   519 file /Users/joseantoniorodriguesromero/anaconda3/share/psi4/basis/cc-pvdz-jkfit.gbs 

   => Loading Basis Set <=

    Name: CC-PVDZ
    Role: ORBITAL
    Keyword: BASIS
    atoms 1 entry NE         line   258 file /Users/joseantoniorodriguesromero/anaconda3/share/psi4/basis/cc-pvdz.gbs 
    atoms 2 entry P          line   538 file /Users/joseantoniorodriguesromero/anaconda3/share/psi4/basis/cc-pvdz.gbs 

  Reading orbitals from file /tmp/quintet_NeP.default.72928.180.npy, no projection.

  ==> Integral Setup <==

  DFHelper Memory: AOs need 0.002 GiB; user supplied 0.328 GiB. 
  Using in-core AOs.

  ==> MemDFJK: Density-Fitted J/K Matrices <==

    J tasked:                   Yes
    K tasked:                   Yes
    wK tasked:                   No
    OpenMP threads:               1
    Memory [MiB]:               336
    Algorithm:                 Core
    Schwarz Cutoff:           1E-12
    Mask sparsity (%):       0.0000
    Fitting Condition:        1E-10

   => Auxiliary Basis Set <=

  Basis Set: (CC-PVDZ AUX)
    Blend: CC-PVDZ-JKFIT
    Number of shells: 60
    Number of basis functions: 182
    Number of Cartesian functions: 211
    Spherical Harmonics?: true
    Max angular momentum: 3

  Cached 100.0% of DFT collocation blocks in 0.038 [GiB].

  Minimum eigenvalue in the overlap matrix is 4.0659755486E-02.
  Reciprocal condition number of the overlap matrix is 1.4527012823E-02.
    Using symmetric orthogonalization.

  ==> Pre-Iterations <==

  SCF Guess: Orbitals guess was supplied from a previous computation.

   -------------------------------------------------------
    Irrep   Nso     Nmo     Nalpha   Nbeta   Ndocc  Nsocc
   -------------------------------------------------------
     A1        16      16       9       7       7       2
     A2         2       2       0       0       0       0
     B1         7       7       3       2       2       1
     B2         7       7       3       2       2       1
   -------------------------------------------------------
    Total      32      32      15      11      11       4
   -------------------------------------------------------

  ==> Iterations <==

                           Total Energy        Delta E     RMS |[F,P]|

   @DF-UKS iter   0:  -469.34388061988562   -4.69344e+02   4.67770e-02 
   @DF-UKS iter   1:  -469.33663570843368    7.24491e-03   4.65199e-03 DIIS/ADIIS
   @DF-UKS iter   2:  -469.33839808710491   -1.76238e-03   3.82351e-03 DIIS/ADIIS/DAMP=1%
   @DF-UKS iter   3:  -469.34242641607290   -4.02833e-03   4.78065e-04 DIIS/ADIIS/DAMP=1%
   @DF-UKS iter   4:  -469.33980578548795    2.62063e-03   1.10909e-04 DIIS/ADIIS/DAMP=1%
   @DF-UKS iter   5:  -469.33987452749244   -6.87420e-05   1.39884e-05 DIIS/DAMP=1%
   @DF-UKS iter   6:  -469.33984721644407    2.73110e-05   8.30071e-06 DIIS/DAMP=1%
   @DF-UKS iter   7:  -469.33986340134481   -1.61849e-05   1.07986e-06 DIIS/DAMP=1%
   @DF-UKS iter   8:  -469.33986005209726    3.34925e-06   7.79565e-08 DIIS/DAMP=1%
   @DF-UKS iter   9:  -469.33986028524180   -2.33145e-07   1.43924e-08 DIIS/DAMP=1%
   @DF-UKS iter  10:  -469.33986034242304   -5.71812e-08   4.53559e-09 DIIS/DAMP=1%
   @DF-UKS iter  11:  -469.33986032657435    1.58487e-08   3.08812e-10 DIIS/DAMP=1%
   @DF-UKS iter  12:  -469.33986032827141   -1.69706e-09   3.58583e-11 DIIS/DAMP=1%
  Energy and wave function converged.


  ==> Post-Iterations <==

   Electrons on quadrature grid:
      Nalpha   =   15.0000028251 ; deviation = 2.825e-06
      Nbeta    =   11.0000027453 ; deviation = 2.745e-06
      Ntotal   =   26.0000055704 ; deviation = 5.570e-06 

   @Spin Contamination Metric:   3.568326197E-04
   @S^2 Expected:                6.000000000E+00
   @S^2 Observed:                6.000356833E+00
   @S   Expected:                2.000000000E+00
   @S   Observed:                2.000000000E+00

    Orbital Energies [Eh]
    ---------------------

    Alpha Occupied:                                                       

       1A1   -76.785754     2A1   -30.949039     3A1    -6.273228  
       4A1    -4.439219     1B2    -4.427131     1B1    -4.427131  
       5A1    -1.517345     6A1    -0.672993     2B2    -0.572322  
       2B1    -0.572322     7A1    -0.203383     3B2     0.050153  
       3B1     0.050153     8A1     0.184356     9A1     0.527180  

    Alpha Virtual:                                                        

       4B1     0.627595     4B2     0.627595    10A1     0.707373  
      11A1     0.722059     1A2     0.722062     5B1     0.791906  
       5B2     0.791906    12A1     1.057525    13A1     1.570204  
       6B2     1.593936     6B1     1.593936    14A1     2.804860  
       2A2     4.717780    15A1     4.717784     7B2     4.795038  
       7B1     4.795038    16A1     5.123683  

    Beta Occupied:                                                        

       1A1   -76.771082     2A1   -30.937610     3A1    -6.255779  
       4A1    -4.424702     1B2    -4.406231     1B1    -4.406231  
       5A1    -1.495935     6A1    -0.644692     2B2    -0.549736  
       2B1    -0.549736     7A1    -0.093620  

    Beta Virtual:                                                         

       3B2     0.199087     3B1     0.199087     8A1     0.309427  
       9A1     0.656277     4B1     0.707902     4B2     0.707902  
      10A1     0.766909    11A1     0.821457     1A2     0.821457  
       5B1     0.865732     5B2     0.865732    12A1     1.119776  
      13A1     1.595841     6B2     1.615218     6B1     1.615218  
      14A1     2.825523     2A2     4.731092    15A1     4.731100  
       7B2     4.811227     7B1     4.811227    16A1     5.143436  

    Final Occupation by Irrep:
             A1    A2    B1    B2 
    DOCC [     7,    0,    2,    2 ]
    SOCC [     2,    0,    1,    1 ]
    NA   [     9,    0,    3,    3 ]
    NB   [     7,    0,    2,    2 ]

  @DF-UKS Final Energy:  -469.33986032827141

   => Energetics <=

    Nuclear Repulsion Energy =             59.0813436109765249
    One-Electron Energy =                -775.5014100158057317
    Two-Electron Energy =                 276.2262265172436742
    DFT Exchange-Correlation Energy =     -29.1460204406858985
    Empirical Dispersion Energy =           0.0000000000000000
    VV10 Nonlocal Energy =                  0.0000000000000000
    Total Energy =                       -469.3398603282714134

  UHF NO Occupations:
  HONO-2 :    3 B1 1.0000000
  HONO-1 :    3 B2 1.0000000
  HONO-0 :    9 A1 1.0000000
  LUNO+0 :   10 A1 0.0001046
  LUNO+1 :    4 B2 0.0000270
  LUNO+2 :    4 B1 0.0000270
  LUNO+3 :   11 A1 0.0000140


Computation Completed


Properties will be evaluated at   0.000000,   0.000000,   0.000000 [a0]

Properties computed using the SCF density matrix


 Multipole Moments:

 ------------------------------------------------------------------------------------
     Multipole            Electronic (a.u.)      Nuclear  (a.u.)        Total (a.u.)
 ------------------------------------------------------------------------------------

 L = 1.  Multiply by 2.5417464519 to convert [e a0] to [Debye]
 Dipole X            :          0.0000000            0.0000000            0.0000000
 Dipole Y            :          0.0000000            0.0000000            0.0000000
 Dipole Z            :          1.5833748            0.4907267            2.0741015
 Magnitude           :                                                    2.0741015

 ------------------------------------------------------------------------------------

*** tstop() called on Joses-MacBook-Pro-2.local at Thu Jul 17 11:02:13 2025
Module time:
	user time   =       4.47 seconds =       0.07 minutes
	system time =       4.35 seconds =       0.07 minutes
	total time  =          1 seconds =       0.02 minutes
Total time:
	user time   =      10.94 seconds =       0.18 minutes
	system time =      10.49 seconds =       0.17 minutes
	total time  =          3 seconds =       0.05 minutes

*** tstart() called on Joses-MacBook-Pro-2.local
*** at Thu Jul 17 11:02:13 2025


         ------------------------------------------------------------
                                   SCF GRAD                          
                          Rob Parrish, Justin Turney,                
                       Andy Simmonett, and Alex Sokolov              
         ------------------------------------------------------------

  ==> Geometry <==

    Molecular point group: c2v
    Full point group: C_inf_v

    Geometry (in Angstrom), charge = -1, multiplicity = 5:

       Center              X                  Y                   Z               Mass       
    ------------   -----------------  -----------------  -----------------  -----------------
         NE           0.000000000000     0.000000000000     0.816495344326    19.992440176200
         P            0.000000000000     0.000000000000    -0.527018136396    30.973761998420

  Nuclear repulsion =   59.081343610976525

  ==> Basis Set <==

  Basis Set: CC-PVDZ
    Blend: CC-PVDZ
    Number of shells: 14
    Number of basis functions: 32
    Number of Cartesian functions: 34
    Spherical Harmonics?: true
    Max angular momentum: 2

  ==> DFJKGrad: Density-Fitted SCF Gradients <==

    Gradient:                    1
    J tasked:                  Yes
    K tasked:                  Yes
    wK tasked:                  No
    OpenMP threads:              1
    Integrals threads:           1
    Memory [MiB]:              375
    Schwarz Cutoff:          1E-12
    Fitting Condition:       1E-10

   => Auxiliary Basis Set <=

  Basis Set: (CC-PVDZ AUX)
    Blend: CC-PVDZ-JKFIT
    Number of shells: 60
    Number of basis functions: 182
    Number of Cartesian functions: 211
    Spherical Harmonics?: true
    Max angular momentum: 3

  ==> DFT Potential <==

   => LibXC <=

    Version 6.2.2
    S. Lehtola, C. Steigemann, M. J.T. Oliveira, and M. A.L. Marques.,  SoftwareX 7, 1–5 (2018) (10.1016/j.softx.2017.11.002)

   => Composite Functional: B3LYP <= 

    B3LYP Hyb-GGA Exchange-Correlation Functional

    P. J. Stephens, F. J. Devlin, C. F. Chabalowski, and M. J. Frisch.,  J. Phys. Chem. 98, 11623 (1994) (10.1021/j100096a001)

    Deriv               =              1
    GGA                 =           TRUE
    Meta                =          FALSE

    Exchange Hybrid     =           TRUE
    MP2 Hybrid          =          FALSE

   => Exchange Functionals <=

    0.0800   Slater exchange
    0.7200         Becke 88

   => Exact (HF) Exchange <=

    0.2000               HF 

   => Correlation Functionals <=

    0.1900   Vosko, Wilk & Nusair (VWN5_RPA)
    0.8100   Lee, Yang & Parr

   => LibXC Density Thresholds  <==

    XC_HYB_GGA_XC_B3LYP:  1.00E-15 

   => Molecular Quadrature <=

    Radial Scheme          =       TREUTLER
    Pruning Scheme         =           NONE
    Nuclear Scheme         =       TREUTLER

    Blocking Scheme        =         OCTREE
    BS radius alpha        =              1
    Pruning alpha          =              1
    Radial Points          =             75
    Spherical Points       =            302
    Total Points           =          42631
    Total Blocks           =            382
    Max Points             =            254
    Max Functions          =             32
    Weights Tolerance      =       1.00E-15


  -Total Gradient:
     Atom            X                  Y                   Z
    ------   -----------------  -----------------  -----------------
       1       -0.000000000000     0.000000000000    -0.713431450015
       2        0.000000000000     0.000000000000     0.713330798435


*** tstop() called on Joses-MacBook-Pro-2.local at Thu Jul 17 11:02:13 2025
Module time:
	user time   =       1.33 seconds =       0.02 minutes
	system time =       1.88 seconds =       0.03 minutes
	total time  =          0 seconds =       0.00 minutes
Total time:
	user time   =      12.28 seconds =       0.20 minutes
	system time =      12.38 seconds =       0.21 minutes
	total time  =          3 seconds =       0.05 minutes

    			-----------------------------------------

    			 OPTKING 3.0: for geometry optimizations 

    			     By R.A. King, Bethel University     

    			        with contributions from          

    			    A.V. Copan, J. Cayton, A. Heide      

    			-----------------------------------------

    
	                            ===> Fragment 1 <== 

	 Z (Atomic Numbers)          Masses                          Geom                  
	      10.000000            19.992440          0.00000000  0.00000000  1.54295258   
	      15.000000            30.973762          0.00000000  0.00000000 -0.99591994   

	 - Coordinate -           - BOHR/RAD -       - ANG/DEG -
	 R(1,2)           =         2.538873           1.343513


	        --- Internal Coordinate Step in ANG or DEG, aJ/ANG or AJ/DEG ---
	-------------------------------------------------------------------------------
	           Coordinate      Previous         Force          Change          New 
	           ----------      --------        ------          ------        ------
	               R(1,2)       1.34351        5.87735        0.16333       1.50684
	-------------------------------------------------------------------------------

	                                 ==> Convergence Check <==                                  
    
	Measures of convergence in internal coordinates in au.
    
	Criteria marked as inactive (o), active & met (*), and active & unmet ( ).

	----------------------------------------------------------------------------------------------
	   Step    Total Energy     Delta E     Max Force     RMS Force      Max Disp      RMS Disp   
	----------------------------------------------------------------------------------------------
	  Convergence Criteria     1.00e-06 *    3.00e-04 *             o    1.20e-03 *             o
	----------------------------------------------------------------------------------------------
	     2    -469.33986033   -2.55e-01      7.13e-01      7.13e-01 o    3.09e-01      3.09e-01 o  ~
	----------------------------------------------------------------------------------------------

Next Geometry in Ang 
	Fragment 1 (Ang)

	   Ne   0.0000000000   0.0000000000   0.8981606304
	    P   0.0000000000   0.0000000000  -0.6086834225


    Structure for next step:
    Molecular point group: c2v
    Full point group: C_inf_v

    Geometry (in Angstrom), charge = -1, multiplicity = 5:

    NE           0.000000000000     0.000000000000     0.915756463517
    P            0.000000000000     0.000000000000    -0.591087589353


Scratch directory: /tmp/
gradient() will perform analytic gradient computation.
   => Libint2 <=

    Primary   basis highest AM E, G, H:  6, 6, 3
    Auxiliary basis highest AM E, G, H:  7, 7, 4
    Onebody   basis highest AM E, G, H:  -, -, -
    Solid Harmonics ordering:            Gaussian

*** tstart() called on Joses-MacBook-Pro-2.local
*** at Thu Jul 17 11:02:13 2025

   => Loading Basis Set <=

    Name: CC-PVDZ
    Role: ORBITAL
    Keyword: BASIS
    atoms 1 entry NE         line   258 file /Users/joseantoniorodriguesromero/anaconda3/share/psi4/basis/cc-pvdz.gbs 
    atoms 2 entry P          line   538 file /Users/joseantoniorodriguesromero/anaconda3/share/psi4/basis/cc-pvdz.gbs 


         ---------------------------------------------------------
                                   SCF
               by Justin Turney, Rob Parrish, Andy Simmonett
                          and Daniel G. A. Smith
                              UKS Reference
                        1 Threads,    500 MiB Core
         ---------------------------------------------------------

  ==> Geometry <==

    Molecular point group: c2v
    Full point group: C_inf_v

    Geometry (in Angstrom), charge = -1, multiplicity = 5:

       Center              X                  Y                   Z               Mass       
    ------------   -----------------  -----------------  -----------------  -----------------
         NE           0.000000000000     0.000000000000     0.915756463517    19.992440176200
         P            0.000000000000     0.000000000000    -0.591087589353    30.973761998420

  Running in c2v symmetry.

  Rotational constants: A = ************  B =      0.61106  C =      0.61106 [cm^-1]
  Rotational constants: A = ************  B =  18319.05612  C =  18319.05612 [MHz]
  Nuclear repulsion =   52.677369930445984

  Charge       = -1
  Multiplicity = 5
  Electrons    = 26
  Nalpha       = 15
  Nbeta        = 11

  ==> Algorithm <==

  SCF Algorithm Type is DF.
  DIIS enabled.
  MOM disabled.
  Fractional occupation disabled.
  Guess Type is READ.
  Energy threshold   = 1.00e-08
  Density threshold  = 1.00e-08
  Integral threshold = 1.00e-12

  ==> Primary Basis <==

  Basis Set: CC-PVDZ
    Blend: CC-PVDZ
    Number of shells: 14
    Number of basis functions: 32
    Number of Cartesian functions: 34
    Spherical Harmonics?: true
    Max angular momentum: 2

  ==> DFT Potential <==

   => LibXC <=

    Version 6.2.2
    S. Lehtola, C. Steigemann, M. J.T. Oliveira, and M. A.L. Marques.,  SoftwareX 7, 1–5 (2018) (10.1016/j.softx.2017.11.002)

   => Composite Functional: B3LYP <= 

    B3LYP Hyb-GGA Exchange-Correlation Functional

    P. J. Stephens, F. J. Devlin, C. F. Chabalowski, and M. J. Frisch.,  J. Phys. Chem. 98, 11623 (1994) (10.1021/j100096a001)

    Deriv               =              1
    GGA                 =           TRUE
    Meta                =          FALSE

    Exchange Hybrid     =           TRUE
    MP2 Hybrid          =          FALSE

   => Exchange Functionals <=

    0.0800   Slater exchange
    0.7200         Becke 88

   => Exact (HF) Exchange <=

    0.2000               HF 

   => Correlation Functionals <=

    0.1900   Vosko, Wilk & Nusair (VWN5_RPA)
    0.8100   Lee, Yang & Parr

   => LibXC Density Thresholds  <==

    XC_HYB_GGA_XC_B3LYP:  1.00E-15 

   => Molecular Quadrature <=

    Radial Scheme          =       TREUTLER
    Pruning Scheme         =           NONE
    Nuclear Scheme         =       TREUTLER

    Blocking Scheme        =         OCTREE
    BS radius alpha        =              1
    Pruning alpha          =              1
    Radial Points          =             75
    Spherical Points       =            302
    Total Points           =          42659
    Total Blocks           =            381
    Max Points             =            254
    Max Functions          =             32
    Weights Tolerance      =       1.00E-15

   => Loading Basis Set <=

    Name: (CC-PVDZ AUX)
    Role: JKFIT
    Keyword: DF_BASIS_SCF
    atoms 1 entry NE         line   321 file /Users/joseantoniorodriguesromero/anaconda3/share/psi4/basis/cc-pvdz-jkfit.gbs 
    atoms 2 entry P          line   519 file /Users/joseantoniorodriguesromero/anaconda3/share/psi4/basis/cc-pvdz-jkfit.gbs 

   => Loading Basis Set <=

    Name: CC-PVDZ
    Role: ORBITAL
    Keyword: BASIS
    atoms 1 entry NE         line   258 file /Users/joseantoniorodriguesromero/anaconda3/share/psi4/basis/cc-pvdz.gbs 
    atoms 2 entry P          line   538 file /Users/joseantoniorodriguesromero/anaconda3/share/psi4/basis/cc-pvdz.gbs 

  Reading orbitals from file /tmp/quintet_NeP.default.72928.180.npy, no projection.

  ==> Integral Setup <==

  DFHelper Memory: AOs need 0.002 GiB; user supplied 0.328 GiB. 
  Using in-core AOs.

  ==> MemDFJK: Density-Fitted J/K Matrices <==

    J tasked:                   Yes
    K tasked:                   Yes
    wK tasked:                   No
    OpenMP threads:               1
    Memory [MiB]:               336
    Algorithm:                 Core
    Schwarz Cutoff:           1E-12
    Mask sparsity (%):       0.0000
    Fitting Condition:        1E-10

   => Auxiliary Basis Set <=

  Basis Set: (CC-PVDZ AUX)
    Blend: CC-PVDZ-JKFIT
    Number of shells: 60
    Number of basis functions: 182
    Number of Cartesian functions: 211
    Spherical Harmonics?: true
    Max angular momentum: 3

  Cached 100.0% of DFT collocation blocks in 0.038 [GiB].

  Minimum eigenvalue in the overlap matrix is 6.1961452812E-02.
  Reciprocal condition number of the overlap matrix is 2.3162734439E-02.
    Using symmetric orthogonalization.

  ==> Pre-Iterations <==

  SCF Guess: Orbitals guess was supplied from a previous computation.

   -------------------------------------------------------
    Irrep   Nso     Nmo     Nalpha   Nbeta   Ndocc  Nsocc
   -------------------------------------------------------
     A1        16      16       9       7       7       2
     A2         2       2       0       0       0       0
     B1         7       7       3       2       2       1
     B2         7       7       3       2       2       1
   -------------------------------------------------------
    Total      32      32      15      11      11       4
   -------------------------------------------------------

  ==> Iterations <==

                           Total Energy        Delta E     RMS |[F,P]|

   @DF-UKS iter   0:  -469.47717299404809   -4.69477e+02   3.99813e-02 
   @DF-UKS iter   1:  -469.50682515980208   -2.96522e-02   2.71516e-03 DIIS/ADIIS
   @DF-UKS iter   2:  -469.50846395047972   -1.63879e-03   1.58688e-03 DIIS/ADIIS/DAMP=1%
   @DF-UKS iter   3:  -469.50908828321718   -6.24333e-04   5.68488e-04 DIIS/ADIIS/DAMP=1%
   @DF-UKS iter   4:  -469.50964682805375   -5.58545e-04   9.20971e-05 DIIS/DAMP=1%
   @DF-UKS iter   5:  -469.50929898752048    3.47841e-04   3.17020e-05 DIIS/DAMP=1%
   @DF-UKS iter   6:  -469.50930651756829   -7.53005e-06   1.10423e-05 DIIS/DAMP=1%
   @DF-UKS iter   7:  -469.50932869506596   -2.21775e-05   1.67758e-06 DIIS/DAMP=1%
   @DF-UKS iter   8:  -469.50932461444654    4.08062e-06   2.25768e-07 DIIS/DAMP=1%
   @DF-UKS iter   9:  -469.50932504011712   -4.25671e-07   2.19960e-08 DIIS/DAMP=1%
   @DF-UKS iter  10:  -469.50932521760689   -1.77490e-07   5.27653e-09 DIIS/DAMP=1%
   @DF-UKS iter  11:  -469.50932519838989    1.92170e-08   7.92112e-10 DIIS/DAMP=1%
   @DF-UKS iter  12:  -469.50932519955558   -1.16569e-09   5.42203e-11 DIIS/DAMP=1%
  Energy and wave function converged.


  ==> Post-Iterations <==

   Electrons on quadrature grid:
      Nalpha   =   14.9999911947 ; deviation = -8.805e-06
      Nbeta    =   10.9999918168 ; deviation = -8.183e-06
      Ntotal   =   25.9999830115 ; deviation = -1.699e-05 

   @Spin Contamination Metric:   3.090557051E-04
   @S^2 Expected:                6.000000000E+00
   @S^2 Observed:                6.000309056E+00
   @S   Expected:                2.000000000E+00
   @S   Observed:                2.000000000E+00

    Orbital Energies [Eh]
    ---------------------

    Alpha Occupied:                                                       

       1A1   -76.757639     2A1   -30.878817     3A1    -6.242722  
       4A1    -4.405848     1B2    -4.399907     1B1    -4.399907  
       5A1    -1.402230     6A1    -0.577169     2B2    -0.479225  
       2B1    -0.479225     7A1    -0.214849     3B1     0.047997  
       3B2     0.047997     8A1     0.163693     9A1     0.520030  

    Alpha Virtual:                                                        

       4B2     0.642501     4B1     0.642501    10A1     0.683384  
       1A2     0.735288    11A1     0.735289     5B2     0.768615  
       5B1     0.768615    12A1     0.957153    13A1     1.615993  
       6B2     1.620142     6B1     1.620142    14A1     2.767176  
       2A2     4.801216    15A1     4.801346     7B1     4.841060  
       7B2     4.841060    16A1     5.048742  

    Beta Occupied:                                                        

       1A1   -76.741977     2A1   -30.868362     3A1    -6.224251  
       4A1    -4.387564     1B2    -4.378621     1B1    -4.378621  
       5A1    -1.381910     6A1    -0.543028     2B2    -0.460594  
       2B1    -0.460594     7A1    -0.106388  

    Beta Virtual:                                                         

       3B1     0.197095     3B2     0.197095     8A1     0.295776  
       9A1     0.648978     4B2     0.723802     4B1     0.723802  
      10A1     0.742594     1A2     0.834187    11A1     0.834188  
       5B2     0.846927     5B1     0.846927    12A1     1.033440  
      13A1     1.636868     6B2     1.638815     6B1     1.638815  
      14A1     2.789605     2A2     4.812281    15A1     4.812408  
       7B1     4.856107     7B2     4.856107    16A1     5.067696  

    Final Occupation by Irrep:
             A1    A2    B1    B2 
    DOCC [     7,    0,    2,    2 ]
    SOCC [     2,    0,    1,    1 ]
    NA   [     9,    0,    3,    3 ]
    NB   [     7,    0,    2,    2 ]

  @DF-UKS Final Energy:  -469.50932519955558

   => Energetics <=

    Nuclear Repulsion Energy =             52.6773699304459839
    One-Electron Energy =                -764.2335139471715593
    Two-Electron Energy =                 271.1524207866784764
    DFT Exchange-Correlation Energy =     -29.1056019695084203
    Empirical Dispersion Energy =           0.0000000000000000
    VV10 Nonlocal Energy =                  0.0000000000000000
    Total Energy =                       -469.5093251995555761

  UHF NO Occupations:
  HONO-2 :    3 B1 1.0000000
  HONO-1 :    3 B2 1.0000000
  HONO-0 :    9 A1 1.0000000
  LUNO+0 :   10 A1 0.0000783
  LUNO+1 :    4 B1 0.0000263
  LUNO+2 :    4 B2 0.0000263
  LUNO+3 :   11 A1 0.0000185


Computation Completed


Properties will be evaluated at   0.000000,   0.000000,   0.000000 [a0]

Properties computed using the SCF density matrix


 Multipole Moments:

 ------------------------------------------------------------------------------------
     Multipole            Electronic (a.u.)      Nuclear  (a.u.)        Total (a.u.)
 ------------------------------------------------------------------------------------

 L = 1.  Multiply by 2.5417464519 to convert [e a0] to [Debye]
 Dipole X            :          0.0000000            0.0000000            0.0000000
 Dipole Y            :          0.0000000            0.0000000            0.0000000
 Dipole Z            :          1.1890086            0.5503842            1.7393929
 Magnitude           :                                                    1.7393929

 ------------------------------------------------------------------------------------

*** tstop() called on Joses-MacBook-Pro-2.local at Thu Jul 17 11:02:14 2025
Module time:
	user time   =       3.82 seconds =       0.06 minutes
	system time =       4.86 seconds =       0.08 minutes
	total time  =          1 seconds =       0.02 minutes
Total time:
	user time   =      16.18 seconds =       0.27 minutes
	system time =      17.42 seconds =       0.29 minutes
	total time  =          4 seconds =       0.07 minutes

*** tstart() called on Joses-MacBook-Pro-2.local
*** at Thu Jul 17 11:02:14 2025


         ------------------------------------------------------------
                                   SCF GRAD                          
                          Rob Parrish, Justin Turney,                
                       Andy Simmonett, and Alex Sokolov              
         ------------------------------------------------------------

  ==> Geometry <==

    Molecular point group: c2v
    Full point group: C_inf_v

    Geometry (in Angstrom), charge = -1, multiplicity = 5:

       Center              X                  Y                   Z               Mass       
    ------------   -----------------  -----------------  -----------------  -----------------
         NE           0.000000000000     0.000000000000     0.915756463517    19.992440176200
         P            0.000000000000     0.000000000000    -0.591087589353    30.973761998420

  Nuclear repulsion =   52.677369930445984

  ==> Basis Set <==

  Basis Set: CC-PVDZ
    Blend: CC-PVDZ
    Number of shells: 14
    Number of basis functions: 32
    Number of Cartesian functions: 34
    Spherical Harmonics?: true
    Max angular momentum: 2

  ==> DFJKGrad: Density-Fitted SCF Gradients <==

    Gradient:                    1
    J tasked:                  Yes
    K tasked:                  Yes
    wK tasked:                  No
    OpenMP threads:              1
    Integrals threads:           1
    Memory [MiB]:              375
    Schwarz Cutoff:          1E-12
    Fitting Condition:       1E-10

   => Auxiliary Basis Set <=

  Basis Set: (CC-PVDZ AUX)
    Blend: CC-PVDZ-JKFIT
    Number of shells: 60
    Number of basis functions: 182
    Number of Cartesian functions: 211
    Spherical Harmonics?: true
    Max angular momentum: 3

  ==> DFT Potential <==

   => LibXC <=

    Version 6.2.2
    S. Lehtola, C. Steigemann, M. J.T. Oliveira, and M. A.L. Marques.,  SoftwareX 7, 1–5 (2018) (10.1016/j.softx.2017.11.002)

   => Composite Functional: B3LYP <= 

    B3LYP Hyb-GGA Exchange-Correlation Functional

    P. J. Stephens, F. J. Devlin, C. F. Chabalowski, and M. J. Frisch.,  J. Phys. Chem. 98, 11623 (1994) (10.1021/j100096a001)

    Deriv               =              1
    GGA                 =           TRUE
    Meta                =          FALSE

    Exchange Hybrid     =           TRUE
    MP2 Hybrid          =          FALSE

   => Exchange Functionals <=

    0.0800   Slater exchange
    0.7200         Becke 88

   => Exact (HF) Exchange <=

    0.2000               HF 

   => Correlation Functionals <=

    0.1900   Vosko, Wilk & Nusair (VWN5_RPA)
    0.8100   Lee, Yang & Parr

   => LibXC Density Thresholds  <==

    XC_HYB_GGA_XC_B3LYP:  1.00E-15 

   => Molecular Quadrature <=

    Radial Scheme          =       TREUTLER
    Pruning Scheme         =           NONE
    Nuclear Scheme         =       TREUTLER

    Blocking Scheme        =         OCTREE
    BS radius alpha        =              1
    Pruning alpha          =              1
    Radial Points          =             75
    Spherical Points       =            302
    Total Points           =          42659
    Total Blocks           =            381
    Max Points             =            254
    Max Functions          =             32
    Weights Tolerance      =       1.00E-15


  -Total Gradient:
     Atom            X                  Y                   Z
    ------   -----------------  -----------------  -----------------
       1        0.000000000000    -0.000000000000    -0.414897526764
       2        0.000000000000     0.000000000000     0.414796630900


*** tstop() called on Joses-MacBook-Pro-2.local at Thu Jul 17 11:02:14 2025
Module time:
	user time   =       1.15 seconds =       0.02 minutes
	system time =       1.24 seconds =       0.02 minutes
	total time  =          0 seconds =       0.00 minutes
Total time:
	user time   =      17.33 seconds =       0.29 minutes
	system time =      18.66 seconds =       0.31 minutes
	total time  =          4 seconds =       0.07 minutes

    			-----------------------------------------

    			 OPTKING 3.0: for geometry optimizations 

    			     By R.A. King, Bethel University     

    			        with contributions from          

    			    A.V. Copan, J. Cayton, A. Heide      

    			-----------------------------------------

    
	                            ===> Fragment 1 <== 

	 Z (Atomic Numbers)          Masses                          Geom                  
	      10.000000            19.992440          0.00000000  0.00000000  1.73052891   
	      15.000000            30.973762          0.00000000  0.00000000 -1.11699366   

	 - Coordinate -           - BOHR/RAD -       - ANG/DEG -
	 R(1,2)           =         2.847523           1.506844


	        --- Internal Coordinate Step in ANG or DEG, aJ/ANG or AJ/DEG ---
	-------------------------------------------------------------------------------
	           Coordinate      Previous         Force          Change          New 
	           ----------      --------        ------          ------        ------
	               R(1,2)       1.50684        3.41781        0.18445       1.69130
	-------------------------------------------------------------------------------

	                                 ==> Convergence Check <==                                  
    
	Measures of convergence in internal coordinates in au.
    
	Criteria marked as inactive (o), active & met (*), and active & unmet ( ).

	----------------------------------------------------------------------------------------------
	   Step    Total Energy     Delta E     Max Force     RMS Force      Max Disp      RMS Disp   
	----------------------------------------------------------------------------------------------
	  Convergence Criteria     1.00e-06 *    3.00e-04 *             o    1.20e-03 *             o
	----------------------------------------------------------------------------------------------
	     3    -469.50932520   -1.69e-01      4.15e-01      4.15e-01 o    3.49e-01      3.49e-01 o  ~
	----------------------------------------------------------------------------------------------

Next Geometry in Ang 
	Fragment 1 (Ang)

	   Ne   0.0000000000   0.0000000000   1.0079828743
	    P   0.0000000000   0.0000000000  -0.6833140001


    Structure for next step:
    Molecular point group: c2v
    Full point group: C_inf_v

    Geometry (in Angstrom), charge = -1, multiplicity = 5:

    NE           0.000000000000     0.000000000000     1.027854237171
    P            0.000000000000     0.000000000000    -0.663442637273


Scratch directory: /tmp/
gradient() will perform analytic gradient computation.
   => Libint2 <=

    Primary   basis highest AM E, G, H:  6, 6, 3
    Auxiliary basis highest AM E, G, H:  7, 7, 4
    Onebody   basis highest AM E, G, H:  -, -, -
    Solid Harmonics ordering:            Gaussian

*** tstart() called on Joses-MacBook-Pro-2.local
*** at Thu Jul 17 11:02:14 2025

   => Loading Basis Set <=

    Name: CC-PVDZ
    Role: ORBITAL
    Keyword: BASIS
    atoms 1 entry NE         line   258 file /Users/joseantoniorodriguesromero/anaconda3/share/psi4/basis/cc-pvdz.gbs 
    atoms 2 entry P          line   538 file /Users/joseantoniorodriguesromero/anaconda3/share/psi4/basis/cc-pvdz.gbs 


         ---------------------------------------------------------
                                   SCF
               by Justin Turney, Rob Parrish, Andy Simmonett
                          and Daniel G. A. Smith
                              UKS Reference
                        1 Threads,    500 MiB Core
         ---------------------------------------------------------

  ==> Geometry <==

    Molecular point group: c2v
    Full point group: C_inf_v

    Geometry (in Angstrom), charge = -1, multiplicity = 5:

       Center              X                  Y                   Z               Mass       
    ------------   -----------------  -----------------  -----------------  -----------------
         NE           0.000000000000     0.000000000000     1.027854237171    19.992440176200
         P            0.000000000000     0.000000000000    -0.663442637273    30.973761998420

  Running in c2v symmetry.

  Rotational constants: A = ************  B =      0.48504  C =      0.48504 [cm^-1]
  Rotational constants: A = ************  B =  14541.19229  C =  14541.19229 [MHz]
  Nuclear repulsion =   46.932376450239161

  Charge       = -1
  Multiplicity = 5
  Electrons    = 26
  Nalpha       = 15
  Nbeta        = 11

  ==> Algorithm <==

  SCF Algorithm Type is DF.
  DIIS enabled.
  MOM disabled.
  Fractional occupation disabled.
  Guess Type is READ.
  Energy threshold   = 1.00e-08
  Density threshold  = 1.00e-08
  Integral threshold = 1.00e-12

  ==> Primary Basis <==

  Basis Set: CC-PVDZ
    Blend: CC-PVDZ
    Number of shells: 14
    Number of basis functions: 32
    Number of Cartesian functions: 34
    Spherical Harmonics?: true
    Max angular momentum: 2

  ==> DFT Potential <==

   => LibXC <=

    Version 6.2.2
    S. Lehtola, C. Steigemann, M. J.T. Oliveira, and M. A.L. Marques.,  SoftwareX 7, 1–5 (2018) (10.1016/j.softx.2017.11.002)

   => Composite Functional: B3LYP <= 

    B3LYP Hyb-GGA Exchange-Correlation Functional

    P. J. Stephens, F. J. Devlin, C. F. Chabalowski, and M. J. Frisch.,  J. Phys. Chem. 98, 11623 (1994) (10.1021/j100096a001)

    Deriv               =              1
    GGA                 =           TRUE
    Meta                =          FALSE

    Exchange Hybrid     =           TRUE
    MP2 Hybrid          =          FALSE

   => Exchange Functionals <=

    0.0800   Slater exchange
    0.7200         Becke 88

   => Exact (HF) Exchange <=

    0.2000               HF 

   => Correlation Functionals <=

    0.1900   Vosko, Wilk & Nusair (VWN5_RPA)
    0.8100   Lee, Yang & Parr

   => LibXC Density Thresholds  <==

    XC_HYB_GGA_XC_B3LYP:  1.00E-15 

   => Molecular Quadrature <=

    Radial Scheme          =       TREUTLER
    Pruning Scheme         =           NONE
    Nuclear Scheme         =       TREUTLER

    Blocking Scheme        =         OCTREE
    BS radius alpha        =              1
    Pruning alpha          =              1
    Radial Points          =             75
    Spherical Points       =            302
    Total Points           =          42682
    Total Blocks           =            386
    Max Points             =            255
    Max Functions          =             32
    Weights Tolerance      =       1.00E-15

   => Loading Basis Set <=

    Name: (CC-PVDZ AUX)
    Role: JKFIT
    Keyword: DF_BASIS_SCF
    atoms 1 entry NE         line   321 file /Users/joseantoniorodriguesromero/anaconda3/share/psi4/basis/cc-pvdz-jkfit.gbs 
    atoms 2 entry P          line   519 file /Users/joseantoniorodriguesromero/anaconda3/share/psi4/basis/cc-pvdz-jkfit.gbs 

   => Loading Basis Set <=

    Name: CC-PVDZ
    Role: ORBITAL
    Keyword: BASIS
    atoms 1 entry NE         line   258 file /Users/joseantoniorodriguesromero/anaconda3/share/psi4/basis/cc-pvdz.gbs 
    atoms 2 entry P          line   538 file /Users/joseantoniorodriguesromero/anaconda3/share/psi4/basis/cc-pvdz.gbs 

  Reading orbitals from file /tmp/quintet_NeP.default.72928.180.npy, no projection.

  ==> Integral Setup <==

  DFHelper Memory: AOs need 0.002 GiB; user supplied 0.329 GiB. 
  Using in-core AOs.

  ==> MemDFJK: Density-Fitted J/K Matrices <==

    J tasked:                   Yes
    K tasked:                   Yes
    wK tasked:                   No
    OpenMP threads:               1
    Memory [MiB]:               336
    Algorithm:                 Core
    Schwarz Cutoff:           1E-12
    Mask sparsity (%):       0.0000
    Fitting Condition:        1E-10

   => Auxiliary Basis Set <=

  Basis Set: (CC-PVDZ AUX)
    Blend: CC-PVDZ-JKFIT
    Number of shells: 60
    Number of basis functions: 182
    Number of Cartesian functions: 211
    Spherical Harmonics?: true
    Max angular momentum: 3

  Cached 100.0% of DFT collocation blocks in 0.038 [GiB].

  Minimum eigenvalue in the overlap matrix is 7.6274761293E-02.
  Reciprocal condition number of the overlap matrix is 3.0308518365E-02.
    Using symmetric orthogonalization.

  ==> Pre-Iterations <==

  SCF Guess: Orbitals guess was supplied from a previous computation.

   -------------------------------------------------------
    Irrep   Nso     Nmo     Nalpha   Nbeta   Ndocc  Nsocc
   -------------------------------------------------------
     A1        16      16       9       7       7       2
     A2         2       2       0       0       0       0
     B1         7       7       3       2       2       1
     B2         7       7       3       2       2       1
   -------------------------------------------------------
    Total      32      32      15      11      11       4
   -------------------------------------------------------

  ==> Iterations <==

                           Total Energy        Delta E     RMS |[F,P]|

   @DF-UKS iter   0:  -469.58165746243867   -4.69582e+02   3.28229e-02 
   @DF-UKS iter   1:  -469.61523657839922   -3.35791e-02   2.21395e-03 DIIS/ADIIS
   @DF-UKS iter   2:  -469.61629271197319   -1.05613e-03   1.63981e-03 DIIS/ADIIS/DAMP=1%
   @DF-UKS iter   3:  -469.61652316014278   -2.30448e-04   5.21993e-04 DIIS/ADIIS/DAMP=1%
   @DF-UKS iter   4:  -469.61744218386838   -9.19024e-04   9.92448e-05 DIIS/DAMP=1%
   @DF-UKS iter   5:  -469.61710638893675    3.35795e-04   3.41747e-05 DIIS/DAMP=1%
   @DF-UKS iter   6:  -469.61709763817055    8.75077e-06   9.85608e-06 DIIS/DAMP=1%
   @DF-UKS iter   7:  -469.61712004609831   -2.24079e-05   2.39154e-06 DIIS/DAMP=1%
   @DF-UKS iter   8:  -469.61711684387046    3.20223e-06   1.96013e-07 DIIS/DAMP=1%
   @DF-UKS iter   9:  -469.61711702041873   -1.76548e-07   3.15884e-08 DIIS/DAMP=1%
   @DF-UKS iter  10:  -469.61711719043387   -1.70015e-07   8.44803e-09 DIIS/DAMP=1%
   @DF-UKS iter  11:  -469.61711716044675    2.99871e-08   1.30120e-09 DIIS/DAMP=1%
   @DF-UKS iter  12:  -469.61711716167565   -1.22890e-09   1.07904e-10 DIIS/DAMP=1%
  Energy and wave function converged.


  ==> Post-Iterations <==

   Electrons on quadrature grid:
      Nalpha   =   14.9999908479 ; deviation = -9.152e-06
      Nbeta    =   10.9999908820 ; deviation = -9.118e-06
      Ntotal   =   25.9999817299 ; deviation = -1.827e-05 

   @Spin Contamination Metric:   2.599408156E-04
   @S^2 Expected:                6.000000000E+00
   @S^2 Observed:                6.000259941E+00
   @S   Expected:                2.000000000E+00
   @S   Observed:                2.000000000E+00

    Orbital Energies [Eh]
    ---------------------

    Alpha Occupied:                                                       

       1A1   -76.743211     2A1   -30.821194     3A1    -6.227310  
       4A1    -4.387774     1B2    -4.386684     1B1    -4.386684  
       5A1    -1.316325     6A1    -0.490269     2B1    -0.408584  
       2B2    -0.408584     7A1    -0.229345     3B2     0.045377  
       3B1     0.045377     8A1     0.132024     9A1     0.520660  

    Alpha Virtual:                                                        

       4B2     0.655879     4B1     0.655879    10A1     0.661656  
       1A2     0.742476    11A1     0.742477     5B1     0.751870  
       5B2     0.751870    12A1     0.891894     6B1     1.629107  
       6B2     1.629107    13A1     1.655739    14A1     2.674788  
       2A2     4.865541    15A1     4.865606     7B1     4.880051  
       7B2     4.880051    16A1     4.988383  

    Beta Occupied:                                                        

       1A1   -76.727055     2A1   -30.812764     3A1    -6.208569  
       4A1    -4.366348     1B2    -4.365496     1B1    -4.365496  
       5A1    -1.299950     6A1    -0.453856     2B1    -0.395020  
       2B2    -0.395020     7A1    -0.121249  

    Beta Virtual:                                                         

       3B1     0.194141     3B2     0.194141     8A1     0.272037  
       9A1     0.652602    10A1     0.724680     4B2     0.734988  
       4B1     0.734988     5B1     0.836941     5B2     0.836941  
      11A1     0.839910     1A2     0.839911    12A1     0.974919  
       6B1     1.643617     6B2     1.643617    13A1     1.672309  
      14A1     2.697053     2A2     4.873761    15A1     4.873825  
       7B1     4.892657     7B2     4.892657    16A1     5.004469  

    Final Occupation by Irrep:
             A1    A2    B1    B2 
    DOCC [     7,    0,    2,    2 ]
    SOCC [     2,    0,    1,    1 ]
    NA   [     9,    0,    3,    3 ]
    NB   [     7,    0,    2,    2 ]

  @DF-UKS Final Energy:  -469.61711716167565

   => Energetics <=

    Nuclear Repulsion Energy =             46.9323764502391612
    One-Electron Energy =                -753.7920997968712982
    Two-Electron Energy =                 266.3233617779347924
    DFT Exchange-Correlation Energy =     -29.0807555929783490
    Empirical Dispersion Energy =           0.0000000000000000
    VV10 Nonlocal Energy =                  0.0000000000000000
    Total Energy =                       -469.6171171616756510

  UHF NO Occupations:
  HONO-2 :    3 B2 1.0000000
  HONO-1 :    3 B1 1.0000000
  HONO-0 :    9 A1 1.0000000
  LUNO+0 :   10 A1 0.0000777
  LUNO+1 :    4 B2 0.0000203
  LUNO+2 :    4 B1 0.0000203
  LUNO+3 :   11 A1 0.0000078


Computation Completed


Properties will be evaluated at   0.000000,   0.000000,   0.000000 [a0]

Properties computed using the SCF density matrix


 Multipole Moments:

 ------------------------------------------------------------------------------------
     Multipole            Electronic (a.u.)      Nuclear  (a.u.)        Total (a.u.)
 ------------------------------------------------------------------------------------

 L = 1.  Multiply by 2.5417464519 to convert [e a0] to [Debye]
 Dipole X            :          0.0000000            0.0000000            0.0000000
 Dipole Y            :          0.0000000            0.0000000            0.0000000
 Dipole Z            :          0.8894631            0.6177568            1.5072199
 Magnitude           :                                                    1.5072199

 ------------------------------------------------------------------------------------

*** tstop() called on Joses-MacBook-Pro-2.local at Thu Jul 17 11:02:15 2025
Module time:
	user time   =       3.69 seconds =       0.06 minutes
	system time =       4.55 seconds =       0.08 minutes
	total time  =          1 seconds =       0.02 minutes
Total time:
	user time   =      21.20 seconds =       0.35 minutes
	system time =      23.41 seconds =       0.39 minutes
	total time  =          5 seconds =       0.08 minutes

*** tstart() called on Joses-MacBook-Pro-2.local
*** at Thu Jul 17 11:02:15 2025


         ------------------------------------------------------------
                                   SCF GRAD                          
                          Rob Parrish, Justin Turney,                
                       Andy Simmonett, and Alex Sokolov              
         ------------------------------------------------------------

  ==> Geometry <==

    Molecular point group: c2v
    Full point group: C_inf_v

    Geometry (in Angstrom), charge = -1, multiplicity = 5:

       Center              X                  Y                   Z               Mass       
    ------------   -----------------  -----------------  -----------------  -----------------
         NE           0.000000000000     0.000000000000     1.027854237171    19.992440176200
         P            0.000000000000     0.000000000000    -0.663442637273    30.973761998420

  Nuclear repulsion =   46.932376450239161

  ==> Basis Set <==

  Basis Set: CC-PVDZ
    Blend: CC-PVDZ
    Number of shells: 14
    Number of basis functions: 32
    Number of Cartesian functions: 34
    Spherical Harmonics?: true
    Max angular momentum: 2

  ==> DFJKGrad: Density-Fitted SCF Gradients <==

    Gradient:                    1
    J tasked:                  Yes
    K tasked:                  Yes
    wK tasked:                  No
    OpenMP threads:              1
    Integrals threads:           1
    Memory [MiB]:              375
    Schwarz Cutoff:          1E-12
    Fitting Condition:       1E-10

   => Auxiliary Basis Set <=

  Basis Set: (CC-PVDZ AUX)
    Blend: CC-PVDZ-JKFIT
    Number of shells: 60
    Number of basis functions: 182
    Number of Cartesian functions: 211
    Spherical Harmonics?: true
    Max angular momentum: 3

  ==> DFT Potential <==

   => LibXC <=

    Version 6.2.2
    S. Lehtola, C. Steigemann, M. J.T. Oliveira, and M. A.L. Marques.,  SoftwareX 7, 1–5 (2018) (10.1016/j.softx.2017.11.002)

   => Composite Functional: B3LYP <= 

    B3LYP Hyb-GGA Exchange-Correlation Functional

    P. J. Stephens, F. J. Devlin, C. F. Chabalowski, and M. J. Frisch.,  J. Phys. Chem. 98, 11623 (1994) (10.1021/j100096a001)

    Deriv               =              1
    GGA                 =           TRUE
    Meta                =          FALSE

    Exchange Hybrid     =           TRUE
    MP2 Hybrid          =          FALSE

   => Exchange Functionals <=

    0.0800   Slater exchange
    0.7200         Becke 88

   => Exact (HF) Exchange <=

    0.2000               HF 

   => Correlation Functionals <=

    0.1900   Vosko, Wilk & Nusair (VWN5_RPA)
    0.8100   Lee, Yang & Parr

   => LibXC Density Thresholds  <==

    XC_HYB_GGA_XC_B3LYP:  1.00E-15 

   => Molecular Quadrature <=

    Radial Scheme          =       TREUTLER
    Pruning Scheme         =           NONE
    Nuclear Scheme         =       TREUTLER

    Blocking Scheme        =         OCTREE
    BS radius alpha        =              1
    Pruning alpha          =              1
    Radial Points          =             75
    Spherical Points       =            302
    Total Points           =          42682
    Total Blocks           =            386
    Max Points             =            255
    Max Functions          =             32
    Weights Tolerance      =       1.00E-15


  -Total Gradient:
     Atom            X                  Y                   Z
    ------   -----------------  -----------------  -----------------
       1        0.000000000000    -0.000000000000    -0.220707616428
       2       -0.000000000000     0.000000000000     0.220638885026


*** tstop() called on Joses-MacBook-Pro-2.local at Thu Jul 17 11:02:15 2025
Module time:
	user time   =       1.15 seconds =       0.02 minutes
	system time =       1.34 seconds =       0.02 minutes
	total time  =          0 seconds =       0.00 minutes
Total time:
	user time   =      22.35 seconds =       0.37 minutes
	system time =      24.75 seconds =       0.41 minutes
	total time  =          5 seconds =       0.08 minutes

    			-----------------------------------------

    			 OPTKING 3.0: for geometry optimizations 

    			     By R.A. King, Bethel University     

    			        with contributions from          

    			    A.V. Copan, J. Cayton, A. Heide      

    			-----------------------------------------

    
	                            ===> Fragment 1 <== 

	 Z (Atomic Numbers)          Masses                          Geom                  
	      10.000000            19.992440          0.00000000  0.00000000  1.94236301   
	      15.000000            30.973762          0.00000000  0.00000000 -1.25372488   

	 - Coordinate -           - BOHR/RAD -       - ANG/DEG -
	 R(1,2)           =         3.196088           1.691297


	        --- Internal Coordinate Step in ANG or DEG, aJ/ANG or AJ/DEG ---
	-------------------------------------------------------------------------------
	           Coordinate      Previous         Force          Change          New 
	           ----------      --------        ------          ------        ------
	               R(1,2)       1.69130        1.81807        0.18422       1.87552
	-------------------------------------------------------------------------------

	                                 ==> Convergence Check <==                                  
    
	Measures of convergence in internal coordinates in au.
    
	Criteria marked as inactive (o), active & met (*), and active & unmet ( ).

	----------------------------------------------------------------------------------------------
	   Step    Total Energy     Delta E     Max Force     RMS Force      Max Disp      RMS Disp   
	----------------------------------------------------------------------------------------------
	  Convergence Criteria     1.00e-06 *    3.00e-04 *             o    1.20e-03 *             o
	----------------------------------------------------------------------------------------------
	     4    -469.61711716   -1.08e-01      2.21e-01      2.21e-01 o    3.48e-01      3.48e-01 o  ~
	----------------------------------------------------------------------------------------------

Next Geometry in Ang 
	Fragment 1 (Ang)

	   Ne   0.0000000000   0.0000000000   1.1199645520
	    P   0.0000000000   0.0000000000  -0.7555529521


    Structure for next step:
    Molecular point group: c2v
    Full point group: C_inf_v

    Geometry (in Angstrom), charge = -1, multiplicity = 5:

    NE           0.000000000000     0.000000000000     1.139810900504
    P            0.000000000000     0.000000000000    -0.735706603598


Scratch directory: /tmp/
gradient() will perform analytic gradient computation.
   => Libint2 <=

    Primary   basis highest AM E, G, H:  6, 6, 3
    Auxiliary basis highest AM E, G, H:  7, 7, 4
    Onebody   basis highest AM E, G, H:  -, -, -
    Solid Harmonics ordering:            Gaussian

*** tstart() called on Joses-MacBook-Pro-2.local
*** at Thu Jul 17 11:02:15 2025

   => Loading Basis Set <=

    Name: CC-PVDZ
    Role: ORBITAL
    Keyword: BASIS
    atoms 1 entry NE         line   258 file /Users/joseantoniorodriguesromero/anaconda3/share/psi4/basis/cc-pvdz.gbs 
    atoms 2 entry P          line   538 file /Users/joseantoniorodriguesromero/anaconda3/share/psi4/basis/cc-pvdz.gbs 


         ---------------------------------------------------------
                                   SCF
               by Justin Turney, Rob Parrish, Andy Simmonett
                          and Daniel G. A. Smith
                              UKS Reference
                        1 Threads,    500 MiB Core
         ---------------------------------------------------------

  ==> Geometry <==

    Molecular point group: c2v
    Full point group: C_inf_v

    Geometry (in Angstrom), charge = -1, multiplicity = 5:

       Center              X                  Y                   Z               Mass       
    ------------   -----------------  -----------------  -----------------  -----------------
         NE           0.000000000000     0.000000000000     1.139810900504    19.992440176200
         P            0.000000000000     0.000000000000    -0.735706603598    30.973761998420

  Running in c2v symmetry.

  Rotational constants: A = ************  B =      0.39444  C =      0.39444 [cm^-1]
  Rotational constants: A = ************  B =  11824.89972  C =  11824.89972 [MHz]
  Nuclear repulsion =   42.322495752182121

  Charge       = -1
  Multiplicity = 5
  Electrons    = 26
  Nalpha       = 15
  Nbeta        = 11

  ==> Algorithm <==

  SCF Algorithm Type is DF.
  DIIS enabled.
  MOM disabled.
  Fractional occupation disabled.
  Guess Type is READ.
  Energy threshold   = 1.00e-08
  Density threshold  = 1.00e-08
  Integral threshold = 1.00e-12

  ==> Primary Basis <==

  Basis Set: CC-PVDZ
    Blend: CC-PVDZ
    Number of shells: 14
    Number of basis functions: 32
    Number of Cartesian functions: 34
[...]

	                                 ==> Convergence Check <==                                  
    
	Measures of convergence in internal coordinates in au.
    
	Criteria marked as inactive (o), active & met (*), and active & unmet ( ).

	----------------------------------------------------------------------------------------------
	   Step    Total Energy     Delta E     Max Force     RMS Force      Max Disp      RMS Disp   
	----------------------------------------------------------------------------------------------
	  Convergence Criteria     1.00e-06 *    3.00e-04 *             o    1.20e-03 *             o
	----------------------------------------------------------------------------------------------
	    18    -469.75929432   -2.26e-06      4.44e-05 *    4.44e-05 o    1.13e-02      1.13e-02 o  ~
	----------------------------------------------------------------------------------------------

Next Geometry in Ang 
	Fragment 1 (Ang)

	   Ne   0.0000000000   0.0000000000   2.2023810269
	    P   0.0000000000   0.0000000000  -1.4226216182


    Structure for next step:
    Molecular point group: c2v
    Full point group: C_inf_v

    Geometry (in Angstrom), charge = -1, multiplicity = 5:

    NE           0.000000000000     0.000000000000     2.203027975039
    P            0.000000000000     0.000000000000    -1.421974670036


Scratch directory: /tmp/
gradient() will perform analytic gradient computation.
   => Libint2 <=

    Primary   basis highest AM E, G, H:  6, 6, 3
    Auxiliary basis highest AM E, G, H:  7, 7, 4
    Onebody   basis highest AM E, G, H:  -, -, -
    Solid Harmonics ordering:            Gaussian

*** tstart() called on Joses-MacBook-Pro-2.local
*** at Thu Jul 17 11:02:30 2025

   => Loading Basis Set <=

    Name: CC-PVDZ
    Role: ORBITAL
    Keyword: BASIS
    atoms 1 entry NE         line   258 file /Users/joseantoniorodriguesromero/anaconda3/share/psi4/basis/cc-pvdz.gbs 
    atoms 2 entry P          line   538 file /Users/joseantoniorodriguesromero/anaconda3/share/psi4/basis/cc-pvdz.gbs 


         ---------------------------------------------------------
                                   SCF
               by Justin Turney, Rob Parrish, Andy Simmonett
                          and Daniel G. A. Smith
                              UKS Reference
                        1 Threads,    500 MiB Core
         ---------------------------------------------------------

  ==> Geometry <==

    Molecular point group: c2v
    Full point group: C_inf_v

    Geometry (in Angstrom), charge = -1, multiplicity = 5:

       Center              X                  Y                   Z               Mass       
    ------------   -----------------  -----------------  -----------------  -----------------
         NE           0.000000000000     0.000000000000     2.203027975039    19.992440176200
         P            0.000000000000     0.000000000000    -1.421974670036    30.973761998420

  Running in c2v symmetry.

  Rotational constants: A = ************  B =      0.10559  C =      0.10559 [cm^-1]
  Rotational constants: A = ************  B =   3165.35959  C =   3165.35959 [MHz]
  Nuclear repulsion =   21.896972050034158

  Charge       = -1
  Multiplicity = 5
  Electrons    = 26
  Nalpha       = 15
  Nbeta        = 11

  ==> Algorithm <==

  SCF Algorithm Type is DF.
  DIIS enabled.
  MOM disabled.
  Fractional occupation disabled.
  Guess Type is READ.
  Energy threshold   = 1.00e-08
  Density threshold  = 1.00e-08
  Integral threshold = 1.00e-12

  ==> Primary Basis <==

  Basis Set: CC-PVDZ
    Blend: CC-PVDZ
    Number of shells: 14
    Number of basis functions: 32
    Number of Cartesian functions: 34
    Spherical Harmonics?: true
    Max angular momentum: 2

  ==> DFT Potential <==

   => LibXC <=

    Version 6.2.2
    S. Lehtola, C. Steigemann, M. J.T. Oliveira, and M. A.L. Marques.,  SoftwareX 7, 1–5 (2018) (10.1016/j.softx.2017.11.002)

   => Composite Functional: B3LYP <= 

    B3LYP Hyb-GGA Exchange-Correlation Functional

    P. J. Stephens, F. J. Devlin, C. F. Chabalowski, and M. J. Frisch.,  J. Phys. Chem. 98, 11623 (1994) (10.1021/j100096a001)

    Deriv               =              1
    GGA                 =           TRUE
    Meta                =          FALSE

    Exchange Hybrid     =           TRUE
    MP2 Hybrid          =          FALSE

   => Exchange Functionals <=

    0.0800   Slater exchange
    0.7200         Becke 88

   => Exact (HF) Exchange <=

    0.2000               HF 

   => Correlation Functionals <=

    0.1900   Vosko, Wilk & Nusair (VWN5_RPA)
    0.8100   Lee, Yang & Parr

   => LibXC Density Thresholds  <==

    XC_HYB_GGA_XC_B3LYP:  1.00E-15 

   => Molecular Quadrature <=

    Radial Scheme          =       TREUTLER
    Pruning Scheme         =           NONE
    Nuclear Scheme         =       TREUTLER

    Blocking Scheme        =         OCTREE
    BS radius alpha        =              1
    Pruning alpha          =              1
    Radial Points          =             75
    Spherical Points       =            302
    Total Points           =          42822
    Total Blocks           =            398
    Max Points             =            254
    Max Functions          =             32
    Weights Tolerance      =       1.00E-15

   => Loading Basis Set <=

    Name: (CC-PVDZ AUX)
    Role: JKFIT
    Keyword: DF_BASIS_SCF
    atoms 1 entry NE         line   321 file /Users/joseantoniorodriguesromero/anaconda3/share/psi4/basis/cc-pvdz-jkfit.gbs 
    atoms 2 entry P          line   519 file /Users/joseantoniorodriguesromero/anaconda3/share/psi4/basis/cc-pvdz-jkfit.gbs 

   => Loading Basis Set <=

    Name: CC-PVDZ
    Role: ORBITAL
    Keyword: BASIS
    atoms 1 entry NE         line   258 file /Users/joseantoniorodriguesromero/anaconda3/share/psi4/basis/cc-pvdz.gbs 
    atoms 2 entry P          line   538 file /Users/joseantoniorodriguesromero/anaconda3/share/psi4/basis/cc-pvdz.gbs 

  Reading orbitals from file /tmp/quintet_NeP.default.72928.180.npy, no projection.

  ==> Integral Setup <==

  DFHelper Memory: AOs need 0.002 GiB; user supplied 0.333 GiB. 
  Using in-core AOs.

  ==> MemDFJK: Density-Fitted J/K Matrices <==

    J tasked:                   Yes
    K tasked:                   Yes
    wK tasked:                   No
    OpenMP threads:               1
    Memory [MiB]:               340
    Algorithm:                 Core
    Schwarz Cutoff:           1E-12
    Mask sparsity (%):       0.0000
    Fitting Condition:        1E-10

   => Auxiliary Basis Set <=

  Basis Set: (CC-PVDZ AUX)
    Blend: CC-PVDZ-JKFIT
    Number of shells: 60
    Number of basis functions: 182
    Number of Cartesian functions: 211
    Spherical Harmonics?: true
    Max angular momentum: 3

  Cached 100.0% of DFT collocation blocks in 0.034 [GiB].

  Minimum eigenvalue in the overlap matrix is 1.1527534371E-01.
  Reciprocal condition number of the overlap matrix is 6.7380609258E-02.
    Using symmetric orthogonalization.

  ==> Pre-Iterations <==

  SCF Guess: Orbitals guess was supplied from a previous computation.

   -------------------------------------------------------
    Irrep   Nso     Nmo     Nalpha   Nbeta   Ndocc  Nsocc
   -------------------------------------------------------
     A1        16      16       9       7       7       2
     A2         2       2       0       0       0       0
     B1         7       7       3       2       2       1
     B2         7       7       3       2       2       1
   -------------------------------------------------------
    Total      32      32      15      11      11       4
   -------------------------------------------------------

  ==> Iterations <==

                           Total Energy        Delta E     RMS |[F,P]|

   @DF-UKS iter   0:  -469.75927472688306   -4.69759e+02   3.87598e-05 
   @DF-UKS iter   1:  -469.75929494222891   -2.02153e-05   1.70900e-06 DIIS
   @DF-UKS iter   2:  -469.75929494239676   -1.67859e-10   1.33718e-06 DIIS/DAMP=1%
   @DF-UKS iter   3:  -469.75929455520486    3.87192e-07   3.28067e-07 DIIS/DAMP=1%
   @DF-UKS iter   4:  -469.75929499018235   -4.34977e-07   7.78095e-08 DIIS/DAMP=1%
   @DF-UKS iter   5:  -469.75929494253927    4.76431e-08   5.61033e-08 DIIS/DAMP=1%
   @DF-UKS iter   6:  -469.75929492899257    1.35467e-08   2.61458e-08 DIIS/DAMP=1%
   @DF-UKS iter   7:  -469.75929494698619   -1.79936e-08   2.75697e-09 DIIS/DAMP=1%
   @DF-UKS iter   8:  -469.75929494069334    6.29285e-09   6.76002e-10 DIIS/DAMP=1%
  Energy and wave function converged.


  ==> Post-Iterations <==

   Electrons on quadrature grid:
      Nalpha   =   15.0000114435 ; deviation = 1.144e-05
      Nbeta    =   11.0000115216 ; deviation = 1.152e-05
      Ntotal   =   26.0000229652 ; deviation = 2.297e-05 

   @Spin Contamination Metric:   1.704163381E-06
   @S^2 Expected:                6.000000000E+00
   @S^2 Observed:                6.000001704E+00
   @S   Expected:                2.000000000E+00
   @S   Observed:                2.000000000E+00

    Orbital Energies [Eh]
    ---------------------

    Alpha Occupied:                                                       

       1A1   -76.759894     2A1   -30.812220     3A1    -6.240450  
       4A1    -4.400166     1B2    -4.400156     1B1    -4.400156  
       5A1    -1.278057     2B1    -0.387012     2B2    -0.387012  
       6A1    -0.385527     7A1    -0.297573     3B1     0.028790  
       3B2     0.028790     8A1     0.029211     9A1     0.524132  

    Alpha Virtual:                                                        

      10A1     0.651264     4B1     0.651686     4B2     0.651686  
      11A1     0.734994     5B2     0.735112     5B1     0.735112  
       1A2     0.735119    12A1     0.735120     6B2     1.511161  
       6B1     1.511161    13A1     1.529891    14A1     1.978489  
       2A2     4.878519    15A1     4.878662     7B2     4.879544  
       7B1     4.879544    16A1     4.880173  

    Beta Occupied:                                                        

       1A1   -76.743143     2A1   -30.812009     3A1    -6.220862  
       1B2    -4.378355     1B1    -4.378355     4A1    -4.378333  
       5A1    -1.277771     2B1    -0.386899     2B2    -0.386899  
       6A1    -0.384935     7A1    -0.171568  

    Beta Virtual:                                                         

       3B1     0.177509     3B2     0.177509     8A1     0.177949  
       9A1     0.651389    10A1     0.728582     4B1     0.729861  
       4B2     0.729861    11A1     0.830160    12A1     0.830252  
       1A2     0.830253     5B2     0.830274     5B1     0.830274  
       6B2     1.511071     6B1     1.511071    13A1     1.530740  
      14A1     1.979070     2A2     4.878611    15A1     4.878753  
       7B1     4.879815     7B2     4.879815    16A1     4.880506  

    Final Occupation by Irrep:
             A1    A2    B1    B2 
    DOCC [     7,    0,    2,    2 ]
    SOCC [     2,    0,    1,    1 ]
    NA   [     9,    0,    3,    3 ]
    NB   [     7,    0,    2,    2 ]

  @DF-UKS Final Energy:  -469.75929494069334

   => Energetics <=

    Nuclear Repulsion Energy =             21.8969720500341580
    One-Electron Energy =                -703.9629598385417921
    Two-Electron Energy =                 241.3257813382037682
    DFT Exchange-Correlation Energy =     -29.0190884903894286
    Empirical Dispersion Energy =           0.0000000000000000
    VV10 Nonlocal Energy =                  0.0000000000000000
    Total Energy =                       -469.7592949406932803

  UHF NO Occupations:
  HONO-2 :    3 B1 1.0000000
  HONO-1 :    8 A1 1.0000000
  HONO-0 :    9 A1 1.0000000
  LUNO+0 :   10 A1 0.0000002
  LUNO+1 :    4 B2 0.0000002
  LUNO+2 :    4 B1 0.0000002
  LUNO+3 :   11 A1 0.0000002


Computation Completed


Properties will be evaluated at   0.000000,   0.000000,   0.000000 [a0]

Properties computed using the SCF density matrix


 Multipole Moments:

 ------------------------------------------------------------------------------------
     Multipole            Electronic (a.u.)      Nuclear  (a.u.)        Total (a.u.)
 ------------------------------------------------------------------------------------

 L = 1.  Multiply by 2.5417464519 to convert [e a0] to [Debye]
 Dipole X            :          0.0000000            0.0000000            0.0000000
 Dipole Y            :          0.0000000            0.0000000            0.0000000
 Dipole Z            :          1.3453090            1.3240549            2.6693640
 Magnitude           :                                                    2.6693640

 ------------------------------------------------------------------------------------

*** tstop() called on Joses-MacBook-Pro-2.local at Thu Jul 17 11:02:31 2025
Module time:
	user time   =       3.10 seconds =       0.05 minutes
	system time =       3.38 seconds =       0.06 minutes
	total time  =          1 seconds =       0.02 minutes
Total time:
	user time   =      96.11 seconds =       1.60 minutes
	system time =     104.97 seconds =       1.75 minutes
	total time  =         21 seconds =       0.35 minutes

*** tstart() called on Joses-MacBook-Pro-2.local
*** at Thu Jul 17 11:02:31 2025


         ------------------------------------------------------------
                                   SCF GRAD                          
                          Rob Parrish, Justin Turney,                
                       Andy Simmonett, and Alex Sokolov              
         ------------------------------------------------------------

  ==> Geometry <==

    Molecular point group: c2v
    Full point group: C_inf_v

    Geometry (in Angstrom), charge = -1, multiplicity = 5:

       Center              X                  Y                   Z               Mass       
    ------------   -----------------  -----------------  -----------------  -----------------
         NE           0.000000000000     0.000000000000     2.203027975039    19.992440176200
         P            0.000000000000     0.000000000000    -1.421974670036    30.973761998420

  Nuclear repulsion =   21.896972050034158

  ==> Basis Set <==

  Basis Set: CC-PVDZ
    Blend: CC-PVDZ
    Number of shells: 14
    Number of basis functions: 32
    Number of Cartesian functions: 34
    Spherical Harmonics?: true
    Max angular momentum: 2

  ==> DFJKGrad: Density-Fitted SCF Gradients <==

    Gradient:                    1
    J tasked:                  Yes
    K tasked:                  Yes
    wK tasked:                  No
    OpenMP threads:              1
    Integrals threads:           1
    Memory [MiB]:              375
    Schwarz Cutoff:          1E-12
    Fitting Condition:       1E-10

   => Auxiliary Basis Set <=

  Basis Set: (CC-PVDZ AUX)
    Blend: CC-PVDZ-JKFIT
    Number of shells: 60
    Number of basis functions: 182
    Number of Cartesian functions: 211
    Spherical Harmonics?: true
    Max angular momentum: 3

  ==> DFT Potential <==

   => LibXC <=

    Version 6.2.2
    S. Lehtola, C. Steigemann, M. J.T. Oliveira, and M. A.L. Marques.,  SoftwareX 7, 1–5 (2018) (10.1016/j.softx.2017.11.002)

   => Composite Functional: B3LYP <= 

    B3LYP Hyb-GGA Exchange-Correlation Functional

    P. J. Stephens, F. J. Devlin, C. F. Chabalowski, and M. J. Frisch.,  J. Phys. Chem. 98, 11623 (1994) (10.1021/j100096a001)

    Deriv               =              1
    GGA                 =           TRUE
    Meta                =          FALSE

    Exchange Hybrid     =           TRUE
    MP2 Hybrid          =          FALSE

   => Exchange Functionals <=

    0.0800   Slater exchange
    0.7200         Becke 88

   => Exact (HF) Exchange <=

    0.2000               HF 

   => Correlation Functionals <=

    0.1900   Vosko, Wilk & Nusair (VWN5_RPA)
    0.8100   Lee, Yang & Parr

   => LibXC Density Thresholds  <==

    XC_HYB_GGA_XC_B3LYP:  1.00E-15 

   => Molecular Quadrature <=

    Radial Scheme          =       TREUTLER
    Pruning Scheme         =           NONE
    Nuclear Scheme         =       TREUTLER

    Blocking Scheme        =         OCTREE
    BS radius alpha        =              1
    Pruning alpha          =              1
    Radial Points          =             75
    Spherical Points       =            302
    Total Points           =          42822
    Total Blocks           =            398
    Max Points             =            254
    Max Functions          =             32
    Weights Tolerance      =       1.00E-15


  -Total Gradient:
     Atom            X                  Y                   Z
    ------   -----------------  -----------------  -----------------
       1        0.000000000000     0.000000000000     0.000000200749
       2        0.000000000000     0.000000000000     0.000041516358


*** tstop() called on Joses-MacBook-Pro-2.local at Thu Jul 17 11:02:31 2025
Module time:
	user time   =       0.84 seconds =       0.01 minutes
	system time =       1.56 seconds =       0.03 minutes
	total time  =          0 seconds =       0.00 minutes
Total time:
	user time   =      96.96 seconds =       1.62 minutes
	system time =     106.54 seconds =       1.78 minutes
	total time  =         21 seconds =       0.35 minutes

    			-----------------------------------------

    			 OPTKING 3.0: for geometry optimizations 

    			     By R.A. King, Bethel University     

    			        with contributions from          

    			    A.V. Copan, J. Cayton, A. Heide      

    			-----------------------------------------

    
	                            ===> Fragment 1 <== 

	 Z (Atomic Numbers)          Masses                          Geom                  
	      10.000000            19.992440          0.00000000  0.00000000  4.16311952   
	      15.000000            30.973762          0.00000000  0.00000000 -2.68714268   

	 - Coordinate -           - BOHR/RAD -       - ANG/DEG -
	 R(1,2)           =         6.850262           3.625003


	        --- Internal Coordinate Step in ANG or DEG, aJ/ANG or AJ/DEG ---
	-------------------------------------------------------------------------------
	           Coordinate      Previous         Force          Change          New 
	           ----------      --------        ------          ------        ------
	               R(1,2)       3.62500        0.00017        0.00365       3.62865
	-------------------------------------------------------------------------------

	                                 ==> Convergence Check <==                                  
    
	Measures of convergence in internal coordinates in au.
    
	Criteria marked as inactive (o), active & met (*), and active & unmet ( ).

	----------------------------------------------------------------------------------------------
	   Step    Total Energy     Delta E     Max Force     RMS Force      Max Disp      RMS Disp   
	----------------------------------------------------------------------------------------------
	  Convergence Criteria     1.00e-06 *    3.00e-04 *             o    1.20e-03 *             o
	----------------------------------------------------------------------------------------------
	    19    -469.75929494   -6.20e-07 *    2.07e-05 *    2.07e-05 o    6.90e-03      6.90e-03 o  ~
	----------------------------------------------------------------------------------------------

Next Geometry in Ang 
	Fragment 1 (Ang)

	   Ne   0.0000000000   0.0000000000   2.2048541192
	    P   0.0000000000   0.0000000000  -1.4238008142


    Final optimized geometry and variables:
    Molecular point group: c2v
    Full point group: C_inf_v

    Geometry (in Angstrom), charge = -1, multiplicity = 5:

    NE           0.000000000000     0.000000000000     2.203027975039
    P            0.000000000000     0.000000000000    -1.421974670036


    Psi4 stopped on: Thursday, 17 July 2025 11:02AM
    Psi4 wall time for execution: 0:00:21.32

*** Psi4 exiting successfully. Buy a developer a beer!
