
    -----------------------------------------------------------------------
          Psi4: An Open-Source Ab Initio Electronic Structure Package
                               Psi4 1.9.1 release

                         Git: Rev {} zzzzzzz 


    D. G. A. Smith, L. A. Burns, A. C. Simmonett, R. M. Parrish,
    M. C. Schieber, R. Galvelis, P. Kraus, H. Kruse, R. Di Remigio,
    A. Alenaizan, A. M. James, S. Lehtola, J. P. Misiewicz, M. Scheurer,
    R. A. Shaw, J. B. Schriber, Y. Xie, Z. L. Glick, D. A. Sirianni,
    J. S. O'Brien, J. M. Waldrop, A. Kumar, E. G. Hohenstein,
    B. P. Pritchard, B. R. Brooks, H. F. Schaefer III, A. Yu. Sokolov,
    K. Patkowski, A. E. DePrince III, U. Bozkaya, R. A. King,
    F. A. Evangelista, J. M. Turney, T. D. Crawford, C. D. Sherrill,
    J. Chem. Phys. 152(18) 184108 (2020). https://doi.org/10.1063/5.0006002

                            Additional Code Authors
    E. T. Seidl, C. L. Janssen, E. F. Valeev, M. L. Leininger,
    J. F. Gonthier, R. M. Richard, H. R. McAlexander, M. Saitow, X. Wang,
    P. Verma, M. H. Lechner, A. Jiang, S. Behnle, A. G. Heide,
    M. F. Herbst, and D. L. Poole

             Previous Authors, Complete List of Code Contributors,
                       and Citations for Specific Modules
    https://github.com/psi4/psi4/blob/master/codemeta.json
    https://github.com/psi4/psi4/graphs/contributors
    http://psicode.org/psi4manual/master/introduction.html#citing-psifour

    -----------------------------------------------------------------------


    Psi4 started on: Thursday, 17 July 2025 11:51AM

    Process ID: 73325
    Host:       Joses-MacBook-Pro-2.local
    PSIDATADIR: /Users/joseantoniorodriguesromero/anaconda3/share/psi4
    Memory:     500.0 MiB
    Threads:    1
    
  ==> Input File <==

--------------------------------------------------------------------------
molecule { 
-1 5
Si   0.00000        0.60000        0.00000
Cl   0.00000       -0.60000        0.00000
}

set { 
basis              cc-pvdz
reference          uks
maxiter            500
geom_maxiter       500
DAMPING_PERCENTAGE 1
guess              SAP
}

optimize('b3lyp')
--------------------------------------------------------------------------

Scratch directory: /tmp/
gradient() will perform analytic gradient computation.
   => Libint2 <=

    Primary   basis highest AM E, G, H:  6, 6, 3
    Auxiliary basis highest AM E, G, H:  7, 7, 4
    Onebody   basis highest AM E, G, H:  -, -, -
    Solid Harmonics ordering:            Gaussian

*** tstart() called on Joses-MacBook-Pro-2.local
*** at Thu Jul 17 11:51:18 2025

   => Loading Basis Set <=

    Name: CC-PVDZ
    Role: ORBITAL
    Keyword: BASIS
    atoms 1 entry SI         line   478 file /Users/joseantoniorodriguesromero/anaconda3/share/psi4/basis/cc-pvdz.gbs 
    atoms 2 entry CL         line   658 file /Users/joseantoniorodriguesromero/anaconda3/share/psi4/basis/cc-pvdz.gbs 


         ---------------------------------------------------------
                                   SCF
               by Justin Turney, Rob Parrish, Andy Simmonett
                          and Daniel G. A. Smith
                              UKS Reference
                        1 Threads,    500 MiB Core
         ---------------------------------------------------------

  ==> Geometry <==

    Molecular point group: c2v
    Full point group: C_inf_v

    Geometry (in Angstrom), charge = -1, multiplicity = 5:

       Center              X                  Y                   Z               Mass       
    ------------   -----------------  -----------------  -----------------  -----------------
         SI           0.000000000000     0.000000000000     0.666647132510    27.976926534650
         CL           0.000000000000     0.000000000000    -0.533352867490    34.968852682000

  Running in c2v symmetry.

  Rotational constants: A = ************  B =      0.75322  C =      0.75322 [cm^-1]
  Rotational constants: A = ************  B =  22580.83178  C =  22580.83178 [MHz]
  Nuclear repulsion =  104.953480116216681

  Charge       = -1
  Multiplicity = 5
  Electrons    = 32
  Nalpha       = 18
  Nbeta        = 14

  ==> Algorithm <==

  SCF Algorithm Type is DF.
  DIIS enabled.
  MOM disabled.
  Fractional occupation disabled.
  Guess Type is SAP.
  Energy threshold   = 1.00e-08
  Density threshold  = 1.00e-08
  Integral threshold = 1.00e-12

  ==> Primary Basis <==

  Basis Set: CC-PVDZ
    Blend: CC-PVDZ
    Number of shells: 16
    Number of basis functions: 36
    Number of Cartesian functions: 38
    Spherical Harmonics?: true
    Max angular momentum: 2

  ==> DFT Potential <==

   => LibXC <=

    Version 6.2.2
    S. Lehtola, C. Steigemann, M. J.T. Oliveira, and M. A.L. Marques.,  SoftwareX 7, 1–5 (2018) (10.1016/j.softx.2017.11.002)

   => Composite Functional: B3LYP <= 

    B3LYP Hyb-GGA Exchange-Correlation Functional

    P. J. Stephens, F. J. Devlin, C. F. Chabalowski, and M. J. Frisch.,  J. Phys. Chem. 98, 11623 (1994) (10.1021/j100096a001)

    Deriv               =              1
    GGA                 =           TRUE
    Meta                =          FALSE

    Exchange Hybrid     =           TRUE
    MP2 Hybrid          =          FALSE

   => Exchange Functionals <=

    0.0800   Slater exchange
    0.7200         Becke 88

   => Exact (HF) Exchange <=

    0.2000               HF 

   => Correlation Functionals <=

    0.1900   Vosko, Wilk & Nusair (VWN5_RPA)
    0.8100   Lee, Yang & Parr

   => LibXC Density Thresholds  <==

    XC_HYB_GGA_XC_B3LYP:  1.00E-15 

   => Molecular Quadrature <=

    Radial Scheme          =       TREUTLER
    Pruning Scheme         =           NONE
    Nuclear Scheme         =       TREUTLER

    Blocking Scheme        =         OCTREE
    BS radius alpha        =              1
    Pruning alpha          =              1
    Radial Points          =             75
    Spherical Points       =            302
    Total Points           =          41465
    Total Blocks           =            389
    Max Points             =            249
    Max Functions          =             36
    Weights Tolerance      =       1.00E-15

   => Loading Basis Set <=

    Name: (CC-PVDZ AUX)
    Role: JKFIT
    Keyword: DF_BASIS_SCF
    atoms 1 entry SI         line   445 file /Users/joseantoniorodriguesromero/anaconda3/share/psi4/basis/cc-pvdz-jkfit.gbs 
    atoms 2 entry CL         line   667 file /Users/joseantoniorodriguesromero/anaconda3/share/psi4/basis/cc-pvdz-jkfit.gbs 

  ==> Integral Setup <==

  DFHelper Memory: AOs need 0.003 GiB; user supplied 0.324 GiB. 
  Using in-core AOs.

  ==> MemDFJK: Density-Fitted J/K Matrices <==

    J tasked:                   Yes
    K tasked:                   Yes
    wK tasked:                   No
    OpenMP threads:               1
    Memory [MiB]:               331
    Algorithm:                 Core
    Schwarz Cutoff:           1E-12
    Mask sparsity (%):       0.0000
    Fitting Condition:        1E-10

   => Auxiliary Basis Set <=

  Basis Set: (CC-PVDZ AUX)
    Blend: CC-PVDZ-JKFIT
    Number of shells: 72
    Number of basis functions: 224
    Number of Cartesian functions: 260
    Spherical Harmonics?: true
    Max angular momentum: 3

  Cached 100.0% of DFT collocation blocks in 0.042 [GiB].

  Minimum eigenvalue in the overlap matrix is 6.9950548482E-03.
  Reciprocal condition number of the overlap matrix is 2.2289168040E-03.
    Using symmetric orthogonalization.

  ==> Pre-Iterations <==

  SCF Guess: Superposition of Atomic Potentials (doi:10.1021/acs.jctc.8b01089).

  ==> SAP guess <==

   => Molecular Quadrature <=

    Radial Scheme          =       TREUTLER
    Pruning Scheme         =           NONE
    Nuclear Scheme         =       TREUTLER

    Blocking Scheme        =         OCTREE
    BS radius alpha        =              1
    Pruning alpha          =              1
    Radial Points          =             75
    Spherical Points       =            302
    Total Points           =          41465
    Total Blocks           =            389
    Max Points             =            249
    Max Functions          =             36
    Weights Tolerance      =       1.00E-15

   -------------------------------------------------------
    Irrep   Nso     Nmo     Nalpha   Nbeta   Ndocc  Nsocc
   -------------------------------------------------------
     A1        18      18      10       8       8       2
     A2         2       2       0       0       0       0
     B1         8       8       4       3       3       1
     B2         8       8       4       3       3       1
   -------------------------------------------------------
    Total      36      36      18      14      14       4
   -------------------------------------------------------

  ==> Iterations <==

                           Total Energy        Delta E     RMS |[F,P]|

   @DF-UKS iter   1:  -747.80437433587065   -7.47804e+02   3.46962e-02 DIIS/ADIIS
   @DF-UKS iter   2:  -747.83599894873089   -3.16246e-02   3.73200e-02 DIIS/ADIIS/DAMP=1%
   @DF-UKS iter   3:  -748.12857193963521   -2.92573e-01   1.08352e-03 DIIS/ADIIS/DAMP=1%
   @DF-UKS iter   4:  -748.19884986518571   -7.02779e-02   5.28263e-04 DIIS/ADIIS/DAMP=1%
   @DF-UKS iter   5:  -748.19818428259362    6.65583e-04   2.17737e-04 DIIS/ADIIS/DAMP=1%
   @DF-UKS iter   6:  -748.19858425612392   -3.99974e-04   2.57590e-05 DIIS/DAMP=1%
   @DF-UKS iter   7:  -748.19863902999987   -5.47739e-05   3.42018e-06 DIIS/DAMP=1%
   @DF-UKS iter   8:  -748.19862659707792    1.24329e-05   4.96027e-07 DIIS/DAMP=1%
   @DF-UKS iter   9:  -748.19862672644012   -1.29362e-07   6.71614e-08 DIIS/DAMP=1%
   @DF-UKS iter  10:  -748.19862567372445    1.05272e-06   7.45521e-09 DIIS/DAMP=1%
   @DF-UKS iter  11:  -748.19862576351852   -8.97941e-08   9.21124e-10 DIIS/DAMP=1%
   @DF-UKS iter  12:  -748.19862577128515   -7.76663e-09   1.24006e-10 DIIS/DAMP=1%
  Energy and wave function converged.


  ==> Post-Iterations <==

   Electrons on quadrature grid:
      Nalpha   =   17.9999982180 ; deviation = -1.782e-06
      Nbeta    =   13.9999982565 ; deviation = -1.744e-06
      Ntotal   =   31.9999964745 ; deviation = -3.526e-06 

   @Spin Contamination Metric:   1.221325199E-03
   @S^2 Expected:                6.000000000E+00
   @S^2 Observed:                6.001221325E+00
   @S   Expected:                2.000000000E+00
   @S   Observed:                2.000000000E+00

    Orbital Energies [Eh]
    ---------------------

    Alpha Occupied:                                                       

       1A1  -101.341741     2A1   -65.950307     3A1    -9.343432  
       4A1    -7.111351     1B1    -7.079288     1B2    -7.079288  
       5A1    -5.197244     6A1    -3.586546     2B1    -3.524235  
       2B2    -3.524235     7A1    -0.796377     3B2    -0.314015  
       3B1    -0.314015     8A1    -0.308048     9A1    -0.105511  
       4B1     0.094803     4B2     0.094803    10A1     0.199786  

    Alpha Virtual:                                                        

       5B2     0.386427     5B1     0.386427    11A1     0.441829  
      12A1     0.461794     1A2     0.461795    13A1     0.512483  
       6B1     0.585317     6B2     0.585317    14A1     0.614882  
       7B1     0.794993     7B2     0.794993    15A1     0.953713  
       2A2     0.953714    16A1     0.974349     8B2     1.314238  
       8B1     1.314238    17A1     1.401276    18A1     1.845427  

    Beta Occupied:                                                        

       1A1  -101.336345     2A1   -65.942525     3A1    -9.337336  
       4A1    -7.104436     1B1    -7.072521     1B2    -7.072521  
       5A1    -5.188345     6A1    -3.571489     2B1    -3.513255  
       2B2    -3.513255     7A1    -0.771171     3B2    -0.288567  
       3B1    -0.288567     8A1    -0.265554  

    Beta Virtual:                                                         

       9A1     0.067933     4B1     0.224082     4B2     0.224082  
      10A1     0.284306     5B2     0.419004     5B1     0.419004  
      11A1     0.508111    12A1     0.522376     1A2     0.522377  
      13A1     0.537499     6B1     0.662099     6B2     0.662099  
      14A1     0.692041     7B1     0.833804     7B2     0.833804  
      15A1     0.999030     2A2     0.999031    16A1     1.001360  
       8B2     1.361318     8B1     1.361318    17A1     1.431946  
      18A1     1.880960  

    Final Occupation by Irrep:
             A1    A2    B1    B2 
    DOCC [     8,    0,    3,    3 ]
    SOCC [     2,    0,    1,    1 ]
    NA   [    10,    0,    4,    4 ]
    NB   [     8,    0,    3,    3 ]

  @DF-UKS Final Energy:  -748.19862577128515

   => Energetics <=

    Nuclear Repulsion Energy =            104.9534801162166815
    One-Electron Energy =               -1247.2565033694404519
    Two-Electron Energy =                 434.3338627837694617
    DFT Exchange-Correlation Energy =     -40.2294653018308423
    Empirical Dispersion Energy =           0.0000000000000000
    VV10 Nonlocal Energy =                  0.0000000000000000
    Total Energy =                       -748.1986257712850374

  UHF NO Occupations:
  HONO-2 :   10 A1 1.0000000
  HONO-1 :    4 B2 1.0000000
  HONO-0 :    4 B1 1.0000000
  LUNO+0 :    5 B1 0.0002672
  LUNO+1 :    5 B2 0.0002672
  LUNO+2 :   11 A1 0.0000652
  LUNO+3 :   12 A1 0.0000107


Computation Completed


Properties will be evaluated at   0.000000,   0.000000,   0.000000 [a0]

Properties computed using the SCF density matrix


 Multipole Moments:

 ------------------------------------------------------------------------------------
     Multipole            Electronic (a.u.)      Nuclear  (a.u.)        Total (a.u.)
 ------------------------------------------------------------------------------------

 L = 1.  Multiply by 2.5417464519 to convert [e a0] to [Debye]
 Dipole X            :          0.0000000            0.0000000            0.0000000
 Dipole Y            :          0.0000000            0.0000000            0.0000000
 Dipole Z            :         -2.0806590            0.5027826           -1.5778764
 Magnitude           :                                                    1.5778764

 ------------------------------------------------------------------------------------

*** tstop() called on Joses-MacBook-Pro-2.local at Thu Jul 17 11:51:20 2025
Module time:
	user time   =      16.00 seconds =       0.27 minutes
	system time =       0.78 seconds =       0.01 minutes
	total time  =          2 seconds =       0.03 minutes
Total time:
	user time   =      16.00 seconds =       0.27 minutes
	system time =       0.78 seconds =       0.01 minutes
	total time  =          2 seconds =       0.03 minutes

*** tstart() called on Joses-MacBook-Pro-2.local
*** at Thu Jul 17 11:51:20 2025


         ------------------------------------------------------------
                                   SCF GRAD                          
                          Rob Parrish, Justin Turney,                
                       Andy Simmonett, and Alex Sokolov              
         ------------------------------------------------------------

  ==> Geometry <==

    Molecular point group: c2v
    Full point group: C_inf_v

    Geometry (in Angstrom), charge = -1, multiplicity = 5:

       Center              X                  Y                   Z               Mass       
    ------------   -----------------  -----------------  -----------------  -----------------
         SI           0.000000000000     0.000000000000     0.666647132510    27.976926534650
         CL           0.000000000000     0.000000000000    -0.533352867490    34.968852682000

  Nuclear repulsion =  104.953480116216681

  ==> Basis Set <==

  Basis Set: CC-PVDZ
    Blend: CC-PVDZ
    Number of shells: 16
    Number of basis functions: 36
    Number of Cartesian functions: 38
    Spherical Harmonics?: true
    Max angular momentum: 2

  ==> DFJKGrad: Density-Fitted SCF Gradients <==

    Gradient:                    1
    J tasked:                  Yes
    K tasked:                  Yes
    wK tasked:                  No
    OpenMP threads:              1
    Integrals threads:           1
    Memory [MiB]:              375
    Schwarz Cutoff:          1E-12
    Fitting Condition:       1E-10

   => Auxiliary Basis Set <=

  Basis Set: (CC-PVDZ AUX)
    Blend: CC-PVDZ-JKFIT
    Number of shells: 72
    Number of basis functions: 224
    Number of Cartesian functions: 260
    Spherical Harmonics?: true
    Max angular momentum: 3

  ==> DFT Potential <==

   => LibXC <=

    Version 6.2.2
    S. Lehtola, C. Steigemann, M. J.T. Oliveira, and M. A.L. Marques.,  SoftwareX 7, 1–5 (2018) (10.1016/j.softx.2017.11.002)

   => Composite Functional: B3LYP <= 

    B3LYP Hyb-GGA Exchange-Correlation Functional

    P. J. Stephens, F. J. Devlin, C. F. Chabalowski, and M. J. Frisch.,  J. Phys. Chem. 98, 11623 (1994) (10.1021/j100096a001)

    Deriv               =              1
    GGA                 =           TRUE
    Meta                =          FALSE

    Exchange Hybrid     =           TRUE
    MP2 Hybrid          =          FALSE

   => Exchange Functionals <=

    0.0800   Slater exchange
    0.7200         Becke 88

   => Exact (HF) Exchange <=

    0.2000               HF 

   => Correlation Functionals <=

    0.1900   Vosko, Wilk & Nusair (VWN5_RPA)
    0.8100   Lee, Yang & Parr

   => LibXC Density Thresholds  <==

    XC_HYB_GGA_XC_B3LYP:  1.00E-15 

   => Molecular Quadrature <=

    Radial Scheme          =       TREUTLER
    Pruning Scheme         =           NONE
    Nuclear Scheme         =       TREUTLER

    Blocking Scheme        =         OCTREE
    BS radius alpha        =              1
    Pruning alpha          =              1
    Radial Points          =             75
    Spherical Points       =            302
    Total Points           =          41465
    Total Blocks           =            389
    Max Points             =            249
    Max Functions          =             36
    Weights Tolerance      =       1.00E-15


  -Total Gradient:
     Atom            X                  Y                   Z
    ------   -----------------  -----------------  -----------------
       1       -0.000000000000     0.000000000000    -2.910293965628
       2        0.000000000000    -0.000000000000     2.910286204283


*** tstop() called on Joses-MacBook-Pro-2.local at Thu Jul 17 11:51:20 2025
Module time:
	user time   =       2.45 seconds =       0.04 minutes
	system time =       0.86 seconds =       0.01 minutes
	total time  =          0 seconds =       0.00 minutes
Total time:
	user time   =      18.47 seconds =       0.31 minutes
	system time =       1.64 seconds =       0.03 minutes
	total time  =          2 seconds =       0.03 minutes

    			-----------------------------------------

    			 OPTKING 3.0: for geometry optimizations 

    			     By R.A. King, Bethel University     

    			        with contributions from          

    			    A.V. Copan, J. Cayton, A. Heide      

    			-----------------------------------------

    
	                            ===> Fragment 1 <== 

	 Z (Atomic Numbers)          Masses                          Geom                  
	      14.000000            27.976927          0.00000000  0.00000000  1.25978050   
	      17.000000            34.968853          0.00000000  0.00000000 -1.00789085   

	 - Coordinate -           - BOHR/RAD -       - ANG/DEG -
	 R(1,2)           =         2.267671           1.200000


	        --- Internal Coordinate Step in ANG or DEG, aJ/ANG or AJ/DEG ---
	-------------------------------------------------------------------------------
	           Coordinate      Previous         Force          Change          New 
	           ----------      --------        ------          ------        ------
	               R(1,2)       1.20000       23.97707        0.00707       1.20707
	-------------------------------------------------------------------------------

	                                 ==> Convergence Check <==                                  
    
	Measures of convergence in internal coordinates in au.
    
	Criteria marked as inactive (o), active & met (*), and active & unmet ( ).

	----------------------------------------------------------------------------------------------
	   Step    Total Energy     Delta E     Max Force     RMS Force      Max Disp      RMS Disp   
	----------------------------------------------------------------------------------------------
	  Convergence Criteria     1.00e-06 *    3.00e-04 *             o    1.20e-03 *             o
	----------------------------------------------------------------------------------------------
	     1    -748.19862577   -7.48e+02      2.91e+00      2.91e+00 o    1.34e-02      1.34e-02 o  ~
	----------------------------------------------------------------------------------------------

Next Geometry in Ang 
	Fragment 1 (Ang)

	   Si   0.0000000000   0.0000000000   0.6701816333
	   Cl   0.0000000000   0.0000000000  -0.5368873683


    Structure for next step:
    Molecular point group: c2v
    Full point group: C_inf_v

    Geometry (in Angstrom), charge = -1, multiplicity = 5:

    SI           0.000000000000     0.000000000000     0.670574240544
    CL           0.000000000000     0.000000000000    -0.536494761047


Scratch directory: /tmp/
gradient() will perform analytic gradient computation.
   => Libint2 <=

    Primary   basis highest AM E, G, H:  6, 6, 3
    Auxiliary basis highest AM E, G, H:  7, 7, 4
    Onebody   basis highest AM E, G, H:  -, -, -
    Solid Harmonics ordering:            Gaussian

*** tstart() called on Joses-MacBook-Pro-2.local
*** at Thu Jul 17 11:51:20 2025

   => Loading Basis Set <=

    Name: CC-PVDZ
    Role: ORBITAL
    Keyword: BASIS
    atoms 1 entry SI         line   478 file /Users/joseantoniorodriguesromero/anaconda3/share/psi4/basis/cc-pvdz.gbs 
    atoms 2 entry CL         line   658 file /Users/joseantoniorodriguesromero/anaconda3/share/psi4/basis/cc-pvdz.gbs 


         ---------------------------------------------------------
                                   SCF
               by Justin Turney, Rob Parrish, Andy Simmonett
                          and Daniel G. A. Smith
                              UKS Reference
                        1 Threads,    500 MiB Core
         ---------------------------------------------------------

  ==> Geometry <==

    Molecular point group: c2v
    Full point group: C_inf_v

    Geometry (in Angstrom), charge = -1, multiplicity = 5:

       Center              X                  Y                   Z               Mass       
    ------------   -----------------  -----------------  -----------------  -----------------
         SI           0.000000000000     0.000000000000     0.670574240544    27.976926534650
         CL           0.000000000000     0.000000000000    -0.536494761047    34.968852682000

  Running in c2v symmetry.

  Rotational constants: A = ************  B =      0.74442  C =      0.74442 [cm^-1]
  Rotational constants: A = ************  B =  22317.12436  C =  22317.12436 [MHz]
  Nuclear repulsion =  104.338837277286117

  Charge       = -1
  Multiplicity = 5
  Electrons    = 32
  Nalpha       = 18
  Nbeta        = 14

  ==> Algorithm <==

  SCF Algorithm Type is DF.
  DIIS enabled.
  MOM disabled.
  Fractional occupation disabled.
  Guess Type is READ.
  Energy threshold   = 1.00e-08
  Density threshold  = 1.00e-08
  Integral threshold = 1.00e-12

  ==> Primary Basis <==

  Basis Set: CC-PVDZ
    Blend: CC-PVDZ
    Number of shells: 16
    Number of basis functions: 36
    Number of Cartesian functions: 38
    Spherical Harmonics?: true
    Max angular momentum: 2

  ==> DFT Potential <==

   => LibXC <=

    Version 6.2.2
    S. Lehtola, C. Steigemann, M. J.T. Oliveira, and M. A.L. Marques.,  SoftwareX 7, 1–5 (2018) (10.1016/j.softx.2017.11.002)

   => Composite Functional: B3LYP <= 

    B3LYP Hyb-GGA Exchange-Correlation Functional

    P. J. Stephens, F. J. Devlin, C. F. Chabalowski, and M. J. Frisch.,  J. Phys. Chem. 98, 11623 (1994) (10.1021/j100096a001)

    Deriv               =              1
    GGA                 =           TRUE
    Meta                =          FALSE

    Exchange Hybrid     =           TRUE
    MP2 Hybrid          =          FALSE

   => Exchange Functionals <=

    0.0800   Slater exchange
    0.7200         Becke 88

   => Exact (HF) Exchange <=

    0.2000               HF 

   => Correlation Functionals <=

    0.1900   Vosko, Wilk & Nusair (VWN5_RPA)
    0.8100   Lee, Yang & Parr

   => LibXC Density Thresholds  <==

    XC_HYB_GGA_XC_B3LYP:  1.00E-15 

   => Molecular Quadrature <=

    Radial Scheme          =       TREUTLER
    Pruning Scheme         =           NONE
    Nuclear Scheme         =       TREUTLER

    Blocking Scheme        =         OCTREE
    BS radius alpha        =              1
    Pruning alpha          =              1
    Radial Points          =             75
    Spherical Points       =            302
    Total Points           =          41466
    Total Blocks           =            389
    Max Points             =            250
    Max Functions          =             36
    Weights Tolerance      =       1.00E-15

   => Loading Basis Set <=

    Name: (CC-PVDZ AUX)
    Role: JKFIT
    Keyword: DF_BASIS_SCF
    atoms 1 entry SI         line   445 file /Users/joseantoniorodriguesromero/anaconda3/share/psi4/basis/cc-pvdz-jkfit.gbs 
    atoms 2 entry CL         line   667 file /Users/joseantoniorodriguesromero/anaconda3/share/psi4/basis/cc-pvdz-jkfit.gbs 

   => Loading Basis Set <=

    Name: CC-PVDZ
    Role: ORBITAL
    Keyword: BASIS
    atoms 1 entry SI         line   478 file /Users/joseantoniorodriguesromero/anaconda3/share/psi4/basis/cc-pvdz.gbs 
    atoms 2 entry CL         line   658 file /Users/joseantoniorodriguesromero/anaconda3/share/psi4/basis/cc-pvdz.gbs 

  Reading orbitals from file /tmp/quintet_SiCl.default.73325.180.npy, no projection.

  ==> Integral Setup <==

  DFHelper Memory: AOs need 0.003 GiB; user supplied 0.324 GiB. 
  Using in-core AOs.

  ==> MemDFJK: Density-Fitted J/K Matrices <==

    J tasked:                   Yes
    K tasked:                   Yes
    wK tasked:                   No
    OpenMP threads:               1
    Memory [MiB]:               331
    Algorithm:                 Core
    Schwarz Cutoff:           1E-12
    Mask sparsity (%):       0.0000
    Fitting Condition:        1E-10

   => Auxiliary Basis Set <=

  Basis Set: (CC-PVDZ AUX)
    Blend: CC-PVDZ-JKFIT
    Number of shells: 72
    Number of basis functions: 224
    Number of Cartesian functions: 260
    Spherical Harmonics?: true
    Max angular momentum: 3

  Cached 100.0% of DFT collocation blocks in 0.042 [GiB].

  Minimum eigenvalue in the overlap matrix is 7.1163222216E-03.
  Reciprocal condition number of the overlap matrix is 2.2679325304E-03.
    Using symmetric orthogonalization.

  ==> Pre-Iterations <==

  SCF Guess: Orbitals guess was supplied from a previous computation.

   -------------------------------------------------------
    Irrep   Nso     Nmo     Nalpha   Nbeta   Ndocc  Nsocc
   -------------------------------------------------------
     A1        18      18      10       8       8       2
     A2         2       2       0       0       0       0
     B1         8       8       4       3       3       1
     B2         8       8       4       3       3       1
   -------------------------------------------------------
    Total      36      36      18      14      14       4
   -------------------------------------------------------

  ==> Iterations <==

                           Total Energy        Delta E     RMS |[F,P]|

   @DF-UKS iter   0:  -748.23417202943313   -7.48234e+02   5.10415e-03 
   @DF-UKS iter   1:  -748.23689797701923   -2.72595e-03   5.22408e-04 DIIS/ADIIS
   @DF-UKS iter   2:  -748.23691697493518   -1.89979e-05   4.72232e-04 DIIS/ADIIS/DAMP=1%
   @DF-UKS iter   3:  -748.23781526963091   -8.98295e-04   1.31244e-05 DIIS/DAMP=1%
   @DF-UKS iter   4:  -748.23699582436097    8.19445e-04   5.35588e-06 DIIS/DAMP=1%
   @DF-UKS iter   5:  -748.23697886584603    1.69585e-05   1.95178e-06 DIIS/DAMP=1%
   @DF-UKS iter   6:  -748.23697844233311    4.23513e-07   1.50559e-07 DIIS/DAMP=1%
   @DF-UKS iter   7:  -748.23697649350345    1.94883e-06   2.89625e-08 DIIS/DAMP=1%
   @DF-UKS iter   8:  -748.23697679932741   -3.05824e-07   1.49962e-09 DIIS/DAMP=1%
   @DF-UKS iter   9:  -748.23697677703728    2.22901e-08   2.80560e-10 DIIS/DAMP=1%
   @DF-UKS iter  10:  -748.23697677513462    1.90266e-09   2.56490e-11 DIIS/DAMP=1%
  Energy and wave function converged.


  ==> Post-Iterations <==

   Electrons on quadrature grid:
      Nalpha   =   17.9999982486 ; deviation = -1.751e-06
      Nbeta    =   13.9999982810 ; deviation = -1.719e-06
      Ntotal   =   31.9999965296 ; deviation = -3.470e-06 

   @Spin Contamination Metric:   1.228356122E-03
   @S^2 Expected:                6.000000000E+00
   @S^2 Observed:                6.001228356E+00
   @S   Expected:                2.000000000E+00
   @S   Observed:                2.000000000E+00

    Orbital Energies [Eh]
    ---------------------

    Alpha Occupied:                                                       

       1A1  -101.339476     2A1   -65.948133     3A1    -9.339704  
       4A1    -7.107212     1B2    -7.076165     1B1    -7.076165  
       5A1    -5.192538     6A1    -3.581259     2B1    -3.520691  
       2B2    -3.520691     7A1    -0.795808     3B2    -0.311351  
       3B1    -0.311351     8A1    -0.308830     9A1    -0.106382  
       4B1     0.094323     4B2     0.094323    10A1     0.199762  

    Alpha Virtual:                                                        

       5B1     0.387459     5B2     0.387459    11A1     0.441825  
      12A1     0.463459     1A2     0.463460    13A1     0.511582  
       6B1     0.585335     6B2     0.585335    14A1     0.613417  
       7B2     0.794155     7B1     0.794155    15A1     0.953268  
       2A2     0.953269    16A1     0.973196     8B2     1.313088  
       8B1     1.313088    17A1     1.396351    18A1     1.840149  

    Beta Occupied:                                                        

       1A1  -101.334118     2A1   -65.940332     3A1    -9.333652  
       4A1    -7.100353     1B2    -7.069432     1B1    -7.069432  
       5A1    -5.183585     6A1    -3.566320     2B1    -3.509636  
       2B2    -3.509636     7A1    -0.770709     3B2    -0.285848  
       3B1    -0.285848     8A1    -0.266577  

    Beta Virtual:                                                         

       9A1     0.067401     4B1     0.223704     4B2     0.223704  
      10A1     0.284410     5B1     0.420057     5B2     0.420057  
      11A1     0.507997    12A1     0.524536     1A2     0.524537  
      13A1     0.536467     6B1     0.662305     6B2     0.662305  
      14A1     0.690812     7B2     0.832752     7B1     0.832752  
      15A1     0.998335     2A2     0.998335    16A1     1.000191  
       8B2     1.360135     8B1     1.360135    17A1     1.426959  
      18A1     1.875737  

    Final Occupation by Irrep:
             A1    A2    B1    B2 
    DOCC [     8,    0,    3,    3 ]
    SOCC [     2,    0,    1,    1 ]
    NA   [    10,    0,    4,    4 ]
    NB   [     8,    0,    3,    3 ]

  @DF-UKS Final Energy:  -748.23697677513462

   => Energetics <=

    Nuclear Repulsion Energy =            104.3388372772861175
    One-Electron Energy =               -1246.1879605015169545
    Two-Electron Energy =                 433.8346482055557658
    DFT Exchange-Correlation Energy =     -40.2225017564595149
    Empirical Dispersion Energy =           0.0000000000000000
    VV10 Nonlocal Energy =                  0.0000000000000000
    Total Energy =                       -748.2369767751346217

  UHF NO Occupations:
  HONO-2 :   10 A1 1.0000000
  HONO-1 :    4 B1 1.0000000
  HONO-0 :    4 B2 1.0000000
  LUNO+0 :    5 B2 0.0002691
  LUNO+1 :    5 B1 0.0002691
  LUNO+2 :   11 A1 0.0000651
  LUNO+3 :   12 A1 0.0000106


Computation Completed


Properties will be evaluated at   0.000000,   0.000000,   0.000000 [a0]

Properties computed using the SCF density matrix


 Multipole Moments:

 ------------------------------------------------------------------------------------
     Multipole            Electronic (a.u.)      Nuclear  (a.u.)        Total (a.u.)
 ------------------------------------------------------------------------------------

 L = 1.  Multiply by 2.5417464519 to convert [e a0] to [Debye]
 Dipole X            :          0.0000000            0.0000000            0.0000000
 Dipole Y            :          0.0000000            0.0000000            0.0000000
 Dipole Z            :         -2.0845149            0.5057444           -1.5787704
 Magnitude           :                                                    1.5787704

 ------------------------------------------------------------------------------------

*** tstop() called on Joses-MacBook-Pro-2.local at Thu Jul 17 11:51:21 2025
Module time:
	user time   =       8.18 seconds =       0.14 minutes
	system time =       1.60 seconds =       0.03 minutes
	total time  =          1 seconds =       0.02 minutes
Total time:
	user time   =      26.94 seconds =       0.45 minutes
	system time =       3.25 seconds =       0.05 minutes
	total time  =          3 seconds =       0.05 minutes

*** tstart() called on Joses-MacBook-Pro-2.local
*** at Thu Jul 17 11:51:21 2025


         ------------------------------------------------------------
                                   SCF GRAD                          
                          Rob Parrish, Justin Turney,                
                       Andy Simmonett, and Alex Sokolov              
         ------------------------------------------------------------

  ==> Geometry <==

    Molecular point group: c2v
    Full point group: C_inf_v

    Geometry (in Angstrom), charge = -1, multiplicity = 5:

       Center              X                  Y                   Z               Mass       
    ------------   -----------------  -----------------  -----------------  -----------------
         SI           0.000000000000     0.000000000000     0.670574240544    27.976926534650
         CL           0.000000000000     0.000000000000    -0.536494761047    34.968852682000

  Nuclear repulsion =  104.338837277286117

  ==> Basis Set <==

  Basis Set: CC-PVDZ
    Blend: CC-PVDZ
    Number of shells: 16
    Number of basis functions: 36
    Number of Cartesian functions: 38
    Spherical Harmonics?: true
    Max angular momentum: 2

  ==> DFJKGrad: Density-Fitted SCF Gradients <==

    Gradient:                    1
    J tasked:                  Yes
    K tasked:                  Yes
    wK tasked:                  No
    OpenMP threads:              1
    Integrals threads:           1
    Memory [MiB]:              375
    Schwarz Cutoff:          1E-12
    Fitting Condition:       1E-10

   => Auxiliary Basis Set <=

  Basis Set: (CC-PVDZ AUX)
    Blend: CC-PVDZ-JKFIT
    Number of shells: 72
    Number of basis functions: 224
    Number of Cartesian functions: 260
    Spherical Harmonics?: true
    Max angular momentum: 3

  ==> DFT Potential <==

   => LibXC <=

    Version 6.2.2
    S. Lehtola, C. Steigemann, M. J.T. Oliveira, and M. A.L. Marques.,  SoftwareX 7, 1–5 (2018) (10.1016/j.softx.2017.11.002)

   => Composite Functional: B3LYP <= 

    B3LYP Hyb-GGA Exchange-Correlation Functional

    P. J. Stephens, F. J. Devlin, C. F. Chabalowski, and M. J. Frisch.,  J. Phys. Chem. 98, 11623 (1994) (10.1021/j100096a001)

    Deriv               =              1
    GGA                 =           TRUE
    Meta                =          FALSE

    Exchange Hybrid     =           TRUE
    MP2 Hybrid          =          FALSE

   => Exchange Functionals <=

    0.0800   Slater exchange
    0.7200         Becke 88

   => Exact (HF) Exchange <=

    0.2000               HF 

   => Correlation Functionals <=

    0.1900   Vosko, Wilk & Nusair (VWN5_RPA)
    0.8100   Lee, Yang & Parr

   => LibXC Density Thresholds  <==

    XC_HYB_GGA_XC_B3LYP:  1.00E-15 

   => Molecular Quadrature <=

    Radial Scheme          =       TREUTLER
    Pruning Scheme         =           NONE
    Nuclear Scheme         =       TREUTLER

    Blocking Scheme        =         OCTREE
    BS radius alpha        =              1
    Pruning alpha          =              1
    Radial Points          =             75
    Spherical Points       =            302
    Total Points           =          41466
    Total Blocks           =            389
    Max Points             =            250
    Max Functions          =             36
    Weights Tolerance      =       1.00E-15


  -Total Gradient:
     Atom            X                  Y                   Z
    ------   -----------------  -----------------  -----------------
       1        0.000000000000     0.000000000000    -2.831821241910
       2        0.000000000000     0.000000000000     2.831809998511


*** tstop() called on Joses-MacBook-Pro-2.local at Thu Jul 17 11:51:21 2025
Module time:
	user time   =       2.76 seconds =       0.05 minutes
	system time =       0.85 seconds =       0.01 minutes
	total time  =          0 seconds =       0.00 minutes
Total time:
	user time   =      29.70 seconds =       0.49 minutes
	system time =       4.10 seconds =       0.07 minutes
	total time  =          3 seconds =       0.05 minutes

    			-----------------------------------------

    			 OPTKING 3.0: for geometry optimizations 

    			     By R.A. King, Bethel University     

    			        with contributions from          

    			    A.V. Copan, J. Cayton, A. Heide      

    			-----------------------------------------

    
	                            ===> Fragment 1 <== 

	 Z (Atomic Numbers)          Masses                          Geom                  
	      14.000000            27.976927          0.00000000  0.00000000  1.26720166   
	      17.000000            34.968853          0.00000000  0.00000000 -1.01382817   

	 - Coordinate -           - BOHR/RAD -       - ANG/DEG -
	 R(1,2)           =         2.281030           1.207069


	        --- Internal Coordinate Step in ANG or DEG, aJ/ANG or AJ/DEG ---
	-------------------------------------------------------------------------------
	           Coordinate      Previous         Force          Change          New 
	           ----------      --------        ------          ------        ------
	               R(1,2)       1.20707       23.33055        0.01375       1.22082
	-------------------------------------------------------------------------------

	                                 ==> Convergence Check <==                                  
    
	Measures of convergence in internal coordinates in au.
    
	Criteria marked as inactive (o), active & met (*), and active & unmet ( ).

	----------------------------------------------------------------------------------------------
	   Step    Total Energy     Delta E     Max Force     RMS Force      Max Disp      RMS Disp   
	----------------------------------------------------------------------------------------------
	  Convergence Criteria     1.00e-06 *    3.00e-04 *             o    1.20e-03 *             o
	----------------------------------------------------------------------------------------------
	     2    -748.23697678   -3.84e-02      2.83e+00      2.83e+00 o    2.60e-02      2.60e-02 o  ~
	----------------------------------------------------------------------------------------------

Next Geometry in Ang 
	Fragment 1 (Ang)

	   Si   0.0000000000   0.0000000000   0.6774492131
	   Cl   0.0000000000   0.0000000000  -0.5433697336


    Structure for next step:
    Molecular point group: c2v
    Full point group: C_inf_v

    Geometry (in Angstrom), charge = -1, multiplicity = 5:

    SI           0.000000000000     0.000000000000     0.678212875069
    CL           0.000000000000     0.000000000000    -0.542606071558


Scratch directory: /tmp/
gradient() will perform analytic gradient computation.
   => Libint2 <=

    Primary   basis highest AM E, G, H:  6, 6, 3
    Auxiliary basis highest AM E, G, H:  7, 7, 4
    Onebody   basis highest AM E, G, H:  -, -, -
    Solid Harmonics ordering:            Gaussian

*** tstart() called on Joses-MacBook-Pro-2.local
*** at Thu Jul 17 11:51:21 2025

   => Loading Basis Set <=

    Name: CC-PVDZ
    Role: ORBITAL
    Keyword: BASIS
    atoms 1 entry SI         line   478 file /Users/joseantoniorodriguesromero/anaconda3/share/psi4/basis/cc-pvdz.gbs 
    atoms 2 entry CL         line   658 file /Users/joseantoniorodriguesromero/anaconda3/share/psi4/basis/cc-pvdz.gbs 


         ---------------------------------------------------------
                                   SCF
               by Justin Turney, Rob Parrish, Andy Simmonett
                          and Daniel G. A. Smith
                              UKS Reference
                        1 Threads,    500 MiB Core
         ---------------------------------------------------------

  ==> Geometry <==

    Molecular point group: c2v
    Full point group: C_inf_v

    Geometry (in Angstrom), charge = -1, multiplicity = 5:

       Center              X                  Y                   Z               Mass       
    ------------   -----------------  -----------------  -----------------  -----------------
         SI           0.000000000000     0.000000000000     0.678212875069    27.976926534650
         CL           0.000000000000     0.000000000000    -0.542606071558    34.968852682000

  Running in c2v symmetry.

  Rotational constants: A = ************  B =      0.72774  C =      0.72774 [cm^-1]
  Rotational constants: A = ************  B =  21817.24487  C =  21817.24487 [MHz]
  Nuclear repulsion =  103.163680812377137

  Charge       = -1
  Multiplicity = 5
  Electrons    = 32
  Nalpha       = 18
  Nbeta        = 14

  ==> Algorithm <==

  SCF Algorithm Type is DF.
  DIIS enabled.
  MOM disabled.
  Fractional occupation disabled.
  Guess Type is READ.
  Energy threshold   = 1.00e-08
  Density threshold  = 1.00e-08
  Integral threshold = 1.00e-12

  ==> Primary Basis <==

  Basis Set: CC-PVDZ
    Blend: CC-PVDZ
    Number of shells: 16
    Number of basis functions: 36
    Number of Cartesian functions: 38
    Spherical Harmonics?: true
    Max angular momentum: 2

  ==> DFT Potential <==

   => LibXC <=

    Version 6.2.2
    S. Lehtola, C. Steigemann, M. J.T. Oliveira, and M. A.L. Marques.,  SoftwareX 7, 1–5 (2018) (10.1016/j.softx.2017.11.002)

   => Composite Functional: B3LYP <= 

    B3LYP Hyb-GGA Exchange-Correlation Functional

    P. J. Stephens, F. J. Devlin, C. F. Chabalowski, and M. J. Frisch.,  J. Phys. Chem. 98, 11623 (1994) (10.1021/j100096a001)

    Deriv               =              1
    GGA                 =           TRUE
    Meta                =          FALSE

    Exchange Hybrid     =           TRUE
    MP2 Hybrid          =          FALSE

   => Exchange Functionals <=

    0.0800   Slater exchange
    0.7200         Becke 88

   => Exact (HF) Exchange <=

    0.2000               HF 

   => Correlation Functionals <=

    0.1900   Vosko, Wilk & Nusair (VWN5_RPA)
    0.8100   Lee, Yang & Parr

   => LibXC Density Thresholds  <==

    XC_HYB_GGA_XC_B3LYP:  1.00E-15 

   => Molecular Quadrature <=

    Radial Scheme          =       TREUTLER
    Pruning Scheme         =           NONE
    Nuclear Scheme         =       TREUTLER

    Blocking Scheme        =         OCTREE
    BS radius alpha        =              1
    Pruning alpha          =              1
    Radial Points          =             75
    Spherical Points       =            302
    Total Points           =          41466
    Total Blocks           =            389
    Max Points             =            248
    Max Functions          =             36
    Weights Tolerance      =       1.00E-15

   => Loading Basis Set <=

    Name: (CC-PVDZ AUX)
    Role: JKFIT
    Keyword: DF_BASIS_SCF
    atoms 1 entry SI         line   445 file /Users/joseantoniorodriguesromero/anaconda3/share/psi4/basis/cc-pvdz-jkfit.gbs 
    atoms 2 entry CL         line   667 file /Users/joseantoniorodriguesromero/anaconda3/share/psi4/basis/cc-pvdz-jkfit.gbs 

   => Loading Basis Set <=

    Name: CC-PVDZ
    Role: ORBITAL
    Keyword: BASIS
    atoms 1 entry SI         line   478 file /Users/joseantoniorodriguesromero/anaconda3/share/psi4/basis/cc-pvdz.gbs 
    atoms 2 entry CL         line   658 file /Users/joseantoniorodriguesromero/anaconda3/share/psi4/basis/cc-pvdz.gbs 

  Reading orbitals from file /tmp/quintet_SiCl.default.73325.180.npy, no projection.

  ==> Integral Setup <==

  DFHelper Memory: AOs need 0.003 GiB; user supplied 0.324 GiB. 
  Using in-core AOs.

  ==> MemDFJK: Density-Fitted J/K Matrices <==

    J tasked:                   Yes
    K tasked:                   Yes
    wK tasked:                   No
    OpenMP threads:               1
    Memory [MiB]:               331
    Algorithm:                 Core
    Schwarz Cutoff:           1E-12
    Mask sparsity (%):       0.0000
    Fitting Condition:        1E-10

   => Auxiliary Basis Set <=

  Basis Set: (CC-PVDZ AUX)
    Blend: CC-PVDZ-JKFIT
    Number of shells: 72
    Number of basis functions: 224
    Number of Cartesian functions: 260
    Spherical Harmonics?: true
    Max angular momentum: 3

  Cached 100.0% of DFT collocation blocks in 0.042 [GiB].

  Minimum eigenvalue in the overlap matrix is 7.3558932832E-03.
  Reciprocal condition number of the overlap matrix is 2.3450852767E-03.
    Using symmetric orthogonalization.

  ==> Pre-Iterations <==

  SCF Guess: Orbitals guess was supplied from a previous computation.

   -------------------------------------------------------
    Irrep   Nso     Nmo     Nalpha   Nbeta   Ndocc  Nsocc
   -------------------------------------------------------
     A1        18      18      10       8       8       2
     A2         2       2       0       0       0       0
     B1         8       8       4       3       3       1
     B2         8       8       4       3       3       1
   -------------------------------------------------------
    Total      36      36      18      14      14       4
   -------------------------------------------------------

  ==> Iterations <==

                           Total Energy        Delta E     RMS |[F,P]|

   @DF-UKS iter   0:  -748.30439354299938   -7.48304e+02   9.77427e-03 
   @DF-UKS iter   1:  -748.30833068045251   -3.93714e-03   1.00966e-03 DIIS/ADIIS
   @DF-UKS iter   2:  -748.30840226290718   -7.15825e-05   9.08662e-04 DIIS/ADIIS/DAMP=1%
   @DF-UKS iter   3:  -748.31022723309036   -1.82497e-03   2.59035e-05 DIIS/DAMP=1%
   @DF-UKS iter   4:  -748.30866148299526    1.56575e-03   1.06526e-05 DIIS/DAMP=1%
   @DF-UKS iter   5:  -748.30862839620352    3.30868e-05   3.64836e-06 DIIS/DAMP=1%
   @DF-UKS iter   6:  -748.30862815613568    2.40068e-07   2.95362e-07 DIIS/DAMP=1%
   @DF-UKS iter   7:  -748.30862430488287    3.85125e-06   5.58319e-08 DIIS/DAMP=1%
   @DF-UKS iter   8:  -748.30862490534651   -6.00464e-07   2.92379e-09 DIIS/DAMP=1%
   @DF-UKS iter   9:  -748.30862486087904    4.44675e-08   5.58259e-10 DIIS/DAMP=1%
   @DF-UKS iter  10:  -748.30862485679381    4.08522e-09   5.14589e-11 DIIS/DAMP=1%
  Energy and wave function converged.


  ==> Post-Iterations <==

   Electrons on quadrature grid:
      Nalpha   =   17.9999983292 ; deviation = -1.671e-06
      Nbeta    =   13.9999983492 ; deviation = -1.651e-06
      Ntotal   =   31.9999966783 ; deviation = -3.322e-06 

   @Spin Contamination Metric:   1.240205185E-03
   @S^2 Expected:                6.000000000E+00
   @S^2 Observed:                6.001240205E+00
   @S   Expected:                2.000000000E+00
   @S   Observed:                2.000000000E+00

    Orbital Energies [Eh]
    ---------------------

    Alpha Occupied:                                                       

       1A1  -101.335579     2A1   -65.944441     3A1    -9.332972  
       4A1    -7.099718     1B1    -7.070551     1B2    -7.070551  
       5A1    -5.184002     6A1    -3.571560     2B2    -3.514297  
       2B1    -3.514297     7A1    -0.794626     8A1    -0.310300  
       3B2    -0.306298     3B1    -0.306298     9A1    -0.108001  
       4B2     0.093355     4B1     0.093355    10A1     0.199732  

    Alpha Virtual:                                                        

       5B2     0.389462     5B1     0.389462    11A1     0.441784  
      12A1     0.466615     1A2     0.466616    13A1     0.509974  
       6B1     0.585323     6B2     0.585323    14A1     0.610544  
       7B1     0.792516     7B2     0.792516    15A1     0.952380  
       2A2     0.952381    16A1     0.971129     8B2     1.310660  
       8B1     1.310660    17A1     1.386971    18A1     1.830535  

    Beta Occupied:                                                        

       1A1  -101.330293     2A1   -65.936600     3A1    -9.327003  
       4A1    -7.092967     1B1    -7.063882     1B2    -7.063882  
       5A1    -5.174941     6A1    -3.556842     2B2    -3.503096  
       2B1    -3.503096     7A1    -0.769724     3B2    -0.280692  
       3B1    -0.280692     8A1    -0.268486  

    Beta Virtual:                                                         

       9A1     0.066396     4B2     0.222931     4B1     0.222931  
      10A1     0.284626     5B2     0.422113     5B1     0.422113  
      11A1     0.507683    12A1     0.528652     1A2     0.528652  
      13A1     0.534650     6B1     0.662645     6B2     0.662645  
      14A1     0.688375     7B1     0.830690     7B2     0.830690  
      15A1     0.996954     2A2     0.996954    16A1     0.998092  
       8B2     1.357633     8B1     1.357633    17A1     1.417495  
      18A1     1.866195  

    Final Occupation by Irrep:
             A1    A2    B1    B2 
    DOCC [     8,    0,    3,    3 ]
    SOCC [     2,    0,    1,    1 ]
    NA   [    10,    0,    4,    4 ]
    NB   [     8,    0,    3,    3 ]

  @DF-UKS Final Energy:  -748.30862485679381

   => Energetics <=

    Nuclear Repulsion Energy =            103.1636808123771374
    One-Electron Energy =               -1244.1337505881624566
    Two-Electron Energy =                 432.8703943391926146
    DFT Exchange-Correlation Energy =     -40.2089494202010727
    Empirical Dispersion Energy =           0.0000000000000000
    VV10 Nonlocal Energy =                  0.0000000000000000
    Total Energy =                       -748.3086248567936991

  UHF NO Occupations:
  HONO-2 :    9 A1 1.0000000
  HONO-1 :    4 B1 1.0000000
  HONO-0 :   10 A1 1.0000000
  LUNO+0 :    5 B1 0.0002723
  LUNO+1 :    5 B2 0.0002723
  LUNO+2 :   11 A1 0.0000648
  LUNO+3 :   12 A1 0.0000104


Computation Completed


Properties will be evaluated at   0.000000,   0.000000,   0.000000 [a0]

Properties computed using the SCF density matrix


 Multipole Moments:

 ------------------------------------------------------------------------------------
     Multipole            Electronic (a.u.)      Nuclear  (a.u.)        Total (a.u.)
 ------------------------------------------------------------------------------------

 L = 1.  Multiply by 2.5417464519 to convert [e a0] to [Debye]
 Dipole X            :          0.0000000            0.0000000            0.0000000
 Dipole Y            :          0.0000000            0.0000000            0.0000000
 Dipole Z            :         -2.0918116            0.5115055           -1.5803062
 Magnitude           :                                                    1.5803062

 ------------------------------------------------------------------------------------

*** tstop() called on Joses-MacBook-Pro-2.local at Thu Jul 17 11:51:22 2025
Module time:
	user time   =       8.15 seconds =       0.14 minutes
	system time =       1.85 seconds =       0.03 minutes
	total time  =          1 seconds =       0.02 minutes
Total time:
	user time   =      38.05 seconds =       0.63 minutes
	system time =       6.04 seconds =       0.10 minutes
	total time  =          4 seconds =       0.07 minutes

*** tstart() called on Joses-MacBook-Pro-2.local
*** at Thu Jul 17 11:51:22 2025


         ------------------------------------------------------------
                                   SCF GRAD                          
                          Rob Parrish, Justin Turney,                
                       Andy Simmonett, and Alex Sokolov              
         ------------------------------------------------------------

  ==> Geometry <==

    Molecular point group: c2v
    Full point group: C_inf_v

    Geometry (in Angstrom), charge = -1, multiplicity = 5:

       Center              X                  Y                   Z               Mass       
    ------------   -----------------  -----------------  -----------------  -----------------
         SI           0.000000000000     0.000000000000     0.678212875069    27.976926534650
         CL           0.000000000000     0.000000000000    -0.542606071558    34.968852682000

  Nuclear repulsion =  103.163680812377137

  ==> Basis Set <==

  Basis Set: CC-PVDZ
    Blend: CC-PVDZ
    Number of shells: 16
    Number of basis functions: 36
    Number of Cartesian functions: 38
    Spherical Harmonics?: true
    Max angular momentum: 2

  ==> DFJKGrad: Density-Fitted SCF Gradients <==

    Gradient:                    1
    J tasked:                  Yes
    K tasked:                  Yes
    wK tasked:                  No
    OpenMP threads:              1
    Integrals threads:           1
    Memory [MiB]:              375
    Schwarz Cutoff:          1E-12
    Fitting Condition:       1E-10

   => Auxiliary Basis Set <=

  Basis Set: (CC-PVDZ AUX)
    Blend: CC-PVDZ-JKFIT
    Number of shells: 72
    Number of basis functions: 224
    Number of Cartesian functions: 260
    Spherical Harmonics?: true
    Max angular momentum: 3

  ==> DFT Potential <==

   => LibXC <=

    Version 6.2.2
    S. Lehtola, C. Steigemann, M. J.T. Oliveira, and M. A.L. Marques.,  SoftwareX 7, 1–5 (2018) (10.1016/j.softx.2017.11.002)

   => Composite Functional: B3LYP <= 

    B3LYP Hyb-GGA Exchange-Correlation Functional

    P. J. Stephens, F. J. Devlin, C. F. Chabalowski, and M. J. Frisch.,  J. Phys. Chem. 98, 11623 (1994) (10.1021/j100096a001)

    Deriv               =              1
    GGA                 =           TRUE
    Meta                =          FALSE

    Exchange Hybrid     =           TRUE
    MP2 Hybrid          =          FALSE

   => Exchange Functionals <=

    0.0800   Slater exchange
    0.7200         Becke 88

   => Exact (HF) Exchange <=

    0.2000               HF 

   => Correlation Functionals <=

    0.1900   Vosko, Wilk & Nusair (VWN5_RPA)
    0.8100   Lee, Yang & Parr

   => LibXC Density Thresholds  <==

    XC_HYB_GGA_XC_B3LYP:  1.00E-15 

   => Molecular Quadrature <=

    Radial Scheme          =       TREUTLER
    Pruning Scheme         =           NONE
    Nuclear Scheme         =       TREUTLER

    Blocking Scheme        =         OCTREE
    BS radius alpha        =              1
    Pruning alpha          =              1
    Radial Points          =             75
    Spherical Points       =            302
    Total Points           =          41466
    Total Blocks           =            389
    Max Points             =            248
    Max Functions          =             36
    Weights Tolerance      =       1.00E-15


  -Total Gradient:
     Atom            X                  Y                   Z
    ------   -----------------  -----------------  -----------------
       1        0.000000000000     0.000000000000    -2.684139406478
       2       -0.000000000000     0.000000000000     2.684120907989


*** tstop() called on Joses-MacBook-Pro-2.local at Thu Jul 17 11:51:22 2025
Module time:
	user time   =       2.57 seconds =       0.04 minutes
	system time =       0.50 seconds =       0.01 minutes
	total time  =          0 seconds =       0.00 minutes
Total time:
	user time   =      40.62 seconds =       0.68 minutes
	system time =       6.55 seconds =       0.11 minutes
	total time  =          4 seconds =       0.07 minutes

    			-----------------------------------------

    			 OPTKING 3.0: for geometry optimizations 

    			     By R.A. King, Bethel University     

    			        with contributions from          

    			    A.V. Copan, J. Cayton, A. Heide      

    			-----------------------------------------

    
	                            ===> Fragment 1 <== 

	 Z (Atomic Numbers)          Masses                          Geom                  
	      14.000000            27.976927          0.00000000  0.00000000  1.28163659   
	      17.000000            34.968853          0.00000000  0.00000000 -1.02537687   

	 - Coordinate -           - BOHR/RAD -       - ANG/DEG -
	 R(1,2)           =         2.307013           1.220819


	        --- Internal Coordinate Step in ANG or DEG, aJ/ANG or AJ/DEG ---
	-------------------------------------------------------------------------------
	           Coordinate      Previous         Force          Change          New 
	           ----------      --------        ------          ------        ------
	               R(1,2)       1.22082       22.11381        0.05167       1.27249
	-------------------------------------------------------------------------------

	                                 ==> Convergence Check <==                                  
    
	Measures of convergence in internal coordinates in au.
    
	Criteria marked as inactive (o), active & met (*), and active & unmet ( ).

	----------------------------------------------------------------------------------------------
	   Step    Total Energy     Delta E     Max Force     RMS Force      Max Disp      RMS Disp   
	----------------------------------------------------------------------------------------------
	  Convergence Criteria     1.00e-06 *    3.00e-04 *             o    1.20e-03 *             o
	----------------------------------------------------------------------------------------------
	     3    -748.30862486   -7.16e-02      2.68e+00      2.68e+00 o    9.76e-02      9.76e-02 o  ~
	----------------------------------------------------------------------------------------------

Next Geometry in Ang 
	Fragment 1 (Ang)

	   Si   0.0000000000   0.0000000000   0.7040475237
	   Cl   0.0000000000   0.0000000000  -0.5684407202


    Structure for next step:
    Molecular point group: c2v
    Full point group: C_inf_v

    Geometry (in Angstrom), charge = -1, multiplicity = 5:

    SI           0.000000000000     0.000000000000     0.706917199122
    CL           0.000000000000     0.000000000000    -0.565571044774


Scratch directory: /tmp/
gradient() will perform analytic gradient computation.
   => Libint2 <=

    Primary   basis highest AM E, G, H:  6, 6, 3
    Auxiliary basis highest AM E, G, H:  7, 7, 4
    Onebody   basis highest AM E, G, H:  -, -, -
    Solid Harmonics ordering:            Gaussian

*** tstart() called on Joses-MacBook-Pro-2.local
*** at Thu Jul 17 11:51:22 2025

   => Loading Basis Set <=

    Name: CC-PVDZ
    Role: ORBITAL
    Keyword: BASIS
    atoms 1 entry SI         line   478 file /Users/joseantoniorodriguesromero/anaconda3/share/psi4/basis/cc-pvdz.gbs 
    atoms 2 entry CL         line   658 file /Users/joseantoniorodriguesromero/anaconda3/share/psi4/basis/cc-pvdz.gbs 


         ---------------------------------------------------------
                                   SCF
               by Justin Turney, Rob Parrish, Andy Simmonett
                          and Daniel G. A. Smith
                              UKS Reference
                        1 Threads,    500 MiB Core
         ---------------------------------------------------------

  ==> Geometry <==

    Molecular point group: c2v
    Full point group: C_inf_v

    Geometry (in Angstrom), charge = -1, multiplicity = 5:

       Center              X                  Y                   Z               Mass       
    ------------   -----------------  -----------------  -----------------  -----------------
         SI           0.000000000000     0.000000000000     0.706917199122    27.976926534650
         CL           0.000000000000     0.000000000000    -0.565571044774    34.968852682000

  Running in c2v symmetry.

  Rotational constants: A = ************  B =      0.66984  C =      0.66984 [cm^-1]
  Rotational constants: A = ************  B =  20081.44084  C =  20081.44084 [MHz]
  Nuclear repulsion =   98.974726677154848

  Charge       = -1
  Multiplicity = 5
  Electrons    = 32
  Nalpha       = 18
  Nbeta        = 14

  ==> Algorithm <==

  SCF Algorithm Type is DF.
  DIIS enabled.
  MOM disabled.
  Fractional occupation disabled.
  Guess Type is READ.
  Energy threshold   = 1.00e-08
  Density threshold  = 1.00e-08
  Integral threshold = 1.00e-12

  ==> Primary Basis <==

  Basis Set: CC-PVDZ
    Blend: CC-PVDZ
    Number of shells: 16
    Number of basis functions: 36
    Number of Cartesian functions: 38
    Spherical Harmonics?: true
    Max angular momentum: 2

  ==> DFT Potential <==

   => LibXC <=

    Version 6.2.2
    S. Lehtola, C. Steigemann, M. J.T. Oliveira, and M. A.L. Marques.,  SoftwareX 7, 1–5 (2018) (10.1016/j.softx.2017.11.002)

   => Composite Functional: B3LYP <= 

    B3LYP Hyb-GGA Exchange-Correlation Functional

    P. J. Stephens, F. J. Devlin, C. F. Chabalowski, and M. J. Frisch.,  J. Phys. Chem. 98, 11623 (1994) (10.1021/j100096a001)

    Deriv               =              1
    GGA                 =           TRUE
    Meta                =          FALSE

    Exchange Hybrid     =           TRUE
    MP2 Hybrid          =          FALSE

   => Exchange Functionals <=

    0.0800   Slater exchange
    0.7200         Becke 88

   => Exact (HF) Exchange <=

    0.2000               HF 

   => Correlation Functionals <=

    0.1900   Vosko, Wilk & Nusair (VWN5_RPA)
    0.8100   Lee, Yang & Parr

   => LibXC Density Thresholds  <==

    XC_HYB_GGA_XC_B3LYP:  1.00E-15 

   => Molecular Quadrature <=

    Radial Scheme          =       TREUTLER
    Pruning Scheme         =           NONE
    Nuclear Scheme         =       TREUTLER

    Blocking Scheme        =         OCTREE
    BS radius alpha        =              1
    Pruning alpha          =              1
    Radial Points          =             75
    Spherical Points       =            302
    Total Points           =          41474
    Total Blocks           =            388
    Max Points             =            251
    Max Functions          =             36
    Weights Tolerance      =       1.00E-15

   => Loading Basis Set <=

    Name: (CC-PVDZ AUX)
    Role: JKFIT
    Keyword: DF_BASIS_SCF
    atoms 1 entry SI         line   445 file /Users/joseantoniorodriguesromero/anaconda3/share/psi4/basis/cc-pvdz-jkfit.gbs 
    atoms 2 entry CL         line   667 file /Users/joseantoniorodriguesromero/anaconda3/share/psi4/basis/cc-pvdz-jkfit.gbs 

   => Loading Basis Set <=

    Name: CC-PVDZ
    Role: ORBITAL
    Keyword: BASIS
    atoms 1 entry SI         line   478 file /Users/joseantoniorodriguesromero/anaconda3/share/psi4/basis/cc-pvdz.gbs 
    atoms 2 entry CL         line   658 file /Users/joseantoniorodriguesromero/anaconda3/share/psi4/basis/cc-pvdz.gbs 

  Reading orbitals from file /tmp/quintet_SiCl.default.73325.180.npy, no projection.

  ==> Integral Setup <==

  DFHelper Memory: AOs need 0.003 GiB; user supplied 0.324 GiB. 
  Using in-core AOs.

  ==> MemDFJK: Density-Fitted J/K Matrices <==

    J tasked:                   Yes
    K tasked:                   Yes
    wK tasked:                   No
    OpenMP threads:               1
    Memory [MiB]:               331
    Algorithm:                 Core
    Schwarz Cutoff:           1E-12
    Mask sparsity (%):       0.0000
    Fitting Condition:        1E-10

   => Auxiliary Basis Set <=

  Basis Set: (CC-PVDZ AUX)
    Blend: CC-PVDZ-JKFIT
    Number of shells: 72
    Number of basis functions: 224
    Number of Cartesian functions: 260
    Spherical Harmonics?: true
    Max angular momentum: 3

  Cached 100.0% of DFT collocation blocks in 0.042 [GiB].

  Minimum eigenvalue in the overlap matrix is 8.2976993375E-03.
  Reciprocal condition number of the overlap matrix is 2.6494478976E-03.
    Using symmetric orthogonalization.

  ==> Pre-Iterations <==

  SCF Guess: Orbitals guess was supplied from a previous computation.

   -------------------------------------------------------
    Irrep   Nso     Nmo     Nalpha   Nbeta   Ndocc  Nsocc
   -------------------------------------------------------
     A1        18      18      10       8       8       2
     A2         2       2       0       0       0       0
     B1         8       8       4       3       3       1
     B2         8       8       4       3       3       1
   -------------------------------------------------------
    Total      36      36      18      14      14       4
   -------------------------------------------------------

  ==> Iterations <==

                           Total Energy        Delta E     RMS |[F,P]|

   @DF-UKS iter   0:  -748.55075917883846   -7.48551e+02   3.52107e-02 
   @DF-UKS iter   1:  -748.54153598214430    9.22320e-03   3.78139e-03 DIIS/ADIIS
   @DF-UKS iter   2:  -748.54259946852653   -1.06349e-03   3.33957e-03 DIIS/ADIIS/DAMP=1%
   @DF-UKS iter   3:  -748.55140187758980   -8.80241e-03   1.09423e-04 DIIS/ADIIS/DAMP=1%
   @DF-UKS iter   4:  -748.54581063983517    5.59124e-03   4.48633e-05 DIIS/DAMP=1%
   @DF-UKS iter   5:  -748.54567398438394    1.36655e-04   1.23517e-05 DIIS/DAMP=1%
   @DF-UKS iter   6:  -748.54567977291060   -5.78853e-06   1.08433e-06 DIIS/DAMP=1%
   @DF-UKS iter   7:  -748.54566564573815    1.41272e-05   2.02570e-07 DIIS/DAMP=1%
   @DF-UKS iter   8:  -748.54566762976253   -1.98402e-06   1.14577e-08 DIIS/DAMP=1%
   @DF-UKS iter   9:  -748.54566748537763    1.44385e-07   2.06234e-09 DIIS/DAMP=1%
   @DF-UKS iter  10:  -748.54566747180434    1.35733e-08   2.17437e-10 DIIS/DAMP=1%
   @DF-UKS iter  11:  -748.54566747429965   -2.49531e-09   2.74164e-11 DIIS/DAMP=1%
  Energy and wave function converged.


  ==> Post-Iterations <==

   Electrons on quadrature grid:
      Nalpha   =   17.9999991251 ; deviation = -8.749e-07
      Nbeta    =   13.9999990926 ; deviation = -9.074e-07
      Ntotal   =   31.9999982178 ; deviation = -1.782e-06 

   @Spin Contamination Metric:   1.263093125E-03
   @S^2 Expected:                6.000000000E+00
   @S^2 Observed:                6.001263093E+00
   @S   Expected:                2.000000000E+00
   @S   Observed:                2.000000000E+00

    Orbital Energies [Eh]
    ---------------------

    Alpha Occupied:                                                       

       1A1  -101.325980     2A1   -65.935772     3A1    -9.312949  
       4A1    -7.077279     1B1    -7.054121     1B2    -7.054121  
       5A1    -5.158219     6A1    -3.541291     2B1    -3.495325  
       2B2    -3.495325     7A1    -0.789157     8A1    -0.315143  
       3B1    -0.288730     3B2    -0.288730     9A1    -0.113322  
       4B2     0.089381     4B1     0.089381    10A1     0.199757  

    Alpha Virtual:                                                        

       5B1     0.396955     5B2     0.396955    11A1     0.441239  
      12A1     0.477556     1A2     0.477558    13A1     0.505437  
       6B2     0.584770     6B1     0.584770    14A1     0.599498  
       7B2     0.786339     7B1     0.786339    15A1     0.948859  
       2A2     0.948861    16A1     0.965274     8B1     1.299436  
       8B2     1.299436    17A1     1.353785    18A1     1.799973  

    Beta Occupied:                                                        

       1A1  -101.320943     2A1   -65.927769     3A1    -9.307267  
       4A1    -7.070893     1B1    -7.047682     1B2    -7.047682  
       5A1    -5.148751     6A1    -3.527332     2B1    -3.483590  
       2B2    -3.483590     7A1    -0.764879     8A1    -0.274662  
       3B1    -0.262769     3B2    -0.262769  

    Beta Virtual:                                                         

       9A1     0.062902     4B2     0.219659     4B1     0.219659  
      10A1     0.285591     5B1     0.429904     5B2     0.429904  
      11A1     0.505384    12A1     0.529966    13A1     0.543157  
       1A2     0.543158     6B2     0.663233     6B1     0.663233  
      14A1     0.678700     7B2     0.822834     7B1     0.822834  
      15A1     0.991502     2A2     0.991503    16A1     0.992120  
       8B1     1.345998     8B2     1.345998    17A1     1.384365  
      18A1     1.835533  

    Final Occupation by Irrep:
             A1    A2    B1    B2 
    DOCC [     8,    0,    3,    3 ]
    SOCC [     2,    0,    1,    1 ]
    NA   [    10,    0,    4,    4 ]
    NB   [     8,    0,    3,    3 ]

  @DF-UKS Final Energy:  -748.54566747429965

   => Energetics <=

    Nuclear Repulsion Energy =             98.9747266771548482
    One-Electron Energy =               -1236.6959773190556007
    Two-Electron Energy =                 429.3340913751163725
    DFT Exchange-Correlation Energy =     -40.1585082075152826
    Empirical Dispersion Energy =           0.0000000000000000
    VV10 Nonlocal Energy =                  0.0000000000000000
    Total Energy =                       -748.5456674742996483

  UHF NO Occupations:
  HONO-2 :    4 B1 1.0000000
  HONO-1 :    9 A1 1.0000000
  HONO-0 :   10 A1 1.0000000
  LUNO+0 :    5 B1 0.0002788
  LUNO+1 :    5 B2 0.0002788
  LUNO+2 :   11 A1 0.0000642
  LUNO+3 :   12 A1 0.0000094


Computation Completed


Properties will be evaluated at   0.000000,   0.000000,   0.000000 [a0]

Properties computed using the SCF density matrix


 Multipole Moments:

 ------------------------------------------------------------------------------------
     Multipole            Electronic (a.u.)      Nuclear  (a.u.)        Total (a.u.)
 ------------------------------------------------------------------------------------

 L = 1.  Multiply by 2.5417464519 to convert [e a0] to [Debye]
 Dipole X            :          0.0000000            0.0000000            0.0000000
 Dipole Y            :          0.0000000            0.0000000            0.0000000
 Dipole Z            :         -2.1173139            0.5331542           -1.5841598
 Magnitude           :                                                    1.5841598

 ------------------------------------------------------------------------------------

*** tstop() called on Joses-MacBook-Pro-2.local at Thu Jul 17 11:51:23 2025
Module time:
	user time   =       8.84 seconds =       0.15 minutes
	system time =       1.42 seconds =       0.02 minutes
	total time  =          1 seconds =       0.02 minutes
Total time:
	user time   =      49.69 seconds =       0.83 minutes
	system time =       7.97 seconds =       0.13 minutes
	total time  =          5 seconds =       0.08 minutes

*** tstart() called on Joses-MacBook-Pro-2.local
*** at Thu Jul 17 11:51:23 2025


         ------------------------------------------------------------
                                   SCF GRAD                          
                          Rob Parrish, Justin Turney,                
                       Andy Simmonett, and Alex Sokolov              
         ------------------------------------------------------------

  ==> Geometry <==

    Molecular point group: c2v
    Full point group: C_inf_v

    Geometry (in Angstrom), charge = -1, multiplicity = 5:

       Center              X                  Y                   Z               Mass       
    ------------   -----------------  -----------------  -----------------  -----------------
         SI           0.000000000000     0.000000000000     0.706917199122    27.976926534650
         CL           0.000000000000     0.000000000000    -0.565571044774    34.968852682000

  Nuclear repulsion =   98.974726677154848

  ==> Basis Set <==

  Basis Set: CC-PVDZ
    Blend: CC-PVDZ
    Number of shells: 16
    Number of basis functions: 36
    Number of Cartesian functions: 38
    Spherical Harmonics?: true
    Max angular momentum: 2

  ==> DFJKGrad: Density-Fitted SCF Gradients <==

    Gradient:                    1
    J tasked:                  Yes
    K tasked:                  Yes
    wK tasked:                  No
    OpenMP threads:              1
    Integrals threads:           1
    Memory [MiB]:              375
    Schwarz Cutoff:          1E-12
    Fitting Condition:       1E-10

   => Auxiliary Basis Set <=

  Basis Set: (CC-PVDZ AUX)
    Blend: CC-PVDZ-JKFIT
    Number of shells: 72
    Number of basis functions: 224
    Number of Cartesian functions: 260
    Spherical Harmonics?: true
    Max angular momentum: 3

  ==> DFT Potential <==

   => LibXC <=

    Version 6.2.2
    S. Lehtola, C. Steigemann, M. J.T. Oliveira, and M. A.L. Marques.,  SoftwareX 7, 1–5 (2018) (10.1016/j.softx.2017.11.002)

   => Composite Functional: B3LYP <= 

    B3LYP Hyb-GGA Exchange-Correlation Functional

    P. J. Stephens, F. J. Devlin, C. F. Chabalowski, and M. J. Frisch.,  J. Phys. Chem. 98, 11623 (1994) (10.1021/j100096a001)

    Deriv               =              1
    GGA                 =           TRUE
    Meta                =          FALSE

    Exchange Hybrid     =           TRUE
    MP2 Hybrid          =          FALSE

   => Exchange Functionals <=

    0.0800   Slater exchange
    0.7200         Becke 88

   => Exact (HF) Exchange <=

    0.2000               HF 

   => Correlation Functionals <=

    0.1900   Vosko, Wilk & Nusair (VWN5_RPA)
    0.8100   Lee, Yang & Parr

   => LibXC Density Thresholds  <==

    XC_HYB_GGA_XC_B3LYP:  1.00E-15 

   => Molecular Quadrature <=

    Radial Scheme          =       TREUTLER
    Pruning Scheme         =           NONE
    Nuclear Scheme         =       TREUTLER

    Blocking Scheme        =         OCTREE
    BS radius alpha        =              1
    Pruning alpha          =              1
    Radial Points          =             75
    Spherical Points       =            302
    Total Points           =          41474
    Total Blocks           =            388
    Max Points             =            251
    Max Functions          =             36
    Weights Tolerance      =       1.00E-15


  -Total Gradient:
     Atom            X                  Y                   Z
    ------   -----------------  -----------------  -----------------
       1        0.000000000000    -0.000000000000    -2.185894479346
       2       -0.000000000000     0.000000000000     2.185845290713


*** tstop() called on Joses-MacBook-Pro-2.local at Thu Jul 17 11:51:24 2025
Module time:
	user time   =       2.18 seconds =       0.04 minutes
	system time =       1.11 seconds =       0.02 minutes
	total time  =          1 seconds =       0.02 minutes
Total time:
	user time   =      51.87 seconds =       0.86 minutes
	system time =       9.09 seconds =       0.15 minutes
	total time  =          6 seconds =       0.10 minutes

    			-----------------------------------------

    			 OPTKING 3.0: for geometry optimizations 

    			     By R.A. King, Bethel University     

    			        with contributions from          

    			    A.V. Copan, J. Cayton, A. Heide      

    			-----------------------------------------

    
	                            ===> Fragment 1 <== 

	 Z (Atomic Numbers)          Masses                          Geom                  
	      14.000000            27.976927          0.00000000  0.00000000  1.33587990   
	      17.000000            34.968853          0.00000000  0.00000000 -1.06877438   

	 - Coordinate -           - BOHR/RAD -       - ANG/DEG -
	 R(1,2)           =         2.404654           1.272488


	        --- Internal Coordinate Step in ANG or DEG, aJ/ANG or AJ/DEG ---
	-------------------------------------------------------------------------------
	           Coordinate      Previous         Force          Change          New 
	           ----------      --------        ------          ------        ------
	               R(1,2)       1.27249       18.00878        0.19041       1.46290
	-------------------------------------------------------------------------------

	                                 ==> Convergence Check <==                                  
    
	Measures of convergence in internal coordinates in au.
    
	Criteria marked as inactive (o), active & met (*), and active & unmet ( ).

	----------------------------------------------------------------------------------------------
	   Step    Total Energy     Delta E     Max Force     RMS Force      Max Disp      RMS Disp   
	----------------------------------------------------------------------------------------------
	  Convergence Criteria     1.00e-06 *    3.00e-04 *             o    1.20e-03 *             o
	----------------------------------------------------------------------------------------------
	     4    -748.54566747   -2.37e-01      2.19e+00      2.19e+00 o    3.60e-01      3.60e-01 o  ~
	----------------------------------------------------------------------------------------------

Next Geometry in Ang 
	Fragment 1 (Ang)

	   Si   0.0000000000   0.0000000000   0.8021212055
	   Cl   0.0000000000   0.0000000000  -0.6607750512


    Structure for next step:
    Molecular point group: c2v
    Full point group: C_inf_v

    Geometry (in Angstrom), charge = -1, multiplicity = 5:

    SI           0.000000000000     0.000000000000     0.812696328906
    CL           0.000000000000     0.000000000000    -0.650199927791


Scratch directory: /tmp/
gradient() will perform analytic gradient computation.
   => Libint2 <=

    Primary   basis highest AM E, G, H:  6, 6, 3
    Auxiliary basis highest AM E, G, H:  7, 7, 4
    Onebody   basis highest AM E, G, H:  -, -, -
    Solid Harmonics ordering:            Gaussian

*** tstart() called on Joses-MacBook-Pro-2.local
*** at Thu Jul 17 11:51:24 2025

   => Loading Basis Set <=

    Name: CC-PVDZ
    Role: ORBITAL
    Keyword: BASIS
    atoms 1 entry SI         line   478 file /Users/joseantoniorodriguesromero/anaconda3/share/psi4/basis/cc-pvdz.gbs 
    atoms 2 entry CL         line   658 file /Users/joseantoniorodriguesromero/anaconda3/share/psi4/basis/cc-pvdz.gbs 


         ---------------------------------------------------------
                                   SCF
               by Justin Turney, Rob Parrish, Andy Simmonett
                          and Daniel G. A. Smith
                              UKS Reference
                        1 Threads,    500 MiB Core
         ---------------------------------------------------------

  ==> Geometry <==

    Molecular point group: c2v
    Full point group: C_inf_v

    Geometry (in Angstrom), charge = -1, multiplicity = 5:

       Center              X                  Y                   Z               Mass       
    ------------   -----------------  -----------------  -----------------  -----------------
         SI           0.000000000000     0.000000000000     0.812696328906    27.976926534650
         CL           0.000000000000     0.000000000000    -0.650199927791    34.968852682000

  Running in c2v symmetry.

  Rotational constants: A = ************  B =      0.50682  C =      0.50682 [cm^-1]
  Rotational constants: A = ************  B =  15194.11364  C =  15194.11364 [MHz]
  Nuclear repulsion =   86.092349722578817

  Charge       = -1
  Multiplicity = 5
  Electrons    = 32
  Nalpha       = 18
  Nbeta        = 14

  ==> Algorithm <==

  SCF Algorithm Type is DF.
  DIIS enabled.
  MOM disabled.
  Fractional occupation disabled.
[...]
	   Step    Total Energy     Delta E     Max Force     RMS Force      Max Disp      RMS Disp   
	----------------------------------------------------------------------------------------------
	  Convergence Criteria     1.00e-06 *    3.00e-04 *             o    1.20e-03 *             o
	----------------------------------------------------------------------------------------------
	    19    -749.58746981   -1.19e-06      3.41e-05 *    3.41e-05 o    8.58e-03      8.58e-03 o  ~
	----------------------------------------------------------------------------------------------

Next Geometry in Ang 
	Fragment 1 (Ang)

	   Si   0.0000000000   0.0000000000   1.9954708827
	   Cl   0.0000000000   0.0000000000  -1.5969360686


    Structure for next step:
    Molecular point group: c2v
    Full point group: C_inf_v

    Geometry (in Angstrom), charge = -1, multiplicity = 5:

    SI           0.000000000000     0.000000000000     1.995723160775
    CL           0.000000000000     0.000000000000    -1.596683790579


Scratch directory: /tmp/
gradient() will perform analytic gradient computation.
   => Libint2 <=

    Primary   basis highest AM E, G, H:  6, 6, 3
    Auxiliary basis highest AM E, G, H:  7, 7, 4
    Onebody   basis highest AM E, G, H:  -, -, -
    Solid Harmonics ordering:            Gaussian

*** tstart() called on Joses-MacBook-Pro-2.local
*** at Thu Jul 17 11:51:44 2025

   => Loading Basis Set <=

    Name: CC-PVDZ
    Role: ORBITAL
    Keyword: BASIS
    atoms 1 entry SI         line   478 file /Users/joseantoniorodriguesromero/anaconda3/share/psi4/basis/cc-pvdz.gbs 
    atoms 2 entry CL         line   658 file /Users/joseantoniorodriguesromero/anaconda3/share/psi4/basis/cc-pvdz.gbs 


         ---------------------------------------------------------
                                   SCF
               by Justin Turney, Rob Parrish, Andy Simmonett
                          and Daniel G. A. Smith
                              UKS Reference
                        1 Threads,    500 MiB Core
         ---------------------------------------------------------

  ==> Geometry <==

    Molecular point group: c2v
    Full point group: C_inf_v

    Geometry (in Angstrom), charge = -1, multiplicity = 5:

       Center              X                  Y                   Z               Mass       
    ------------   -----------------  -----------------  -----------------  -----------------
         SI           0.000000000000     0.000000000000     1.995723160775    27.976926534650
         CL           0.000000000000     0.000000000000    -1.596683790579    34.968852682000

  Running in c2v symmetry.

  Rotational constants: A = ************  B =      0.08404  C =      0.08404 [cm^-1]
  Rotational constants: A = ************  B =   2519.59868  C =   2519.59868 [MHz]
  Nuclear repulsion =   35.058437934480565

  Charge       = -1
  Multiplicity = 5
  Electrons    = 32
  Nalpha       = 18
  Nbeta        = 14

  ==> Algorithm <==

  SCF Algorithm Type is DF.
  DIIS enabled.
  MOM disabled.
  Fractional occupation disabled.
  Guess Type is READ.
  Energy threshold   = 1.00e-08
  Density threshold  = 1.00e-08
  Integral threshold = 1.00e-12

  ==> Primary Basis <==

  Basis Set: CC-PVDZ
    Blend: CC-PVDZ
    Number of shells: 16
    Number of basis functions: 36
    Number of Cartesian functions: 38
    Spherical Harmonics?: true
    Max angular momentum: 2

  ==> DFT Potential <==

   => LibXC <=

    Version 6.2.2
    S. Lehtola, C. Steigemann, M. J.T. Oliveira, and M. A.L. Marques.,  SoftwareX 7, 1–5 (2018) (10.1016/j.softx.2017.11.002)

   => Composite Functional: B3LYP <= 

    B3LYP Hyb-GGA Exchange-Correlation Functional

    P. J. Stephens, F. J. Devlin, C. F. Chabalowski, and M. J. Frisch.,  J. Phys. Chem. 98, 11623 (1994) (10.1021/j100096a001)

    Deriv               =              1
    GGA                 =           TRUE
    Meta                =          FALSE

    Exchange Hybrid     =           TRUE
    MP2 Hybrid          =          FALSE

   => Exchange Functionals <=

    0.0800   Slater exchange
    0.7200         Becke 88

   => Exact (HF) Exchange <=

    0.2000               HF 

   => Correlation Functionals <=

    0.1900   Vosko, Wilk & Nusair (VWN5_RPA)
    0.8100   Lee, Yang & Parr

   => LibXC Density Thresholds  <==

    XC_HYB_GGA_XC_B3LYP:  1.00E-15 

   => Molecular Quadrature <=

    Radial Scheme          =       TREUTLER
    Pruning Scheme         =           NONE
    Nuclear Scheme         =       TREUTLER

    Blocking Scheme        =         OCTREE
    BS radius alpha        =              1
    Pruning alpha          =              1
    Radial Points          =             75
    Spherical Points       =            302
    Total Points           =          41752
    Total Blocks           =            395
    Max Points             =            254
    Max Functions          =             36
    Weights Tolerance      =       1.00E-15

   => Loading Basis Set <=

    Name: (CC-PVDZ AUX)
    Role: JKFIT
    Keyword: DF_BASIS_SCF
    atoms 1 entry SI         line   445 file /Users/joseantoniorodriguesromero/anaconda3/share/psi4/basis/cc-pvdz-jkfit.gbs 
    atoms 2 entry CL         line   667 file /Users/joseantoniorodriguesromero/anaconda3/share/psi4/basis/cc-pvdz-jkfit.gbs 

   => Loading Basis Set <=

    Name: CC-PVDZ
    Role: ORBITAL
    Keyword: BASIS
    atoms 1 entry SI         line   478 file /Users/joseantoniorodriguesromero/anaconda3/share/psi4/basis/cc-pvdz.gbs 
    atoms 2 entry CL         line   658 file /Users/joseantoniorodriguesromero/anaconda3/share/psi4/basis/cc-pvdz.gbs 

  Reading orbitals from file /tmp/quintet_SiCl.default.73325.180.npy, no projection.

  ==> Integral Setup <==

  DFHelper Memory: AOs need 0.003 GiB; user supplied 0.327 GiB. 
  Using in-core AOs.

  ==> MemDFJK: Density-Fitted J/K Matrices <==

    J tasked:                   Yes
    K tasked:                   Yes
    wK tasked:                   No
    OpenMP threads:               1
    Memory [MiB]:               334
    Algorithm:                 Core
    Schwarz Cutoff:           1E-12
    Mask sparsity (%):       0.0000
    Fitting Condition:        1E-10

   => Auxiliary Basis Set <=

  Basis Set: (CC-PVDZ AUX)
    Blend: CC-PVDZ-JKFIT
    Number of shells: 72
    Number of basis functions: 224
    Number of Cartesian functions: 260
    Spherical Harmonics?: true
    Max angular momentum: 3

  Cached 100.0% of DFT collocation blocks in 0.039 [GiB].

  Minimum eigenvalue in the overlap matrix is 9.4004786129E-02.
  Reciprocal condition number of the overlap matrix is 4.9208580298E-02.
    Using symmetric orthogonalization.

  ==> Pre-Iterations <==

  SCF Guess: Orbitals guess was supplied from a previous computation.

   -------------------------------------------------------
    Irrep   Nso     Nmo     Nalpha   Nbeta   Ndocc  Nsocc
   -------------------------------------------------------
     A1        18      18      10       8       8       2
     A2         2       2       0       0       0       0
     B1         8       8       4       3       3       1
     B2         8       8       4       3       3       1
   -------------------------------------------------------
    Total      36      36      18      14      14       4
   -------------------------------------------------------

  ==> Iterations <==

                           Total Energy        Delta E     RMS |[F,P]|

   @DF-UKS iter   0:  -749.58737045004284   -7.49587e+02   6.95051e-05 
   @DF-UKS iter   1:  -749.58746992990734   -9.94799e-05   6.18154e-06 DIIS
   @DF-UKS iter   2:  -749.58746989025371    3.96536e-08   1.04546e-05 DIIS/DAMP=1%
   @DF-UKS iter   3:  -749.58747735059296   -7.46034e-06   2.71890e-06 DIIS/DAMP=1%
   @DF-UKS iter   4:  -749.58746870963512    8.64096e-06   7.63274e-07 DIIS/DAMP=1%
   @DF-UKS iter   5:  -749.58746978461591   -1.07498e-06   1.75740e-07 DIIS/DAMP=1%
   @DF-UKS iter   6:  -749.58746988909536   -1.04479e-07   2.25768e-08 DIIS/DAMP=1%
   @DF-UKS iter   7:  -749.58746993333625   -4.42409e-08   3.75882e-09 DIIS/DAMP=1%
   @DF-UKS iter   8:  -749.58746994453691   -1.12007e-08   4.81578e-10 DIIS/DAMP=1%
   @DF-UKS iter   9:  -749.58746994446801    6.88942e-11   1.32249e-10 DIIS/DAMP=1%
  Energy and wave function converged.


  ==> Post-Iterations <==

   Electrons on quadrature grid:
      Nalpha   =   17.9999999812 ; deviation = -1.880e-08
      Nbeta    =   13.9999997861 ; deviation = -2.139e-07
      Ntotal   =   31.9999997673 ; deviation = -2.327e-07 

   @Spin Contamination Metric:   1.900385461E-03
   @S^2 Expected:                6.000000000E+00
   @S^2 Observed:                6.001900385E+00
   @S   Expected:                2.000000000E+00
   @S   Observed:                2.000000000E+00

    Orbital Energies [Eh]
    ---------------------

    Alpha Occupied:                                                       

       1A1  -101.390753     2A1   -65.905933     3A1    -9.304444  
       4A1    -7.074750     1B1    -7.056049     1B2    -7.056049  
       5A1    -5.048961     2B1    -3.408678     2B2    -3.408678  
       6A1    -3.408461     7A1    -0.644137     8A1    -0.227244  
       9A1    -0.197483     3B2    -0.160527     3B1    -0.160527  
       4B1     0.034126     4B2     0.034126    10A1     0.040231  

    Alpha Virtual:                                                        

      11A1     0.446882     5B1     0.512411     5B2     0.512411  
      12A1     0.523394    13A1     0.552730     6B2     0.571344  
       6B1     0.571344    14A1     0.573666     1A2     0.573668  
      15A1     0.712822     7B2     0.717071     7B1     0.717071  
      16A1     0.832964     8B2     0.870335     8B1     0.870335  
      17A1     0.901911     2A2     0.901927    18A1     0.940082  

    Beta Occupied:                                                        

       1A1  -101.385088     2A1   -65.897199     3A1    -9.298848  
       4A1    -7.056684     1B1    -7.052605     1B2    -7.052605  
       5A1    -5.038551     2B1    -3.395316     2B2    -3.395316  
       6A1    -3.394840     7A1    -0.601285     3B2    -0.147410  
       3B1    -0.147410     8A1    -0.124169  

    Beta Virtual:                                                         

       9A1    -0.062317     4B1     0.155246     4B2     0.155246  
      10A1     0.162396    11A1     0.489345     5B1     0.560353  
       5B2     0.560353    12A1     0.569613    13A1     0.628515  
       6B2     0.650069     6B1     0.650069    14A1     0.656286  
       1A2     0.656289     7B2     0.727214     7B1     0.727214  
      15A1     0.743438    16A1     0.884584    17A1     0.909211  
       2A2     0.909226     8B2     0.916902     8B1     0.916902  
      18A1     0.981264  

    Final Occupation by Irrep:
             A1    A2    B1    B2 
    DOCC [     8,    0,    3,    3 ]
    SOCC [     2,    0,    1,    1 ]
    NA   [    10,    0,    4,    4 ]
    NB   [     8,    0,    3,    3 ]

  @DF-UKS Final Energy:  -749.58746994446801

   => Energetics <=

    Nuclear Repulsion Energy =             35.0584379344805654
    One-Electron Energy =               -1112.7245587263869311
    Two-Electron Energy =                 367.7680898169850821
    DFT Exchange-Correlation Energy =     -39.6894389695467495
    Empirical Dispersion Energy =           0.0000000000000000
    VV10 Nonlocal Energy =                  0.0000000000000000
    Total Energy =                       -749.5874699444680118

  UHF NO Occupations:
  HONO-2 :    4 B1 1.0000000
  HONO-1 :    4 B2 1.0000000
  HONO-0 :   10 A1 1.0000000
  LUNO+0 :   11 A1 0.0005324
  LUNO+1 :   12 A1 0.0003619
  LUNO+2 :    5 B1 0.0000280
  LUNO+3 :    5 B2 0.0000280


Computation Completed


Properties will be evaluated at   0.000000,   0.000000,   0.000000 [a0]

Properties computed using the SCF density matrix


 Multipole Moments:

 ------------------------------------------------------------------------------------
     Multipole            Electronic (a.u.)      Nuclear  (a.u.)        Total (a.u.)
 ------------------------------------------------------------------------------------

 L = 1.  Multiply by 2.5417464519 to convert [e a0] to [Debye]
 Dipole X            :          0.0000000            0.0000000            0.0000000
 Dipole Y            :          0.0000000            0.0000000            0.0000000
 Dipole Z            :         -3.8809168            1.5051665           -2.3757503
 Magnitude           :                                                    2.3757503

 ------------------------------------------------------------------------------------

*** tstop() called on Joses-MacBook-Pro-2.local at Thu Jul 17 11:51:45 2025
Module time:
	user time   =       6.58 seconds =       0.11 minutes
	system time =       1.81 seconds =       0.03 minutes
	total time  =          1 seconds =       0.02 minutes
Total time:
	user time   =     232.12 seconds =       3.87 minutes
	system time =      53.39 seconds =       0.89 minutes
	total time  =         27 seconds =       0.45 minutes

*** tstart() called on Joses-MacBook-Pro-2.local
*** at Thu Jul 17 11:51:45 2025


         ------------------------------------------------------------
                                   SCF GRAD                          
                          Rob Parrish, Justin Turney,                
                       Andy Simmonett, and Alex Sokolov              
         ------------------------------------------------------------

  ==> Geometry <==

    Molecular point group: c2v
    Full point group: C_inf_v

    Geometry (in Angstrom), charge = -1, multiplicity = 5:

       Center              X                  Y                   Z               Mass       
    ------------   -----------------  -----------------  -----------------  -----------------
         SI           0.000000000000     0.000000000000     1.995723160775    27.976926534650
         CL           0.000000000000     0.000000000000    -1.596683790579    34.968852682000

  Nuclear repulsion =   35.058437934480565

  ==> Basis Set <==

  Basis Set: CC-PVDZ
    Blend: CC-PVDZ
    Number of shells: 16
    Number of basis functions: 36
    Number of Cartesian functions: 38
    Spherical Harmonics?: true
    Max angular momentum: 2

  ==> DFJKGrad: Density-Fitted SCF Gradients <==

    Gradient:                    1
    J tasked:                  Yes
    K tasked:                  Yes
    wK tasked:                  No
    OpenMP threads:              1
    Integrals threads:           1
    Memory [MiB]:              375
    Schwarz Cutoff:          1E-12
    Fitting Condition:       1E-10

   => Auxiliary Basis Set <=

  Basis Set: (CC-PVDZ AUX)
    Blend: CC-PVDZ-JKFIT
    Number of shells: 72
    Number of basis functions: 224
    Number of Cartesian functions: 260
    Spherical Harmonics?: true
    Max angular momentum: 3

  ==> DFT Potential <==

   => LibXC <=

    Version 6.2.2
    S. Lehtola, C. Steigemann, M. J.T. Oliveira, and M. A.L. Marques.,  SoftwareX 7, 1–5 (2018) (10.1016/j.softx.2017.11.002)

   => Composite Functional: B3LYP <= 

    B3LYP Hyb-GGA Exchange-Correlation Functional

    P. J. Stephens, F. J. Devlin, C. F. Chabalowski, and M. J. Frisch.,  J. Phys. Chem. 98, 11623 (1994) (10.1021/j100096a001)

    Deriv               =              1
    GGA                 =           TRUE
    Meta                =          FALSE

    Exchange Hybrid     =           TRUE
    MP2 Hybrid          =          FALSE

   => Exchange Functionals <=

    0.0800   Slater exchange
    0.7200         Becke 88

   => Exact (HF) Exchange <=

    0.2000               HF 

   => Correlation Functionals <=

    0.1900   Vosko, Wilk & Nusair (VWN5_RPA)
    0.8100   Lee, Yang & Parr

   => LibXC Density Thresholds  <==

    XC_HYB_GGA_XC_B3LYP:  1.00E-15 

   => Molecular Quadrature <=

    Radial Scheme          =       TREUTLER
    Pruning Scheme         =           NONE
    Nuclear Scheme         =       TREUTLER

    Blocking Scheme        =         OCTREE
    BS radius alpha        =              1
    Pruning alpha          =              1
    Radial Points          =             75
    Spherical Points       =            302
    Total Points           =          41752
    Total Blocks           =            395
    Max Points             =            254
    Max Functions          =             36
    Weights Tolerance      =       1.00E-15


  -Total Gradient:
     Atom            X                  Y                   Z
    ------   -----------------  -----------------  -----------------
       1        0.000000000000    -0.000000000000    -0.000012743013
       2       -0.000000000000     0.000000000000     0.000014046504


*** tstop() called on Joses-MacBook-Pro-2.local at Thu Jul 17 11:51:45 2025
Module time:
	user time   =       1.95 seconds =       0.03 minutes
	system time =       1.72 seconds =       0.03 minutes
	total time  =          0 seconds =       0.00 minutes
Total time:
	user time   =     234.08 seconds =       3.90 minutes
	system time =      55.11 seconds =       0.92 minutes
	total time  =         27 seconds =       0.45 minutes

    			-----------------------------------------

    			 OPTKING 3.0: for geometry optimizations 

    			     By R.A. King, Bethel University     

    			        with contributions from          

    			    A.V. Copan, J. Cayton, A. Heide      

    			-----------------------------------------

    
	                            ===> Fragment 1 <== 

	 Z (Atomic Numbers)          Masses                          Geom                  
	      14.000000            27.976927          0.00000000  0.00000000  3.77137020   
	      17.000000            34.968853          0.00000000  0.00000000 -3.01729507   

	 - Coordinate -           - BOHR/RAD -       - ANG/DEG -
	 R(1,2)           =         6.788665           3.592407


	        --- Internal Coordinate Step in ANG or DEG, aJ/ANG or AJ/DEG ---
	-------------------------------------------------------------------------------
	           Coordinate      Previous         Force          Change          New 
	           ----------      --------        ------          ------        ------
	               R(1,2)       3.59241        0.00011        0.00228       3.59469
	-------------------------------------------------------------------------------

	                                 ==> Convergence Check <==                                  
    
	Measures of convergence in internal coordinates in au.
    
	Criteria marked as inactive (o), active & met (*), and active & unmet ( ).

	----------------------------------------------------------------------------------------------
	   Step    Total Energy     Delta E     Max Force     RMS Force      Max Disp      RMS Disp   
	----------------------------------------------------------------------------------------------
	  Convergence Criteria     1.00e-06 *    3.00e-04 *             o    1.20e-03 *             o
	----------------------------------------------------------------------------------------------
	    20    -749.58746994   -1.38e-07 *    1.34e-05 *    1.34e-05 o    4.31e-03      4.31e-03 o  ~
	----------------------------------------------------------------------------------------------

Next Geometry in Ang 
	Fragment 1 (Ang)

	   Si   0.0000000000   0.0000000000   1.9968647088
	   Cl   0.0000000000   0.0000000000  -1.5978253386


    Final optimized geometry and variables:
    Molecular point group: c2v
    Full point group: C_inf_v

    Geometry (in Angstrom), charge = -1, multiplicity = 5:

    SI           0.000000000000     0.000000000000     1.995723160775
    CL           0.000000000000     0.000000000000    -1.596683790579


    Psi4 stopped on: Thursday, 17 July 2025 11:51AM
    Psi4 wall time for execution: 0:00:27.93

*** Psi4 exiting successfully. Buy a developer a beer!
