
    -----------------------------------------------------------------------
          Psi4: An Open-Source Ab Initio Electronic Structure Package
                               Psi4 1.9.1 release

                         Git: Rev {} zzzzzzz 


    D. G. A. Smith, L. A. Burns, A. C. Simmonett, R. M. Parrish,
    M. C. Schieber, R. Galvelis, P. Kraus, H. Kruse, R. Di Remigio,
    A. Alenaizan, A. M. James, S. Lehtola, J. P. Misiewicz, M. Scheurer,
    R. A. Shaw, J. B. Schriber, Y. Xie, Z. L. Glick, D. A. Sirianni,
    J. S. O'Brien, J. M. Waldrop, A. Kumar, E. G. Hohenstein,
    B. P. Pritchard, B. R. Brooks, H. F. Schaefer III, A. Yu. Sokolov,
    K. Patkowski, A. E. DePrince III, U. Bozkaya, R. A. King,
    F. A. Evangelista, J. M. Turney, T. D. Crawford, C. D. Sherrill,
    J. Chem. Phys. 152(18) 184108 (2020). https://doi.org/10.1063/5.0006002

                            Additional Code Authors
    E. T. Seidl, C. L. Janssen, E. F. Valeev, M. L. Leininger,
    J. F. Gonthier, R. M. Richard, H. R. McAlexander, M. Saitow, X. Wang,
    P. Verma, M. H. Lechner, A. Jiang, S. Behnle, A. G. Heide,
    M. F. Herbst, and D. L. Poole

             Previous Authors, Complete List of Code Contributors,
                       and Citations for Specific Modules
    https://github.com/psi4/psi4/blob/master/codemeta.json
    https://github.com/psi4/psi4/graphs/contributors
    http://psicode.org/psi4manual/master/introduction.html#citing-psifour

    -----------------------------------------------------------------------


    Psi4 started on: Thursday, 17 July 2025 09:25AM

    Process ID: 71910
    Host:       Joses-MacBook-Pro-2.local
    PSIDATADIR: /Users/joseantoniorodriguesromero/anaconda3/share/psi4
    Memory:     500.0 MiB
    Threads:    1
    
  ==> Input File <==

--------------------------------------------------------------------------
molecule { 
-1 5
He   0.00000        0.60000        0.00000
Cl   0.00000       -0.60000        0.00000
}

set { 
basis              cc-pvdz
reference          uks
maxiter            500
geom_maxiter       500
DAMPING_PERCENTAGE 1
guess              SAP
}

optimize('b3lyp')
--------------------------------------------------------------------------

Scratch directory: /tmp/
gradient() will perform analytic gradient computation.
   => Libint2 <=

    Primary   basis highest AM E, G, H:  6, 6, 3
    Auxiliary basis highest AM E, G, H:  7, 7, 4
    Onebody   basis highest AM E, G, H:  -, -, -
    Solid Harmonics ordering:            Gaussian

*** tstart() called on Joses-MacBook-Pro-2.local
*** at Thu Jul 17 09:25:53 2025

   => Loading Basis Set <=

    Name: CC-PVDZ
    Role: ORBITAL
    Keyword: BASIS
    atoms 1 entry HE         line    32 file /Users/joseantoniorodriguesromero/anaconda3/share/psi4/basis/cc-pvdz.gbs 
    atoms 2 entry CL         line   658 file /Users/joseantoniorodriguesromero/anaconda3/share/psi4/basis/cc-pvdz.gbs 


         ---------------------------------------------------------
                                   SCF
               by Justin Turney, Rob Parrish, Andy Simmonett
                          and Daniel G. A. Smith
                              UKS Reference
                        1 Threads,    500 MiB Core
         ---------------------------------------------------------

  ==> Geometry <==

    Molecular point group: c2v
    Full point group: C_inf_v

    Geometry (in Angstrom), charge = -1, multiplicity = 5:

       Center              X                  Y                   Z               Mass       
    ------------   -----------------  -----------------  -----------------  -----------------
         HE           0.000000000000     0.000000000000     1.076752772264     4.002603254130
         CL           0.000000000000     0.000000000000    -0.123247227736    34.968852682000

  Running in c2v symmetry.

  Rotational constants: A = ************  B =      3.25954  C =      3.25954 [cm^-1]
  Rotational constants: A = ************  B =  97718.63922  C =  97718.63922 [MHz]
  Nuclear repulsion =   14.993354302316671

  Charge       = -1
  Multiplicity = 5
  Electrons    = 20
  Nalpha       = 12
  Nbeta        = 8

  ==> Algorithm <==

  SCF Algorithm Type is DF.
  DIIS enabled.
  MOM disabled.
  Fractional occupation disabled.
  Guess Type is SAP.
  Energy threshold   = 1.00e-08
  Density threshold  = 1.00e-08
  Integral threshold = 1.00e-12

  ==> Primary Basis <==

  Basis Set: CC-PVDZ
    Blend: CC-PVDZ
    Number of shells: 11
    Number of basis functions: 23
    Number of Cartesian functions: 24
    Spherical Harmonics?: true
    Max angular momentum: 2

  ==> DFT Potential <==

   => LibXC <=

    Version 6.2.2
    S. Lehtola, C. Steigemann, M. J.T. Oliveira, and M. A.L. Marques.,  SoftwareX 7, 1–5 (2018) (10.1016/j.softx.2017.11.002)

   => Composite Functional: B3LYP <= 

    B3LYP Hyb-GGA Exchange-Correlation Functional

    P. J. Stephens, F. J. Devlin, C. F. Chabalowski, and M. J. Frisch.,  J. Phys. Chem. 98, 11623 (1994) (10.1021/j100096a001)

    Deriv               =              1
    GGA                 =           TRUE
    Meta                =          FALSE

    Exchange Hybrid     =           TRUE
    MP2 Hybrid          =          FALSE

   => Exchange Functionals <=

    0.0800   Slater exchange
    0.7200         Becke 88

   => Exact (HF) Exchange <=

    0.2000               HF 

   => Correlation Functionals <=

    0.1900   Vosko, Wilk & Nusair (VWN5_RPA)
    0.8100   Lee, Yang & Parr

   => LibXC Density Thresholds  <==

    XC_HYB_GGA_XC_B3LYP:  1.00E-15 

   => Molecular Quadrature <=

    Radial Scheme          =       TREUTLER
    Pruning Scheme         =           NONE
    Nuclear Scheme         =       TREUTLER

    Blocking Scheme        =         OCTREE
    BS radius alpha        =              1
    Pruning alpha          =              1
    Radial Points          =             75
    Spherical Points       =            302
    Total Points           =          42019
    Total Blocks           =            374
    Max Points             =            256
    Max Functions          =             23
    Weights Tolerance      =       1.00E-15

   => Loading Basis Set <=

    Name: (CC-PVDZ AUX)
    Role: JKFIT
    Keyword: DF_BASIS_SCF
    atoms 1 entry HE         line    34 file /Users/joseantoniorodriguesromero/anaconda3/share/psi4/basis/def2-universal-jkfit.gbs 
    atoms 2 entry CL         line   667 file /Users/joseantoniorodriguesromero/anaconda3/share/psi4/basis/cc-pvdz-jkfit.gbs 

  ==> Integral Setup <==

  DFHelper Memory: AOs need 0.001 GiB; user supplied 0.338 GiB. 
  Using in-core AOs.

  ==> MemDFJK: Density-Fitted J/K Matrices <==

    J tasked:                   Yes
    K tasked:                   Yes
    wK tasked:                   No
    OpenMP threads:               1
    Memory [MiB]:               346
    Algorithm:                 Core
    Schwarz Cutoff:           1E-12
    Mask sparsity (%):       0.0000
    Fitting Condition:        1E-10

   => Auxiliary Basis Set <=

  Basis Set: (CC-PVDZ AUX)
    Blend: CC-PVDZ-JKFIT + DEF2-UNIVERSAL-JKFIT
    Number of shells: 45
    Number of basis functions: 135
    Number of Cartesian functions: 155
    Spherical Harmonics?: true
    Max angular momentum: 3

  Cached 100.0% of DFT collocation blocks in 0.028 [GiB].

  Minimum eigenvalue in the overlap matrix is 5.4159061111E-02.
  Reciprocal condition number of the overlap matrix is 1.9506006588E-02.
    Using symmetric orthogonalization.

  ==> Pre-Iterations <==

  SCF Guess: Superposition of Atomic Potentials (doi:10.1021/acs.jctc.8b01089).

  ==> SAP guess <==

   => Molecular Quadrature <=

    Radial Scheme          =       TREUTLER
    Pruning Scheme         =           NONE
    Nuclear Scheme         =       TREUTLER

    Blocking Scheme        =         OCTREE
    BS radius alpha        =              1
    Pruning alpha          =              1
    Radial Points          =             75
    Spherical Points       =            302
    Total Points           =          42019
    Total Blocks           =            374
    Max Points             =            256
    Max Functions          =             23
    Weights Tolerance      =       1.00E-15

   -------------------------------------------------------
    Irrep   Nso     Nmo     Nalpha   Nbeta   Ndocc  Nsocc
   -------------------------------------------------------
     A1        12      12       7       5       5       2
     A2         1       1       0       0       0       0
     B1         5       5       3       2       2       1
     B2         5       5       2       1       1       1
   -------------------------------------------------------
    Total      23      23      12       8       8       4
   -------------------------------------------------------

  ==> Iterations <==

                           Total Energy        Delta E     RMS |[F,P]|

   @DF-UKS iter   1:  -461.47200048375640   -4.61472e+02   2.42727e-02 ADIIS/DIIS
   @DF-UKS iter   2:  -461.51769003861330   -4.56896e-02   1.47755e-02 ADIIS/DIIS/DAMP=1%
   @DF-UKS iter   3:  -461.53830548133561   -2.06154e-02   3.25953e-03 ADIIS/DIIS/DAMP=1%
   @DF-UKS iter   4:  -461.54304049393977   -4.73501e-03   5.61772e-04 ADIIS/DIIS/DAMP=1%
   @DF-UKS iter   5:  -461.54409881890876   -1.05832e-03   5.40386e-05 DIIS/DAMP=1%
   @DF-UKS iter   6:  -461.54385547366519    2.43345e-04   1.19081e-05 DIIS/DAMP=1%
   @DF-UKS iter   7:  -461.54386449830315   -9.02464e-06   2.37184e-06 DIIS/DAMP=1%
   @DF-UKS iter   8:  -461.54386341675257    1.08155e-06   5.24677e-07 DIIS/DAMP=1%
   @DF-UKS iter   9:  -461.54386307574850    3.41004e-07   1.39409e-07 DIIS/DAMP=1%
   @DF-UKS iter  10:  -461.54386327881684   -2.03068e-07   3.85503e-08 DIIS/DAMP=1%
   @DF-UKS iter  11:  -461.54386325347355    2.53433e-08   2.32548e-09 DIIS/DAMP=1%
   @DF-UKS iter  12:  -461.54386326020324   -6.72969e-09   2.38596e-10 DIIS/DAMP=1%
  Energy and wave function converged.


  ==> Post-Iterations <==

   Electrons on quadrature grid:
      Nalpha   =   12.0000005671 ; deviation = 5.671e-07
      Nbeta    =    8.0000004563 ; deviation = 4.563e-07
      Ntotal   =   20.0000010234 ; deviation = 1.023e-06 

   @Spin Contamination Metric:   1.259833738E-03
   @S^2 Expected:                6.000000000E+00
   @S^2 Observed:                6.001259834E+00
   @S   Expected:                2.000000000E+00
   @S   Observed:                2.000000000E+00

    Orbital Energies [Eh]
    ---------------------

    Alpha Occupied:                                                       

       1A1  -101.131208     2A1    -9.100599     1B2    -6.867296  
       3A1    -6.862402     1B1    -6.842749     4A1    -0.809066  
       5A1    -0.408865     2B2    -0.114697     2B1    -0.058663  
       6A1     0.113655     7A1     0.614404     3B1     0.721386  

    Alpha Virtual:                                                        

       3B2     0.758045     8A1     0.832934     4B2     0.905261  
       4B1     0.956477     1A2     0.985842     9A1     0.987451  
      10A1     1.187707    11A1     1.499781     5B2     2.483369  
       5B1     2.499477    12A1     3.324237  

    Beta Occupied:                                                        

       1A1  -101.105324     2A1    -9.075114     1B2    -6.835828  
       3A1    -6.820625     1B1    -6.806080     4A1    -0.716435  
       5A1    -0.308778     2B1     0.017673  

    Beta Virtual:                                                         

       2B2     0.069961     6A1     0.297771     7A1     0.784230  
       3B2     0.839011     3B1     0.864319     8A1     0.912678  
       4B2     1.009670     4B1     1.024531     1A2     1.071957  
       9A1     1.077068    10A1     1.270019    11A1     1.576978  
       5B2     2.528190     5B1     2.538488    12A1     3.394843  

    Final Occupation by Irrep:
             A1    A2    B1    B2 
    DOCC [     5,    0,    2,    1 ]
    SOCC [     2,    0,    1,    1 ]
    NA   [     7,    0,    3,    2 ]
    NB   [     5,    0,    2,    1 ]

  @DF-UKS Final Energy:  -461.54386326020324

   => Energetics <=

    Nuclear Repulsion Energy =             14.9933543023166713
    One-Electron Energy =                -673.6189006578981662
    Two-Electron Energy =                 221.0871432943257275
    DFT Exchange-Correlation Energy =     -24.0054601989475280
    Empirical Dispersion Energy =           0.0000000000000000
    VV10 Nonlocal Energy =                  0.0000000000000000
    Total Energy =                       -461.5438632602032385

  UHF NO Occupations:
  HONO-2 :    2 B2 1.0000000
  HONO-1 :    3 B1 1.0000000
  HONO-0 :    7 A1 1.0000000
  LUNO+0 :    8 A1 0.0004111
  LUNO+1 :    4 B1 0.0001566
  LUNO+2 :    9 A1 0.0000618
  LUNO+3 :    3 B2 0.0000002


Computation Completed


Properties will be evaluated at   0.000000,   0.000000,   0.000000 [a0]

Properties computed using the SCF density matrix


 Multipole Moments:

 ------------------------------------------------------------------------------------
     Multipole            Electronic (a.u.)      Nuclear  (a.u.)        Total (a.u.)
 ------------------------------------------------------------------------------------

 L = 1.  Multiply by 2.5417464519 to convert [e a0] to [Debye]
 Dipole X            :          0.0000000            0.0000000            0.0000000
 Dipole Y            :          0.0000000            0.0000000            0.0000000
 Dipole Z            :          0.5771677            0.1101761            0.6873438
 Magnitude           :                                                    0.6873438

 ------------------------------------------------------------------------------------

*** tstop() called on Joses-MacBook-Pro-2.local at Thu Jul 17 09:25:54 2025
Module time:
	user time   =       3.42 seconds =       0.06 minutes
	system time =       4.72 seconds =       0.08 minutes
	total time  =          1 seconds =       0.02 minutes
Total time:
	user time   =       3.42 seconds =       0.06 minutes
	system time =       4.72 seconds =       0.08 minutes
	total time  =          1 seconds =       0.02 minutes

*** tstart() called on Joses-MacBook-Pro-2.local
*** at Thu Jul 17 09:25:54 2025


         ------------------------------------------------------------
                                   SCF GRAD                          
                          Rob Parrish, Justin Turney,                
                       Andy Simmonett, and Alex Sokolov              
         ------------------------------------------------------------

  ==> Geometry <==

    Molecular point group: c2v
    Full point group: C_inf_v

    Geometry (in Angstrom), charge = -1, multiplicity = 5:

       Center              X                  Y                   Z               Mass       
    ------------   -----------------  -----------------  -----------------  -----------------
         HE           0.000000000000     0.000000000000     1.076752772264     4.002603254130
         CL           0.000000000000     0.000000000000    -0.123247227736    34.968852682000

  Nuclear repulsion =   14.993354302316671

  ==> Basis Set <==

  Basis Set: CC-PVDZ
    Blend: CC-PVDZ
    Number of shells: 11
    Number of basis functions: 23
    Number of Cartesian functions: 24
    Spherical Harmonics?: true
    Max angular momentum: 2

  ==> DFJKGrad: Density-Fitted SCF Gradients <==

    Gradient:                    1
    J tasked:                  Yes
    K tasked:                  Yes
    wK tasked:                  No
    OpenMP threads:              1
    Integrals threads:           1
    Memory [MiB]:              375
    Schwarz Cutoff:          1E-12
    Fitting Condition:       1E-10

   => Auxiliary Basis Set <=

  Basis Set: (CC-PVDZ AUX)
    Blend: CC-PVDZ-JKFIT + DEF2-UNIVERSAL-JKFIT
    Number of shells: 45
    Number of basis functions: 135
    Number of Cartesian functions: 155
    Spherical Harmonics?: true
    Max angular momentum: 3

  ==> DFT Potential <==

   => LibXC <=

    Version 6.2.2
    S. Lehtola, C. Steigemann, M. J.T. Oliveira, and M. A.L. Marques.,  SoftwareX 7, 1–5 (2018) (10.1016/j.softx.2017.11.002)

   => Composite Functional: B3LYP <= 

    B3LYP Hyb-GGA Exchange-Correlation Functional

    P. J. Stephens, F. J. Devlin, C. F. Chabalowski, and M. J. Frisch.,  J. Phys. Chem. 98, 11623 (1994) (10.1021/j100096a001)

    Deriv               =              1
    GGA                 =           TRUE
    Meta                =          FALSE

    Exchange Hybrid     =           TRUE
    MP2 Hybrid          =          FALSE

   => Exchange Functionals <=

    0.0800   Slater exchange
    0.7200         Becke 88

   => Exact (HF) Exchange <=

    0.2000               HF 

   => Correlation Functionals <=

    0.1900   Vosko, Wilk & Nusair (VWN5_RPA)
    0.8100   Lee, Yang & Parr

   => LibXC Density Thresholds  <==

    XC_HYB_GGA_XC_B3LYP:  1.00E-15 

   => Molecular Quadrature <=

    Radial Scheme          =       TREUTLER
    Pruning Scheme         =           NONE
    Nuclear Scheme         =       TREUTLER

    Blocking Scheme        =         OCTREE
    BS radius alpha        =              1
    Pruning alpha          =              1
    Radial Points          =             75
    Spherical Points       =            302
    Total Points           =          42019
    Total Blocks           =            374
    Max Points             =            256
    Max Functions          =             23
    Weights Tolerance      =       1.00E-15


  -Total Gradient:
     Atom            X                  Y                   Z
    ------   -----------------  -----------------  -----------------
       1       -0.000000000000     0.000000000000    -0.330318143119
       2        0.000000000000    -0.000000000000     0.330324228129


*** tstop() called on Joses-MacBook-Pro-2.local at Thu Jul 17 09:25:54 2025
Module time:
	user time   =       0.56 seconds =       0.01 minutes
	system time =       1.24 seconds =       0.02 minutes
	total time  =          0 seconds =       0.00 minutes
Total time:
	user time   =       3.98 seconds =       0.07 minutes
	system time =       5.96 seconds =       0.10 minutes
	total time  =          1 seconds =       0.02 minutes

    			-----------------------------------------

    			 OPTKING 3.0: for geometry optimizations 

    			     By R.A. King, Bethel University     

    			        with contributions from          

    			    A.V. Copan, J. Cayton, A. Heide      

    			-----------------------------------------

    
	                            ===> Fragment 1 <== 

	 Z (Atomic Numbers)          Masses                          Geom                  
	       2.000000             4.002603          0.00000000  0.00000000  2.03476784   
	      17.000000            34.968853          0.00000000  0.00000000 -0.23290351   

	 - Coordinate -           - BOHR/RAD -       - ANG/DEG -
	 R(1,2)           =         2.267671           1.200000


	        --- Internal Coordinate Step in ANG or DEG, aJ/ANG or AJ/DEG ---
	-------------------------------------------------------------------------------
	           Coordinate      Previous         Force          Change          New 
	           ----------      --------        ------          ------        ------
	               R(1,2)       1.20000        2.72142        0.26459       1.46459
	-------------------------------------------------------------------------------

	                                 ==> Convergence Check <==                                  
    
	Measures of convergence in internal coordinates in au.
    
	Criteria marked as inactive (o), active & met (*), and active & unmet ( ).

	----------------------------------------------------------------------------------------------
	   Step    Total Energy     Delta E     Max Force     RMS Force      Max Disp      RMS Disp   
	----------------------------------------------------------------------------------------------
	  Convergence Criteria     1.00e-06 *    3.00e-04 *             o    1.20e-03 *             o
	----------------------------------------------------------------------------------------------
	     1    -461.54386326   -4.62e+02      3.30e-01      3.30e-01 o    5.00e-01      5.00e-01 o  ~
	----------------------------------------------------------------------------------------------

Next Geometry in Ang 
	Fragment 1 (Ang)

	   He   0.0000000000   0.0000000000   1.2090470997
	   Cl   0.0000000000   0.0000000000  -0.2555415552


    Structure for next step:
    Molecular point group: c2v
    Full point group: C_inf_v

    Geometry (in Angstrom), charge = -1, multiplicity = 5:

    HE           0.000000000000     0.000000000000     1.314166578670
    CL           0.000000000000     0.000000000000    -0.150422076243


Scratch directory: /tmp/
gradient() will perform analytic gradient computation.
   => Libint2 <=

    Primary   basis highest AM E, G, H:  6, 6, 3
    Auxiliary basis highest AM E, G, H:  7, 7, 4
    Onebody   basis highest AM E, G, H:  -, -, -
    Solid Harmonics ordering:            Gaussian

*** tstart() called on Joses-MacBook-Pro-2.local
*** at Thu Jul 17 09:25:54 2025

   => Loading Basis Set <=

    Name: CC-PVDZ
    Role: ORBITAL
    Keyword: BASIS
    atoms 1 entry HE         line    32 file /Users/joseantoniorodriguesromero/anaconda3/share/psi4/basis/cc-pvdz.gbs 
    atoms 2 entry CL         line   658 file /Users/joseantoniorodriguesromero/anaconda3/share/psi4/basis/cc-pvdz.gbs 


         ---------------------------------------------------------
                                   SCF
               by Justin Turney, Rob Parrish, Andy Simmonett
                          and Daniel G. A. Smith
                              UKS Reference
                        1 Threads,    500 MiB Core
         ---------------------------------------------------------

  ==> Geometry <==

    Molecular point group: c2v
    Full point group: C_inf_v

    Geometry (in Angstrom), charge = -1, multiplicity = 5:

       Center              X                  Y                   Z               Mass       
    ------------   -----------------  -----------------  -----------------  -----------------
         HE           0.000000000000     0.000000000000     1.314166578670     4.002603254130
         CL           0.000000000000     0.000000000000    -0.150422076243    34.968852682000

  Running in c2v symmetry.

  Rotational constants: A = ************  B =      2.18820  C =      2.18820 [cm^-1]
  Rotational constants: A = ************  B =  65600.71477  C =  65600.71477 [MHz]
  Nuclear repulsion =   12.284695161626436

  Charge       = -1
  Multiplicity = 5
  Electrons    = 20
  Nalpha       = 12
  Nbeta        = 8

  ==> Algorithm <==

  SCF Algorithm Type is DF.
  DIIS enabled.
  MOM disabled.
  Fractional occupation disabled.
  Guess Type is READ.
  Energy threshold   = 1.00e-08
  Density threshold  = 1.00e-08
  Integral threshold = 1.00e-12

  ==> Primary Basis <==

  Basis Set: CC-PVDZ
    Blend: CC-PVDZ
    Number of shells: 11
    Number of basis functions: 23
    Number of Cartesian functions: 24
    Spherical Harmonics?: true
    Max angular momentum: 2

  ==> DFT Potential <==

   => LibXC <=

    Version 6.2.2
    S. Lehtola, C. Steigemann, M. J.T. Oliveira, and M. A.L. Marques.,  SoftwareX 7, 1–5 (2018) (10.1016/j.softx.2017.11.002)

   => Composite Functional: B3LYP <= 

    B3LYP Hyb-GGA Exchange-Correlation Functional

    P. J. Stephens, F. J. Devlin, C. F. Chabalowski, and M. J. Frisch.,  J. Phys. Chem. 98, 11623 (1994) (10.1021/j100096a001)

    Deriv               =              1
    GGA                 =           TRUE
    Meta                =          FALSE

    Exchange Hybrid     =           TRUE
    MP2 Hybrid          =          FALSE

   => Exchange Functionals <=

    0.0800   Slater exchange
    0.7200         Becke 88

   => Exact (HF) Exchange <=

    0.2000               HF 

   => Correlation Functionals <=

    0.1900   Vosko, Wilk & Nusair (VWN5_RPA)
    0.8100   Lee, Yang & Parr

   => LibXC Density Thresholds  <==

    XC_HYB_GGA_XC_B3LYP:  1.00E-15 

   => Molecular Quadrature <=

    Radial Scheme          =       TREUTLER
    Pruning Scheme         =           NONE
    Nuclear Scheme         =       TREUTLER

    Blocking Scheme        =         OCTREE
    BS radius alpha        =              1
    Pruning alpha          =              1
    Radial Points          =             75
    Spherical Points       =            302
    Total Points           =          42065
    Total Blocks           =            378
    Max Points             =            256
    Max Functions          =             23
    Weights Tolerance      =       1.00E-15

   => Loading Basis Set <=

    Name: (CC-PVDZ AUX)
    Role: JKFIT
    Keyword: DF_BASIS_SCF
    atoms 1 entry HE         line    34 file /Users/joseantoniorodriguesromero/anaconda3/share/psi4/basis/def2-universal-jkfit.gbs 
    atoms 2 entry CL         line   667 file /Users/joseantoniorodriguesromero/anaconda3/share/psi4/basis/cc-pvdz-jkfit.gbs 

   => Loading Basis Set <=

    Name: CC-PVDZ
    Role: ORBITAL
    Keyword: BASIS
    atoms 1 entry HE         line    32 file /Users/joseantoniorodriguesromero/anaconda3/share/psi4/basis/cc-pvdz.gbs 
    atoms 2 entry CL         line   658 file /Users/joseantoniorodriguesromero/anaconda3/share/psi4/basis/cc-pvdz.gbs 

  Reading orbitals from file /tmp/quintet_HeCl.default.71910.180.npy, no projection.

  ==> Integral Setup <==

  DFHelper Memory: AOs need 0.001 GiB; user supplied 0.338 GiB. 
  Using in-core AOs.

  ==> MemDFJK: Density-Fitted J/K Matrices <==

    J tasked:                   Yes
    K tasked:                   Yes
    wK tasked:                   No
    OpenMP threads:               1
    Memory [MiB]:               346
    Algorithm:                 Core
    Schwarz Cutoff:           1E-12
    Mask sparsity (%):       0.0000
    Fitting Condition:        1E-10

   => Auxiliary Basis Set <=

  Basis Set: (CC-PVDZ AUX)
    Blend: CC-PVDZ-JKFIT + DEF2-UNIVERSAL-JKFIT
    Number of shells: 45
    Number of basis functions: 135
    Number of Cartesian functions: 155
    Spherical Harmonics?: true
    Max angular momentum: 3

  Cached 100.0% of DFT collocation blocks in 0.028 [GiB].

  Minimum eigenvalue in the overlap matrix is 7.2951297675E-02.
  Reciprocal condition number of the overlap matrix is 2.9127507075E-02.
    Using symmetric orthogonalization.

  ==> Pre-Iterations <==

  SCF Guess: Orbitals guess was supplied from a previous computation.

   -------------------------------------------------------
    Irrep   Nso     Nmo     Nalpha   Nbeta   Ndocc  Nsocc
   -------------------------------------------------------
     A1        12      12       7       5       5       2
     A2         1       1       0       0       0       0
     B1         5       5       3       2       2       1
     B2         5       5       2       1       1       1
   -------------------------------------------------------
    Total      23      23      12       8       8       4
   -------------------------------------------------------

  ==> Iterations <==

                           Total Energy        Delta E     RMS |[F,P]|

   @DF-UKS iter   0:  -461.66080368934581   -4.61661e+02   7.94011e-02 
   @DF-UKS iter   1:  -461.63739033412043    2.34134e-02   4.69080e-03 ADIIS/DIIS
   @DF-UKS iter   2:  -461.64094854647760   -3.55821e-03   2.67248e-03 ADIIS/DIIS/DAMP=1%
   @DF-UKS iter   3:  -461.64258281306695   -1.63427e-03   1.04724e-03 ADIIS/DIIS/DAMP=1%
   @DF-UKS iter   4:  -461.64235738954011    2.25424e-04   2.46541e-04 ADIIS/DIIS/DAMP=1%
   @DF-UKS iter   5:  -461.64211623125880    2.41158e-04   1.37517e-04 ADIIS/DIIS/DAMP=1%
   @DF-UKS iter   6:  -461.64223748151801   -1.21250e-04   3.01942e-05 DIIS/DAMP=1%
   @DF-UKS iter   7:  -461.64222044251153    1.70390e-05   3.24993e-06 DIIS/DAMP=1%
   @DF-UKS iter   8:  -461.64222493730853   -4.49480e-06   5.28512e-07 DIIS/DAMP=1%
   @DF-UKS iter   9:  -461.64222427299126    6.64317e-07   4.63417e-08 DIIS/DAMP=1%
   @DF-UKS iter  10:  -461.64222425166963    2.13216e-08   7.97695e-09 DIIS/DAMP=1%
   @DF-UKS iter  11:  -461.64222426250774   -1.08381e-08   1.80849e-09 DIIS/DAMP=1%
   @DF-UKS iter  12:  -461.64222426115771    1.35003e-09   3.28746e-10 DIIS/DAMP=1%
  Energy and wave function converged.


  ==> Post-Iterations <==

   Electrons on quadrature grid:
      Nalpha   =   11.9999988770 ; deviation = -1.123e-06
      Nbeta    =    7.9999990150 ; deviation = -9.850e-07
      Ntotal   =   19.9999978920 ; deviation = -2.108e-06 

   @Spin Contamination Metric:   1.491024623E-03
   @S^2 Expected:                6.000000000E+00
   @S^2 Observed:                6.001491025E+00
   @S   Expected:                2.000000000E+00
   @S   Observed:                2.000000000E+00

    Orbital Energies [Eh]
    ---------------------

    Alpha Occupied:                                                       

       1A1  -101.121410     2A1    -9.087626     1B2    -6.854929  
       3A1    -6.850977     1B1    -6.830873     4A1    -0.667070  
       5A1    -0.432964     2B2    -0.102514     2B1    -0.046929  
       6A1     0.009433     7A1     0.673019     3B1     0.727101  

    Alpha Virtual:                                                        

       3B2     0.764151     8A1     0.845818     4B2     0.935498  
       4B1     0.986810     1A2     0.994415     9A1     0.994910  
      10A1     1.132369    11A1     1.402403     5B2     2.408481  
       5B1     2.415836    12A1     2.938106  

    Beta Occupied:                                                        

       1A1  -101.094602     2A1    -9.061487     1B2    -6.823333  
       3A1    -6.803564     1B1    -6.793623     4A1    -0.587258  
       5A1    -0.330691     2B1     0.028545  

    Beta Virtual:                                                         

       2B2     0.080718     6A1     0.208292     3B2     0.844042  
       7A1     0.855654     3B1     0.869076     8A1     0.942989  
       4B2     1.056456     4B1     1.070073     1A2     1.079484  
       9A1     1.084214    10A1     1.224745    11A1     1.432736  
       5B2     2.431260     5B1     2.438580    12A1     2.981815  

    Final Occupation by Irrep:
             A1    A2    B1    B2 
    DOCC [     5,    0,    2,    1 ]
    SOCC [     2,    0,    1,    1 ]
    NA   [     7,    0,    3,    2 ]
    NB   [     5,    0,    2,    1 ]

  @DF-UKS Final Energy:  -461.64222426115771

   => Energetics <=

    Nuclear Repulsion Energy =             12.2846951616264359
    One-Electron Energy =                -668.7687509408059441
    Two-Electron Energy =                 218.8079276538574049
    DFT Exchange-Correlation Energy =     -23.9660961358356417
    Empirical Dispersion Energy =           0.0000000000000000
    VV10 Nonlocal Energy =                  0.0000000000000000
    Total Energy =                       -461.6422242611577076

  UHF NO Occupations:
  HONO-2 :    2 B2 1.0000000
  HONO-1 :    7 A1 1.0000000
  HONO-0 :    3 B1 1.0000000
  LUNO+0 :    8 A1 0.0006511
  LUNO+1 :    9 A1 0.0000574
  LUNO+2 :    4 B1 0.0000370
  LUNO+3 :   10 A1 0.0000002


Computation Completed


Properties will be evaluated at   0.000000,   0.000000,   0.000000 [a0]

Properties computed using the SCF density matrix


 Multipole Moments:

 ------------------------------------------------------------------------------------
     Multipole            Electronic (a.u.)      Nuclear  (a.u.)        Total (a.u.)
 ------------------------------------------------------------------------------------

 L = 1.  Multiply by 2.5417464519 to convert [e a0] to [Debye]
 Dipole X            :          0.0000000            0.0000000            0.0000000
 Dipole Y            :          0.0000000            0.0000000            0.0000000
 Dipole Z            :          0.9582141            0.1344689            1.0926829
 Magnitude           :                                                    1.0926829

 ------------------------------------------------------------------------------------

*** tstop() called on Joses-MacBook-Pro-2.local at Thu Jul 17 09:25:55 2025
Module time:
	user time   =       3.91 seconds =       0.07 minutes
	system time =       4.06 seconds =       0.07 minutes
	total time  =          1 seconds =       0.02 minutes
Total time:
	user time   =       7.92 seconds =       0.13 minutes
	system time =      10.22 seconds =       0.17 minutes
	total time  =          2 seconds =       0.03 minutes

*** tstart() called on Joses-MacBook-Pro-2.local
*** at Thu Jul 17 09:25:55 2025


         ------------------------------------------------------------
                                   SCF GRAD                          
                          Rob Parrish, Justin Turney,                
                       Andy Simmonett, and Alex Sokolov              
         ------------------------------------------------------------

  ==> Geometry <==

    Molecular point group: c2v
    Full point group: C_inf_v

    Geometry (in Angstrom), charge = -1, multiplicity = 5:

       Center              X                  Y                   Z               Mass       
    ------------   -----------------  -----------------  -----------------  -----------------
         HE           0.000000000000     0.000000000000     1.314166578670     4.002603254130
         CL           0.000000000000     0.000000000000    -0.150422076243    34.968852682000

  Nuclear repulsion =   12.284695161626436

  ==> Basis Set <==

  Basis Set: CC-PVDZ
    Blend: CC-PVDZ
    Number of shells: 11
    Number of basis functions: 23
    Number of Cartesian functions: 24
    Spherical Harmonics?: true
    Max angular momentum: 2

  ==> DFJKGrad: Density-Fitted SCF Gradients <==

    Gradient:                    1
    J tasked:                  Yes
    K tasked:                  Yes
    wK tasked:                  No
    OpenMP threads:              1
    Integrals threads:           1
    Memory [MiB]:              375
    Schwarz Cutoff:          1E-12
    Fitting Condition:       1E-10

   => Auxiliary Basis Set <=

  Basis Set: (CC-PVDZ AUX)
    Blend: CC-PVDZ-JKFIT + DEF2-UNIVERSAL-JKFIT
    Number of shells: 45
    Number of basis functions: 135
    Number of Cartesian functions: 155
    Spherical Harmonics?: true
    Max angular momentum: 3

  ==> DFT Potential <==

   => LibXC <=

    Version 6.2.2
    S. Lehtola, C. Steigemann, M. J.T. Oliveira, and M. A.L. Marques.,  SoftwareX 7, 1–5 (2018) (10.1016/j.softx.2017.11.002)

   => Composite Functional: B3LYP <= 

    B3LYP Hyb-GGA Exchange-Correlation Functional

    P. J. Stephens, F. J. Devlin, C. F. Chabalowski, and M. J. Frisch.,  J. Phys. Chem. 98, 11623 (1994) (10.1021/j100096a001)

    Deriv               =              1
    GGA                 =           TRUE
    Meta                =          FALSE

    Exchange Hybrid     =           TRUE
    MP2 Hybrid          =          FALSE

   => Exchange Functionals <=

    0.0800   Slater exchange
    0.7200         Becke 88

   => Exact (HF) Exchange <=

    0.2000               HF 

   => Correlation Functionals <=

    0.1900   Vosko, Wilk & Nusair (VWN5_RPA)
    0.8100   Lee, Yang & Parr

   => LibXC Density Thresholds  <==

    XC_HYB_GGA_XC_B3LYP:  1.00E-15 

   => Molecular Quadrature <=

    Radial Scheme          =       TREUTLER
    Pruning Scheme         =           NONE
    Nuclear Scheme         =       TREUTLER

    Blocking Scheme        =         OCTREE
    BS radius alpha        =              1
    Pruning alpha          =              1
    Radial Points          =             75
    Spherical Points       =            302
    Total Points           =          42065
    Total Blocks           =            378
    Max Points             =            256
    Max Functions          =             23
    Weights Tolerance      =       1.00E-15


  -Total Gradient:
     Atom            X                  Y                   Z
    ------   -----------------  -----------------  -----------------
       1        0.000000000000    -0.000000000000    -0.108336954951
       2       -0.000000000000     0.000000000000     0.108319862817


*** tstop() called on Joses-MacBook-Pro-2.local at Thu Jul 17 09:25:55 2025
Module time:
	user time   =       0.59 seconds =       0.01 minutes
	system time =       1.09 seconds =       0.02 minutes
	total time  =          0 seconds =       0.00 minutes
Total time:
	user time   =       8.51 seconds =       0.14 minutes
	system time =      11.32 seconds =       0.19 minutes
	total time  =          2 seconds =       0.03 minutes

    			-----------------------------------------

    			 OPTKING 3.0: for geometry optimizations 

    			     By R.A. King, Bethel University     

    			        with contributions from          

    			    A.V. Copan, J. Cayton, A. Heide      

    			-----------------------------------------

    
	                            ===> Fragment 1 <== 

	 Z (Atomic Numbers)          Masses                          Geom                  
	       2.000000             4.002603          0.00000000  0.00000000  2.48341492   
	      17.000000            34.968853          0.00000000  0.00000000 -0.28425653   

	 - Coordinate -           - BOHR/RAD -       - ANG/DEG -
	 R(1,2)           =         2.767671           1.464589


	        --- Internal Coordinate Step in ANG or DEG, aJ/ANG or AJ/DEG ---
	-------------------------------------------------------------------------------
	           Coordinate      Previous         Force          Change          New 
	           ----------      --------        ------          ------        ------
	               R(1,2)       1.46459        0.89249        0.12223       1.58681
	-------------------------------------------------------------------------------

	                                 ==> Convergence Check <==                                  
    
	Measures of convergence in internal coordinates in au.
    
	Criteria marked as inactive (o), active & met (*), and active & unmet ( ).

	----------------------------------------------------------------------------------------------
	   Step    Total Energy     Delta E     Max Force     RMS Force      Max Disp      RMS Disp   
	----------------------------------------------------------------------------------------------
	  Convergence Criteria     1.00e-06 *    3.00e-04 *             o    1.20e-03 *             o
	----------------------------------------------------------------------------------------------
	     2    -461.64222426   -9.84e-02      1.08e-01      1.08e-01 o    2.31e-01      2.31e-01 o  ~
	----------------------------------------------------------------------------------------------

Next Geometry in Ang 
	Fragment 1 (Ang)

	   He   0.0000000000   0.0000000000   1.3752797196
	   Cl   0.0000000000   0.0000000000  -0.2115352172


    Structure for next step:
    Molecular point group: c2v
    Full point group: C_inf_v

    Geometry (in Angstrom), charge = -1, multiplicity = 5:

    HE           0.000000000000     0.000000000000     1.423839485171
    CL           0.000000000000     0.000000000000    -0.162975451569


Scratch directory: /tmp/
gradient() will perform analytic gradient computation.
   => Libint2 <=

    Primary   basis highest AM E, G, H:  6, 6, 3
    Auxiliary basis highest AM E, G, H:  7, 7, 4
    Onebody   basis highest AM E, G, H:  -, -, -
    Solid Harmonics ordering:            Gaussian

*** tstart() called on Joses-MacBook-Pro-2.local
*** at Thu Jul 17 09:25:55 2025

   => Loading Basis Set <=

    Name: CC-PVDZ
    Role: ORBITAL
    Keyword: BASIS
    atoms 1 entry HE         line    32 file /Users/joseantoniorodriguesromero/anaconda3/share/psi4/basis/cc-pvdz.gbs 
    atoms 2 entry CL         line   658 file /Users/joseantoniorodriguesromero/anaconda3/share/psi4/basis/cc-pvdz.gbs 


         ---------------------------------------------------------
                                   SCF
               by Justin Turney, Rob Parrish, Andy Simmonett
                          and Daniel G. A. Smith
                              UKS Reference
                        1 Threads,    500 MiB Core
         ---------------------------------------------------------

  ==> Geometry <==

    Molecular point group: c2v
    Full point group: C_inf_v

    Geometry (in Angstrom), charge = -1, multiplicity = 5:

       Center              X                  Y                   Z               Mass       
    ------------   -----------------  -----------------  -----------------  -----------------
         HE           0.000000000000     0.000000000000     1.423839485171     4.002603254130
         CL           0.000000000000     0.000000000000    -0.162975451569    34.968852682000

  Running in c2v symmetry.

  Rotational constants: A = ************  B =      1.86409  C =      1.86409 [cm^-1]
  Rotational constants: A = ************  B =  55883.98186  C =  55883.98186 [MHz]
  Nuclear repulsion =   11.338452106927448

  Charge       = -1
  Multiplicity = 5
  Electrons    = 20
  Nalpha       = 12
  Nbeta        = 8

  ==> Algorithm <==

  SCF Algorithm Type is DF.
  DIIS enabled.
  MOM disabled.
  Fractional occupation disabled.
  Guess Type is READ.
  Energy threshold   = 1.00e-08
  Density threshold  = 1.00e-08
  Integral threshold = 1.00e-12

  ==> Primary Basis <==

  Basis Set: CC-PVDZ
    Blend: CC-PVDZ
    Number of shells: 11
    Number of basis functions: 23
    Number of Cartesian functions: 24
    Spherical Harmonics?: true
    Max angular momentum: 2

  ==> DFT Potential <==

   => LibXC <=

    Version 6.2.2
    S. Lehtola, C. Steigemann, M. J.T. Oliveira, and M. A.L. Marques.,  SoftwareX 7, 1–5 (2018) (10.1016/j.softx.2017.11.002)

   => Composite Functional: B3LYP <= 

    B3LYP Hyb-GGA Exchange-Correlation Functional

    P. J. Stephens, F. J. Devlin, C. F. Chabalowski, and M. J. Frisch.,  J. Phys. Chem. 98, 11623 (1994) (10.1021/j100096a001)

    Deriv               =              1
    GGA                 =           TRUE
    Meta                =          FALSE

    Exchange Hybrid     =           TRUE
    MP2 Hybrid          =          FALSE

   => Exchange Functionals <=

    0.0800   Slater exchange
    0.7200         Becke 88

   => Exact (HF) Exchange <=

    0.2000               HF 

   => Correlation Functionals <=

    0.1900   Vosko, Wilk & Nusair (VWN5_RPA)
    0.8100   Lee, Yang & Parr

   => LibXC Density Thresholds  <==

    XC_HYB_GGA_XC_B3LYP:  1.00E-15 

   => Molecular Quadrature <=

    Radial Scheme          =       TREUTLER
    Pruning Scheme         =           NONE
    Nuclear Scheme         =       TREUTLER

    Blocking Scheme        =         OCTREE
    BS radius alpha        =              1
    Pruning alpha          =              1
    Radial Points          =             75
    Spherical Points       =            302
    Total Points           =          42087
    Total Blocks           =            374
    Max Points             =            256
    Max Functions          =             23
    Weights Tolerance      =       1.00E-15

   => Loading Basis Set <=

    Name: (CC-PVDZ AUX)
    Role: JKFIT
    Keyword: DF_BASIS_SCF
    atoms 1 entry HE         line    34 file /Users/joseantoniorodriguesromero/anaconda3/share/psi4/basis/def2-universal-jkfit.gbs 
    atoms 2 entry CL         line   667 file /Users/joseantoniorodriguesromero/anaconda3/share/psi4/basis/cc-pvdz-jkfit.gbs 

   => Loading Basis Set <=

    Name: CC-PVDZ
    Role: ORBITAL
    Keyword: BASIS
    atoms 1 entry HE         line    32 file /Users/joseantoniorodriguesromero/anaconda3/share/psi4/basis/cc-pvdz.gbs 
    atoms 2 entry CL         line   658 file /Users/joseantoniorodriguesromero/anaconda3/share/psi4/basis/cc-pvdz.gbs 

  Reading orbitals from file /tmp/quintet_HeCl.default.71910.180.npy, no projection.

  ==> Integral Setup <==

  DFHelper Memory: AOs need 0.001 GiB; user supplied 0.338 GiB. 
  Using in-core AOs.

  ==> MemDFJK: Density-Fitted J/K Matrices <==

    J tasked:                   Yes
    K tasked:                   Yes
    wK tasked:                   No
    OpenMP threads:               1
    Memory [MiB]:               346
    Algorithm:                 Core
    Schwarz Cutoff:           1E-12
    Mask sparsity (%):       0.0000
    Fitting Condition:        1E-10

   => Auxiliary Basis Set <=

  Basis Set: (CC-PVDZ AUX)
    Blend: CC-PVDZ-JKFIT + DEF2-UNIVERSAL-JKFIT
    Number of shells: 45
    Number of basis functions: 135
    Number of Cartesian functions: 155
    Spherical Harmonics?: true
    Max angular momentum: 3

  Cached 100.0% of DFT collocation blocks in 0.028 [GiB].

  Minimum eigenvalue in the overlap matrix is 8.0311360872E-02.
  Reciprocal condition number of the overlap matrix is 3.3686016059E-02.
    Using symmetric orthogonalization.

  ==> Pre-Iterations <==

  SCF Guess: Orbitals guess was supplied from a previous computation.

   -------------------------------------------------------
    Irrep   Nso     Nmo     Nalpha   Nbeta   Ndocc  Nsocc
   -------------------------------------------------------
     A1        12      12       7       5       5       2
     A2         1       1       0       0       0       0
     B1         5       5       3       2       2       1
     B2         5       5       2       1       1       1
   -------------------------------------------------------
    Total      23      23      12       8       8       4
   -------------------------------------------------------

  ==> Iterations <==

                           Total Energy        Delta E     RMS |[F,P]|

   @DF-UKS iter   0:  -461.65749502886604   -4.61657e+02   1.90777e-02 
   @DF-UKS iter   1:  -461.66102717241927   -3.53214e-03   1.43106e-03 ADIIS/DIIS
   @DF-UKS iter   2:  -461.66153194880513   -5.04776e-04   7.02498e-04 ADIIS/DIIS/DAMP=1%
   @DF-UKS iter   3:  -461.66181249478910   -2.80546e-04   4.61367e-04 ADIIS/DIIS/DAMP=1%
   @DF-UKS iter   4:  -461.66174332317445    6.91716e-05   1.37204e-04 ADIIS/DIIS/DAMP=1%
   @DF-UKS iter   5:  -461.66167423968130    6.90835e-05   6.79151e-05 DIIS/DAMP=1%
   @DF-UKS iter   6:  -461.66172019986698   -4.59602e-05   9.02097e-06 DIIS/DAMP=1%
   @DF-UKS iter   7:  -461.66171195770585    8.24216e-06   1.14135e-06 DIIS/DAMP=1%
   @DF-UKS iter   8:  -461.66171372714189   -1.76944e-06   1.98288e-07 DIIS/DAMP=1%
   @DF-UKS iter   9:  -461.66171339582127    3.31321e-07   4.50595e-08 DIIS/DAMP=1%
   @DF-UKS iter  10:  -461.66171341789266   -2.20714e-08   7.16752e-09 DIIS/DAMP=1%
   @DF-UKS iter  11:  -461.66171341841624   -5.23585e-10   1.30963e-09 DIIS/DAMP=1%
  Energy and wave function converged.


  ==> Post-Iterations <==

   Electrons on quadrature grid:
      Nalpha   =   11.9999984647 ; deviation = -1.535e-06
      Nbeta    =    7.9999986147 ; deviation = -1.385e-06
      Ntotal   =   19.9999970795 ; deviation = -2.921e-06 

   @Spin Contamination Metric:   1.662085904E-03
   @S^2 Expected:                6.000000000E+00
   @S^2 Observed:                6.001662086E+00
   @S   Expected:                2.000000000E+00
   @S   Observed:                2.000000000E+00

    Orbital Energies [Eh]
    ---------------------

    Alpha Occupied:                                                       

       1A1  -101.123011     2A1    -9.088622     1B2    -6.855663  
       3A1    -6.852766     1B1    -6.831740     4A1    -0.629221  
       5A1    -0.444995     2B2    -0.101885     2B1    -0.046244  
       6A1    -0.023179     7A1     0.690436     3B1     0.726363  

    Alpha Virtual:                                                        

       3B2     0.763202     8A1     0.851646     4B2     0.943245  
       9A1     0.992595     1A2     0.994021     4B1     0.994994  
      10A1     1.085181    11A1     1.405286     5B2     2.389798  
       5B1     2.394798    12A1     2.808076  

    Beta Occupied:                                                        

       1A1  -101.095869     2A1    -9.062121     1B2    -6.823792  
       3A1    -6.804294     1B1    -6.794318     4A1    -0.555081  
       5A1    -0.345566     2B1     0.029061  

    Beta Virtual:                                                         

       2B2     0.081337     6A1     0.180332     3B2     0.843933  
       3B1     0.868764     7A1     0.878215     8A1     0.952960  
       4B2     1.068188     1A2     1.078805     4B1     1.081629  
       9A1     1.083217    10A1     1.177912    11A1     1.422770  
       5B2     2.405278     5B1     2.411438    12A1     2.840331  

    Final Occupation by Irrep:
             A1    A2    B1    B2 
    DOCC [     5,    0,    2,    1 ]
    SOCC [     2,    0,    1,    1 ]
    NA   [     7,    0,    3,    2 ]
    NB   [     5,    0,    2,    1 ]

  @DF-UKS Final Energy:  -461.66171341841624

   => Energetics <=

    Nuclear Repulsion Energy =             11.3384521069274484
    One-Electron Energy =                -666.9418927934705152
    Two-Electron Energy =                 217.8961908673513506
    DFT Exchange-Correlation Energy =     -23.9544635992244928
    Empirical Dispersion Energy =           0.0000000000000000
    VV10 Nonlocal Energy =                  0.0000000000000000
    Total Energy =                       -461.6617134184161841

  UHF NO Occupations:
  HONO-2 :    2 B2 1.0000000
  HONO-1 :    7 A1 1.0000000
  HONO-0 :    3 B1 1.0000000
  LUNO+0 :    8 A1 0.0007765
  LUNO+1 :    9 A1 0.0000473
  LUNO+2 :    4 B1 0.0000073
  LUNO+3 :   10 A1 0.0000001


Computation Completed


Properties will be evaluated at   0.000000,   0.000000,   0.000000 [a0]

Properties computed using the SCF density matrix


 Multipole Moments:

 ------------------------------------------------------------------------------------
     Multipole            Electronic (a.u.)      Nuclear  (a.u.)        Total (a.u.)
 ------------------------------------------------------------------------------------

 L = 1.  Multiply by 2.5417464519 to convert [e a0] to [Debye]
 Dipole X            :          0.0000000            0.0000000            0.0000000
 Dipole Y            :          0.0000000            0.0000000            0.0000000
 Dipole Z            :          1.0909258            0.1456909            1.2366166
 Magnitude           :                                                    1.2366166

 ------------------------------------------------------------------------------------

*** tstop() called on Joses-MacBook-Pro-2.local at Thu Jul 17 09:25:56 2025
Module time:
	user time   =       3.65 seconds =       0.06 minutes
	system time =       3.46 seconds =       0.06 minutes
	total time  =          1 seconds =       0.02 minutes
Total time:
	user time   =      12.20 seconds =       0.20 minutes
	system time =      14.99 seconds =       0.25 minutes
	total time  =          3 seconds =       0.05 minutes

*** tstart() called on Joses-MacBook-Pro-2.local
*** at Thu Jul 17 09:25:56 2025


         ------------------------------------------------------------
                                   SCF GRAD                          
                          Rob Parrish, Justin Turney,                
                       Andy Simmonett, and Alex Sokolov              
         ------------------------------------------------------------

  ==> Geometry <==

    Molecular point group: c2v
    Full point group: C_inf_v

    Geometry (in Angstrom), charge = -1, multiplicity = 5:

       Center              X                  Y                   Z               Mass       
    ------------   -----------------  -----------------  -----------------  -----------------
         HE           0.000000000000     0.000000000000     1.423839485171     4.002603254130
         CL           0.000000000000     0.000000000000    -0.162975451569    34.968852682000

  Nuclear repulsion =   11.338452106927448

  ==> Basis Set <==

  Basis Set: CC-PVDZ
    Blend: CC-PVDZ
    Number of shells: 11
    Number of basis functions: 23
    Number of Cartesian functions: 24
    Spherical Harmonics?: true
    Max angular momentum: 2

  ==> DFJKGrad: Density-Fitted SCF Gradients <==

    Gradient:                    1
    J tasked:                  Yes
    K tasked:                  Yes
    wK tasked:                  No
    OpenMP threads:              1
    Integrals threads:           1
    Memory [MiB]:              375
    Schwarz Cutoff:          1E-12
    Fitting Condition:       1E-10

   => Auxiliary Basis Set <=

  Basis Set: (CC-PVDZ AUX)
    Blend: CC-PVDZ-JKFIT + DEF2-UNIVERSAL-JKFIT
    Number of shells: 45
    Number of basis functions: 135
    Number of Cartesian functions: 155
    Spherical Harmonics?: true
    Max angular momentum: 3

  ==> DFT Potential <==

   => LibXC <=

    Version 6.2.2
    S. Lehtola, C. Steigemann, M. J.T. Oliveira, and M. A.L. Marques.,  SoftwareX 7, 1–5 (2018) (10.1016/j.softx.2017.11.002)

   => Composite Functional: B3LYP <= 

    B3LYP Hyb-GGA Exchange-Correlation Functional

    P. J. Stephens, F. J. Devlin, C. F. Chabalowski, and M. J. Frisch.,  J. Phys. Chem. 98, 11623 (1994) (10.1021/j100096a001)

    Deriv               =              1
    GGA                 =           TRUE
    Meta                =          FALSE

    Exchange Hybrid     =           TRUE
    MP2 Hybrid          =          FALSE

   => Exchange Functionals <=

    0.0800   Slater exchange
    0.7200         Becke 88

   => Exact (HF) Exchange <=

    0.2000               HF 

   => Correlation Functionals <=

    0.1900   Vosko, Wilk & Nusair (VWN5_RPA)
    0.8100   Lee, Yang & Parr

   => LibXC Density Thresholds  <==

    XC_HYB_GGA_XC_B3LYP:  1.00E-15 

   => Molecular Quadrature <=

    Radial Scheme          =       TREUTLER
    Pruning Scheme         =           NONE
    Nuclear Scheme         =       TREUTLER

    Blocking Scheme        =         OCTREE
    BS radius alpha        =              1
    Pruning alpha          =              1
    Radial Points          =             75
    Spherical Points       =            302
    Total Points           =          42087
    Total Blocks           =            374
    Max Points             =            256
    Max Functions          =             23
    Weights Tolerance      =       1.00E-15


  -Total Gradient:
     Atom            X                  Y                   Z
    ------   -----------------  -----------------  -----------------
       1        0.000000000000    -0.000000000000    -0.063387880891
       2        0.000000000000     0.000000000000     0.063375742911


*** tstop() called on Joses-MacBook-Pro-2.local at Thu Jul 17 09:25:56 2025
Module time:
	user time   =       0.54 seconds =       0.01 minutes
	system time =       1.08 seconds =       0.02 minutes
	total time  =          0 seconds =       0.00 minutes
Total time:
	user time   =      12.74 seconds =       0.21 minutes
	system time =      16.07 seconds =       0.27 minutes
	total time  =          3 seconds =       0.05 minutes

    			-----------------------------------------

    			 OPTKING 3.0: for geometry optimizations 

    			     By R.A. King, Bethel University     

    			        with contributions from          

    			    A.V. Copan, J. Cayton, A. Heide      

    			-----------------------------------------

    
	                            ===> Fragment 1 <== 

	 Z (Atomic Numbers)          Masses                          Geom                  
	       2.000000             4.002603          0.00000000  0.00000000  2.69066667   
	      17.000000            34.968853          0.00000000  0.00000000 -0.30797897   

	 - Coordinate -           - BOHR/RAD -       - ANG/DEG -
	 R(1,2)           =         2.998646           1.586815


	        --- Internal Coordinate Step in ANG or DEG, aJ/ANG or AJ/DEG ---
	-------------------------------------------------------------------------------
	           Coordinate      Previous         Force          Change          New 
	           ----------      --------        ------          ------        ------
	               R(1,2)       1.58681        0.52219        0.15716       1.74397
	-------------------------------------------------------------------------------

	                                 ==> Convergence Check <==                                  
    
	Measures of convergence in internal coordinates in au.
    
	Criteria marked as inactive (o), active & met (*), and active & unmet ( ).

	----------------------------------------------------------------------------------------------
	   Step    Total Energy     Delta E     Max Force     RMS Force      Max Disp      RMS Disp   
	----------------------------------------------------------------------------------------------
	  Convergence Criteria     1.00e-06 *    3.00e-04 *             o    1.20e-03 *             o
	----------------------------------------------------------------------------------------------
	     3    -461.66171342   -1.95e-02      6.34e-02      6.34e-02 o    2.97e-01      2.97e-01 o  ~
	----------------------------------------------------------------------------------------------

Next Geometry in Ang 
	Fragment 1 (Ang)

	   He   0.0000000000   0.0000000000   1.5024177761
	   Cl   0.0000000000   0.0000000000  -0.2415537425


    Structure for next step:
    Molecular point group: c2v
    Full point group: C_inf_v

    Geometry (in Angstrom), charge = -1, multiplicity = 5:

    HE           0.000000000000     0.000000000000     1.564855139507
    CL           0.000000000000     0.000000000000    -0.179116379099


Scratch directory: /tmp/
gradient() will perform analytic gradient computation.
   => Libint2 <=

    Primary   basis highest AM E, G, H:  6, 6, 3
    Auxiliary basis highest AM E, G, H:  7, 7, 4
    Onebody   basis highest AM E, G, H:  -, -, -
    Solid Harmonics ordering:            Gaussian

*** tstart() called on Joses-MacBook-Pro-2.local
*** at Thu Jul 17 09:25:56 2025

   => Loading Basis Set <=

    Name: CC-PVDZ
    Role: ORBITAL
    Keyword: BASIS
    atoms 1 entry HE         line    32 file /Users/joseantoniorodriguesromero/anaconda3/share/psi4/basis/cc-pvdz.gbs 
    atoms 2 entry CL         line   658 file /Users/joseantoniorodriguesromero/anaconda3/share/psi4/basis/cc-pvdz.gbs 


         ---------------------------------------------------------
                                   SCF
               by Justin Turney, Rob Parrish, Andy Simmonett
                          and Daniel G. A. Smith
                              UKS Reference
                        1 Threads,    500 MiB Core
         ---------------------------------------------------------

  ==> Geometry <==

    Molecular point group: c2v
    Full point group: C_inf_v

    Geometry (in Angstrom), charge = -1, multiplicity = 5:

       Center              X                  Y                   Z               Mass       
    ------------   -----------------  -----------------  -----------------  -----------------
         HE           0.000000000000     0.000000000000     1.564855139507     4.002603254130
         CL           0.000000000000     0.000000000000    -0.179116379099    34.968852682000

  Running in c2v symmetry.

  Rotational constants: A = ************  B =      1.54326  C =      1.54326 [cm^-1]
  Rotational constants: A = ************  B =  46265.91191  C =  46265.91191 [MHz]
  Nuclear repulsion =   10.316696672413920

  Charge       = -1
  Multiplicity = 5
  Electrons    = 20
  Nalpha       = 12
  Nbeta        = 8

  ==> Algorithm <==

  SCF Algorithm Type is DF.
  DIIS enabled.
  MOM disabled.
  Fractional occupation disabled.
  Guess Type is READ.
  Energy threshold   = 1.00e-08
  Density threshold  = 1.00e-08
  Integral threshold = 1.00e-12

  ==> Primary Basis <==

  Basis Set: CC-PVDZ
    Blend: CC-PVDZ
    Number of shells: 11
    Number of basis functions: 23
    Number of Cartesian functions: 24
    Spherical Harmonics?: true
    Max angular momentum: 2

  ==> DFT Potential <==

   => LibXC <=

    Version 6.2.2
    S. Lehtola, C. Steigemann, M. J.T. Oliveira, and M. A.L. Marques.,  SoftwareX 7, 1–5 (2018) (10.1016/j.softx.2017.11.002)

   => Composite Functional: B3LYP <= 

    B3LYP Hyb-GGA Exchange-Correlation Functional

    P. J. Stephens, F. J. Devlin, C. F. Chabalowski, and M. J. Frisch.,  J. Phys. Chem. 98, 11623 (1994) (10.1021/j100096a001)

    Deriv               =              1
    GGA                 =           TRUE
    Meta                =          FALSE

    Exchange Hybrid     =           TRUE
    MP2 Hybrid          =          FALSE

   => Exchange Functionals <=

    0.0800   Slater exchange
    0.7200         Becke 88

   => Exact (HF) Exchange <=

    0.2000               HF 

   => Correlation Functionals <=

    0.1900   Vosko, Wilk & Nusair (VWN5_RPA)
    0.8100   Lee, Yang & Parr

   => LibXC Density Thresholds  <==

    XC_HYB_GGA_XC_B3LYP:  1.00E-15 

   => Molecular Quadrature <=

    Radial Scheme          =       TREUTLER
    Pruning Scheme         =           NONE
    Nuclear Scheme         =       TREUTLER

    Blocking Scheme        =         OCTREE
    BS radius alpha        =              1
    Pruning alpha          =              1
    Radial Points          =             75
    Spherical Points       =            302
    Total Points           =          42111
    Total Blocks           =            374
    Max Points             =            254
    Max Functions          =             23
    Weights Tolerance      =       1.00E-15

   => Loading Basis Set <=

    Name: (CC-PVDZ AUX)
    Role: JKFIT
    Keyword: DF_BASIS_SCF
    atoms 1 entry HE         line    34 file /Users/joseantoniorodriguesromero/anaconda3/share/psi4/basis/def2-universal-jkfit.gbs 
    atoms 2 entry CL         line   667 file /Users/joseantoniorodriguesromero/anaconda3/share/psi4/basis/cc-pvdz-jkfit.gbs 

   => Loading Basis Set <=

    Name: CC-PVDZ
    Role: ORBITAL
    Keyword: BASIS
    atoms 1 entry HE         line    32 file /Users/joseantoniorodriguesromero/anaconda3/share/psi4/basis/cc-pvdz.gbs 
    atoms 2 entry CL         line   658 file /Users/joseantoniorodriguesromero/anaconda3/share/psi4/basis/cc-pvdz.gbs 

  Reading orbitals from file /tmp/quintet_HeCl.default.71910.180.npy, no projection.

  ==> Integral Setup <==

  DFHelper Memory: AOs need 0.001 GiB; user supplied 0.338 GiB. 
  Using in-core AOs.

  ==> MemDFJK: Density-Fitted J/K Matrices <==

    J tasked:                   Yes
    K tasked:                   Yes
    wK tasked:                   No
    OpenMP threads:               1
    Memory [MiB]:               346
    Algorithm:                 Core
    Schwarz Cutoff:           1E-12
    Mask sparsity (%):       0.0000
    Fitting Condition:        1E-10

   => Auxiliary Basis Set <=

  Basis Set: (CC-PVDZ AUX)
    Blend: CC-PVDZ-JKFIT + DEF2-UNIVERSAL-JKFIT
    Number of shells: 45
    Number of basis functions: 135
    Number of Cartesian functions: 155
    Spherical Harmonics?: true
    Max angular momentum: 3

  Cached 100.0% of DFT collocation blocks in 0.028 [GiB].

  Minimum eigenvalue in the overlap matrix is 8.8618390389E-02.
  Reciprocal condition number of the overlap matrix is 3.9513649524E-02.
    Using symmetric orthogonalization.

  ==> Pre-Iterations <==

  SCF Guess: Orbitals guess was supplied from a previous computation.

   -------------------------------------------------------
    Irrep   Nso     Nmo     Nalpha   Nbeta   Ndocc  Nsocc
   -------------------------------------------------------
     A1        12      12       7       5       5       2
     A2         1       1       0       0       0       0
     B1         5       5       3       2       2       1
     B2         5       5       2       1       1       1
   -------------------------------------------------------
    Total      23      23      12       8       8       4
   -------------------------------------------------------

  ==> Iterations <==

                           Total Energy        Delta E     RMS |[F,P]|

   @DF-UKS iter   0:  -461.67077401468867   -4.61671e+02   1.68772e-02 
   @DF-UKS iter   1:  -461.67370205521820   -2.92804e-03   1.77953e-03 ADIIS/DIIS
   @DF-UKS iter   2:  -461.67435520551015   -6.53150e-04   9.82907e-04 ADIIS/DIIS/DAMP=1%
   @DF-UKS iter   3:  -461.67477463445101   -4.19429e-04   5.77075e-04 ADIIS/DIIS/DAMP=1%
   @DF-UKS iter   4:  -461.67474965783953    2.49766e-05   2.19009e-04 ADIIS/DIIS/DAMP=1%
   @DF-UKS iter   5:  -461.67468561759188    6.40402e-05   7.51927e-05 DIIS/DAMP=1%
   @DF-UKS iter   6:  -461.67473124736398   -4.56298e-05   1.02201e-05 DIIS/DAMP=1%
   @DF-UKS iter   7:  -461.67472176222572    9.48514e-06   1.76237e-06 DIIS/DAMP=1%
   @DF-UKS iter   8:  -461.67472373331100   -1.97109e-06   3.34678e-07 DIIS/DAMP=1%
   @DF-UKS iter   9:  -461.67472319428828    5.39023e-07   5.97517e-08 DIIS/DAMP=1%
   @DF-UKS iter  10:  -461.67472325113556   -5.68473e-08   9.99375e-09 DIIS/DAMP=1%
   @DF-UKS iter  11:  -461.67472324473647    6.39909e-09   1.63007e-09 DIIS/DAMP=1%
  Energy and wave function converged.


  ==> Post-Iterations <==

   Electrons on quadrature grid:
      Nalpha   =   11.9999993903 ; deviation = -6.097e-07
      Nbeta    =    7.9999994296 ; deviation = -5.704e-07
      Ntotal   =   19.9999988199 ; deviation = -1.180e-06 

   @Spin Contamination Metric:   1.793514214E-03
   @S^2 Expected:                6.000000000E+00
   @S^2 Observed:                6.001793514E+00
   @S   Expected:                2.000000000E+00
   @S   Observed:                2.000000000E+00

    Orbital Energies [Eh]
    ---------------------

    Alpha Occupied:                                                       

       1A1  -101.126457     2A1    -9.092799     1B2    -6.859201  
       3A1    -6.857519     1B1    -6.835239     4A1    -0.598493  
       5A1    -0.459402     2B2    -0.103684     6A1    -0.053766  
       2B1    -0.047800     7A1     0.706341     3B1     0.723907  

    Alpha Virtual:                                                        

       3B2     0.760217     8A1     0.857773     4B2     0.946671  
       9A1     0.980522     1A2     0.991568     4B1     0.999447  
      10A1     1.032743    11A1     1.419235     5B2     2.374587  
       5B1     2.377761    12A1     2.673006  

    Beta Occupied:                                                        

       1A1  -101.098747     2A1    -9.065650     1B2    -6.826756  
       3A1    -6.808589     1B1    -6.797441     4A1    -0.528652  
       5A1    -0.365954     2B1     0.027584  

    Beta Virtual:                                                         

       2B2     0.079683     6A1     0.152916     3B2     0.842747  
       3B1     0.867591     7A1     0.898442     8A1     0.957259  
       4B2     1.074318     1A2     1.075920     9A1     1.078762  
       4B1     1.088088    10A1     1.118369    11A1     1.431880  
       5B2     2.384045     5B1     2.388848    12A1     2.693870  

    Final Occupation by Irrep:
             A1    A2    B1    B2 
    DOCC [     5,    0,    2,    1 ]
    SOCC [     2,    0,    1,    1 ]
    NA   [     7,    0,    3,    2 ]
    NB   [     5,    0,    2,    1 ]

  @DF-UKS Final Energy:  -461.67472324473647

   => Energetics <=

    Nuclear Repulsion Energy =             10.3166966724139204
    One-Electron Energy =                -664.8962050055342843
    Two-Electron Energy =                 216.8473967168736181
    DFT Exchange-Correlation Energy =     -23.9426116284897539
    Empirical Dispersion Energy =           0.0000000000000000
    VV10 Nonlocal Energy =                  0.0000000000000000
    Total Energy =                       -461.6747232447364695

  UHF NO Occupations:
  HONO-2 :    3 B1 1.0000000
  HONO-1 :    6 A1 1.0000000
  HONO-0 :    7 A1 1.0000000
  LUNO+0 :    8 A1 0.0008639
  LUNO+1 :    9 A1 0.0000309
  LUNO+2 :    4 B1 0.0000021
  LUNO+3 :   10 A1 0.0000001


Computation Completed


Properties will be evaluated at   0.000000,   0.000000,   0.000000 [a0]

Properties computed using the SCF density matrix


 Multipole Moments:

 ------------------------------------------------------------------------------------
     Multipole            Electronic (a.u.)      Nuclear  (a.u.)        Total (a.u.)
 ------------------------------------------------------------------------------------

 L = 1.  Multiply by 2.5417464519 to convert [e a0] to [Debye]
 Dipole X            :          0.0000000            0.0000000            0.0000000
 Dipole Y            :          0.0000000            0.0000000            0.0000000
 Dipole Z            :          1.2091245            0.1601200            1.3692445
 Magnitude           :                                                    1.3692445

 ------------------------------------------------------------------------------------

*** tstop() called on Joses-MacBook-Pro-2.local at Thu Jul 17 09:25:57 2025
Module time:
	user time   =       3.90 seconds =       0.06 minutes
	system time =       3.14 seconds =       0.05 minutes
	total time  =          1 seconds =       0.02 minutes
Total time:
	user time   =      16.68 seconds =       0.28 minutes
	system time =      19.45 seconds =       0.32 minutes
	total time  =          4 seconds =       0.07 minutes

*** tstart() called on Joses-MacBook-Pro-2.local
*** at Thu Jul 17 09:25:57 2025


         ------------------------------------------------------------
                                   SCF GRAD                          
                          Rob Parrish, Justin Turney,                
                       Andy Simmonett, and Alex Sokolov              
         ------------------------------------------------------------

  ==> Geometry <==

    Molecular point group: c2v
    Full point group: C_inf_v

    Geometry (in Angstrom), charge = -1, multiplicity = 5:

       Center              X                  Y                   Z               Mass       
    ------------   -----------------  -----------------  -----------------  -----------------
         HE           0.000000000000     0.000000000000     1.564855139507     4.002603254130
         CL           0.000000000000     0.000000000000    -0.179116379099    34.968852682000

  Nuclear repulsion =   10.316696672413920

  ==> Basis Set <==

  Basis Set: CC-PVDZ
    Blend: CC-PVDZ
    Number of shells: 11
    Number of basis functions: 23
    Number of Cartesian functions: 24
    Spherical Harmonics?: true
    Max angular momentum: 2

  ==> DFJKGrad: Density-Fitted SCF Gradients <==

    Gradient:                    1
    J tasked:                  Yes
    K tasked:                  Yes
    wK tasked:                  No
    OpenMP threads:              1
    Integrals threads:           1
    Memory [MiB]:              375
    Schwarz Cutoff:          1E-12
    Fitting Condition:       1E-10

   => Auxiliary Basis Set <=

  Basis Set: (CC-PVDZ AUX)
    Blend: CC-PVDZ-JKFIT + DEF2-UNIVERSAL-JKFIT
    Number of shells: 45
    Number of basis functions: 135
    Number of Cartesian functions: 155
    Spherical Harmonics?: true
    Max angular momentum: 3

  ==> DFT Potential <==

   => LibXC <=

    Version 6.2.2
    S. Lehtola, C. Steigemann, M. J.T. Oliveira, and M. A.L. Marques.,  SoftwareX 7, 1–5 (2018) (10.1016/j.softx.2017.11.002)

   => Composite Functional: B3LYP <= 

    B3LYP Hyb-GGA Exchange-Correlation Functional

    P. J. Stephens, F. J. Devlin, C. F. Chabalowski, and M. J. Frisch.,  J. Phys. Chem. 98, 11623 (1994) (10.1021/j100096a001)

    Deriv               =              1
    GGA                 =           TRUE
    Meta                =          FALSE

    Exchange Hybrid     =           TRUE
    MP2 Hybrid          =          FALSE

   => Exchange Functionals <=

    0.0800   Slater exchange
    0.7200         Becke 88

   => Exact (HF) Exchange <=

    0.2000               HF 

   => Correlation Functionals <=

    0.1900   Vosko, Wilk & Nusair (VWN5_RPA)
    0.8100   Lee, Yang & Parr

   => LibXC Density Thresholds  <==

    XC_HYB_GGA_XC_B3LYP:  1.00E-15 

   => Molecular Quadrature <=

    Radial Scheme          =       TREUTLER
    Pruning Scheme         =           NONE
    Nuclear Scheme         =       TREUTLER

    Blocking Scheme        =         OCTREE
    BS radius alpha        =              1
    Pruning alpha          =              1
    Radial Points          =             75
    Spherical Points       =            302
    Total Points           =          42111
    Total Blocks           =            374
    Max Points             =            254
    Max Functions          =             23
    Weights Tolerance      =       1.00E-15


  -Total Gradient:
     Atom            X                  Y                   Z
    ------   -----------------  -----------------  -----------------
       1        0.000000000000     0.000000000000    -0.027993204745
       2       -0.000000000000     0.000000000000     0.027998542673


*** tstop() called on Joses-MacBook-Pro-2.local at Thu Jul 17 09:25:57 2025
Module time:
	user time   =       0.62 seconds =       0.01 minutes
	system time =       1.17 seconds =       0.02 minutes
	total time  =          0 seconds =       0.00 minutes
Total time:
	user time   =      17.31 seconds =       0.29 minutes
	system time =      20.62 seconds =       0.34 minutes
	total time  =          4 seconds =       0.07 minutes

    			-----------------------------------------

    			 OPTKING 3.0: for geometry optimizations 

    			     By R.A. King, Bethel University     

    			        with contributions from          

    			    A.V. Copan, J. Cayton, A. Heide      

    			-----------------------------------------

    
	                            ===> Fragment 1 <== 

	 Z (Atomic Numbers)          Masses                          Geom                  
	       2.000000             4.002603          0.00000000  0.00000000  2.95714764   
	      17.000000            34.968853          0.00000000  0.00000000 -0.33848090   

	 - Coordinate -           - BOHR/RAD -       - ANG/DEG -
	 R(1,2)           =         3.295629           1.743972


	        --- Internal Coordinate Step in ANG or DEG, aJ/ANG or AJ/DEG ---
	-------------------------------------------------------------------------------
	           Coordinate      Previous         Force          Change          New 
	           ----------      --------        ------          ------        ------
	               R(1,2)       1.74397        0.23065        0.11814       1.86211
	-------------------------------------------------------------------------------

	                                 ==> Convergence Check <==                                  
    
	Measures of convergence in internal coordinates in au.
    
	Criteria marked as inactive (o), active & met (*), and active & unmet ( ).

	----------------------------------------------------------------------------------------------
	   Step    Total Energy     Delta E     Max Force     RMS Force      Max Disp      RMS Disp   
	----------------------------------------------------------------------------------------------
	  Convergence Criteria     1.00e-06 *    3.00e-04 *             o    1.20e-03 *             o
	----------------------------------------------------------------------------------------------
	     4    -461.67472324   -1.30e-02      2.80e-02      2.80e-02 o    2.23e-01      2.23e-01 o  ~
	----------------------------------------------------------------------------------------------

Next Geometry in Ang 
	Fragment 1 (Ang)

	   He   0.0000000000   0.0000000000   1.6239245175
	   Cl   0.0000000000   0.0000000000  -0.2381857571


    Structure for next step:
    Molecular point group: c2v
    Full point group: C_inf_v

    Geometry (in Angstrom), charge = -1, multiplicity = 5:

    HE           0.000000000000     0.000000000000     1.670860333736
    CL           0.000000000000     0.000000000000    -0.191249940907


Scratch directory: /tmp/
gradient() will perform analytic gradient computation.
   => Libint2 <=

    Primary   basis highest AM E, G, H:  6, 6, 3
    Auxiliary basis highest AM E, G, H:  7, 7, 4
    Onebody   basis highest AM E, G, H:  -, -, -
    Solid Harmonics ordering:            Gaussian

*** tstart() called on Joses-MacBook-Pro-2.local
*** at Thu Jul 17 09:25:57 2025

   => Loading Basis Set <=

    Name: CC-PVDZ
    Role: ORBITAL
    Keyword: BASIS
    atoms 1 entry HE         line    32 file /Users/joseantoniorodriguesromero/anaconda3/share/psi4/basis/cc-pvdz.gbs 
    atoms 2 entry CL         line   658 file /Users/joseantoniorodriguesromero/anaconda3/share/psi4/basis/cc-pvdz.gbs 


         ---------------------------------------------------------
                                   SCF
               by Justin Turney, Rob Parrish, Andy Simmonett
                          and Daniel G. A. Smith
                              UKS Reference
                        1 Threads,    500 MiB Core
         ---------------------------------------------------------

  ==> Geometry <==

    Molecular point group: c2v
    Full point group: C_inf_v

    Geometry (in Angstrom), charge = -1, multiplicity = 5:

       Center              X                  Y                   Z               Mass       
    ------------   -----------------  -----------------  -----------------  -----------------
         HE           0.000000000000     0.000000000000     1.670860333736     4.002603254130
         CL           0.000000000000     0.000000000000    -0.191249940907    34.968852682000

  Running in c2v symmetry.

  Rotational constants: A = ************  B =      1.35366  C =      1.35366 [cm^-1]
  Rotational constants: A = ************  B =  40581.59476  C =  40581.59476 [MHz]
  Nuclear repulsion =    9.662169533021512

  Charge       = -1
  Multiplicity = 5
  Electrons    = 20
  Nalpha       = 12
  Nbeta        = 8

  ==> Algorithm <==

  SCF Algorithm Type is DF.
  DIIS enabled.
  MOM disabled.
  Fractional occupation disabled.
  Guess Type is READ.
  Energy threshold   = 1.00e-08
  Density threshold  = 1.00e-08
  Integral threshold = 1.00e-12

  ==> Primary Basis <==

  Basis Set: CC-PVDZ
    Blend: CC-PVDZ
    Number of shells: 11
    Number of basis functions: 23
    Number of Cartesian functions: 24
    Spherical Harmonics?: true
    Max angular momentum: 2

  ==> DFT Potential <==

   => LibXC <=

    Version 6.2.2
    S. Lehtola, C. Steigemann, M. J.T. Oliveira, and M. A.L. Marques.,  SoftwareX 7, 1–5 (2018) (10.1016/j.softx.2017.11.002)

   => Composite Functional: B3LYP <= 

    B3LYP Hyb-GGA Exchange-Correlation Functional

    P. J. Stephens, F. J. Devlin, C. F. Chabalowski, and M. J. Frisch.,  J. Phys. Chem. 98, 11623 (1994) (10.1021/j100096a001)

    Deriv               =              1
    GGA                 =           TRUE
    Meta                =          FALSE

    Exchange Hybrid     =           TRUE
    MP2 Hybrid          =          FALSE

   => Exchange Functionals <=

    0.0800   Slater exchange
    0.7200         Becke 88

   => Exact (HF) Exchange <=

    0.2000               HF 

   => Correlation Functionals <=

    0.1900   Vosko, Wilk & Nusair (VWN5_RPA)
    0.8100   Lee, Yang & Parr

   => LibXC Density Thresholds  <==

    XC_HYB_GGA_XC_B3LYP:  1.00E-15 

   => Molecular Quadrature <=

    Radial Scheme          =       TREUTLER
    Pruning Scheme         =           NONE
    Nuclear Scheme         =       TREUTLER

    Blocking Scheme        =         OCTREE
    BS radius alpha        =              1
    Pruning alpha          =              1
    Radial Points          =             75
    Spherical Points       =            302
    Total Points           =          42128
    Total Blocks           =            374
    Max Points             =            250
    Max Functions          =             23
[...]
	-------------------------------------------------------------------------------
	           Coordinate      Previous         Force          Change          New 
	           ----------      --------        ------          ------        ------
	               R(1,2)       3.16519        0.00055        0.00209       3.16727
	-------------------------------------------------------------------------------

	                                 ==> Convergence Check <==                                  
    
	Measures of convergence in internal coordinates in au.
    
	Criteria marked as inactive (o), active & met (*), and active & unmet ( ).

	----------------------------------------------------------------------------------------------
	   Step    Total Energy     Delta E     Max Force     RMS Force      Max Disp      RMS Disp   
	----------------------------------------------------------------------------------------------
	  Convergence Criteria     1.00e-06 *    3.00e-04 *             o    1.20e-03 *             o
	----------------------------------------------------------------------------------------------
	    14    -461.72645045   -1.51e-06      6.63e-05 *    6.63e-05 o    3.94e-03      3.94e-03 o  ~
	----------------------------------------------------------------------------------------------

Next Geometry in Ang 
	Fragment 1 (Ang)

	   He   0.0000000000   0.0000000000   2.8411454402
	   Cl   0.0000000000   0.0000000000  -0.3261267140


    Structure for next step:
    Molecular point group: c2v
    Full point group: C_inf_v

    Geometry (in Angstrom), charge = -1, multiplicity = 5:

    HE           0.000000000000     0.000000000000     2.841974227186
    CL           0.000000000000     0.000000000000    -0.325297927082


Scratch directory: /tmp/
gradient() will perform analytic gradient computation.
   => Libint2 <=

    Primary   basis highest AM E, G, H:  6, 6, 3
    Auxiliary basis highest AM E, G, H:  7, 7, 4
    Onebody   basis highest AM E, G, H:  -, -, -
    Solid Harmonics ordering:            Gaussian

*** tstart() called on Joses-MacBook-Pro-2.local
*** at Thu Jul 17 09:26:05 2025

   => Loading Basis Set <=

    Name: CC-PVDZ
    Role: ORBITAL
    Keyword: BASIS
    atoms 1 entry HE         line    32 file /Users/joseantoniorodriguesromero/anaconda3/share/psi4/basis/cc-pvdz.gbs 
    atoms 2 entry CL         line   658 file /Users/joseantoniorodriguesromero/anaconda3/share/psi4/basis/cc-pvdz.gbs 


         ---------------------------------------------------------
                                   SCF
               by Justin Turney, Rob Parrish, Andy Simmonett
                          and Daniel G. A. Smith
                              UKS Reference
                        1 Threads,    500 MiB Core
         ---------------------------------------------------------

  ==> Geometry <==

    Molecular point group: c2v
    Full point group: C_inf_v

    Geometry (in Angstrom), charge = -1, multiplicity = 5:

       Center              X                  Y                   Z               Mass       
    ------------   -----------------  -----------------  -----------------  -----------------
         HE           0.000000000000     0.000000000000     2.841974227186     4.002603254130
         CL           0.000000000000     0.000000000000    -0.325297927082    34.968852682000

  Running in c2v symmetry.

  Rotational constants: A = ************  B =      0.46790  C =      0.46790 [cm^-1]
  Rotational constants: A = ************  B =  14027.14019  C =  14027.14019 [MHz]
  Nuclear repulsion =    5.680605987249088

  Charge       = -1
  Multiplicity = 5
  Electrons    = 20
  Nalpha       = 12
  Nbeta        = 8

  ==> Algorithm <==

  SCF Algorithm Type is DF.
  DIIS enabled.
  MOM disabled.
  Fractional occupation disabled.
  Guess Type is READ.
  Energy threshold   = 1.00e-08
  Density threshold  = 1.00e-08
  Integral threshold = 1.00e-12

  ==> Primary Basis <==

  Basis Set: CC-PVDZ
    Blend: CC-PVDZ
    Number of shells: 11
    Number of basis functions: 23
    Number of Cartesian functions: 24
    Spherical Harmonics?: true
    Max angular momentum: 2

  ==> DFT Potential <==

   => LibXC <=

    Version 6.2.2
    S. Lehtola, C. Steigemann, M. J.T. Oliveira, and M. A.L. Marques.,  SoftwareX 7, 1–5 (2018) (10.1016/j.softx.2017.11.002)

   => Composite Functional: B3LYP <= 

    B3LYP Hyb-GGA Exchange-Correlation Functional

    P. J. Stephens, F. J. Devlin, C. F. Chabalowski, and M. J. Frisch.,  J. Phys. Chem. 98, 11623 (1994) (10.1021/j100096a001)

    Deriv               =              1
    GGA                 =           TRUE
    Meta                =          FALSE

    Exchange Hybrid     =           TRUE
    MP2 Hybrid          =          FALSE

   => Exchange Functionals <=

    0.0800   Slater exchange
    0.7200         Becke 88

   => Exact (HF) Exchange <=

    0.2000               HF 

   => Correlation Functionals <=

    0.1900   Vosko, Wilk & Nusair (VWN5_RPA)
    0.8100   Lee, Yang & Parr

   => LibXC Density Thresholds  <==

    XC_HYB_GGA_XC_B3LYP:  1.00E-15 

   => Molecular Quadrature <=

    Radial Scheme          =       TREUTLER
    Pruning Scheme         =           NONE
    Nuclear Scheme         =       TREUTLER

    Blocking Scheme        =         OCTREE
    BS radius alpha        =              1
    Pruning alpha          =              1
    Radial Points          =             75
    Spherical Points       =            302
    Total Points           =          42243
    Total Blocks           =            381
    Max Points             =            253
    Max Functions          =             23
    Weights Tolerance      =       1.00E-15

   => Loading Basis Set <=

    Name: (CC-PVDZ AUX)
    Role: JKFIT
    Keyword: DF_BASIS_SCF
    atoms 1 entry HE         line    34 file /Users/joseantoniorodriguesromero/anaconda3/share/psi4/basis/def2-universal-jkfit.gbs 
    atoms 2 entry CL         line   667 file /Users/joseantoniorodriguesromero/anaconda3/share/psi4/basis/cc-pvdz-jkfit.gbs 

   => Loading Basis Set <=

    Name: CC-PVDZ
    Role: ORBITAL
    Keyword: BASIS
    atoms 1 entry HE         line    32 file /Users/joseantoniorodriguesromero/anaconda3/share/psi4/basis/cc-pvdz.gbs 
    atoms 2 entry CL         line   658 file /Users/joseantoniorodriguesromero/anaconda3/share/psi4/basis/cc-pvdz.gbs 

  Reading orbitals from file /tmp/quintet_HeCl.default.71910.180.npy, no projection.

  ==> Integral Setup <==

  DFHelper Memory: AOs need 0.001 GiB; user supplied 0.340 GiB. 
  Using in-core AOs.

  ==> MemDFJK: Density-Fitted J/K Matrices <==

    J tasked:                   Yes
    K tasked:                   Yes
    wK tasked:                   No
    OpenMP threads:               1
    Memory [MiB]:               348
    Algorithm:                 Core
    Schwarz Cutoff:           1E-12
    Mask sparsity (%):       0.0000
    Fitting Condition:        1E-10

   => Auxiliary Basis Set <=

  Basis Set: (CC-PVDZ AUX)
    Blend: CC-PVDZ-JKFIT + DEF2-UNIVERSAL-JKFIT
    Number of shells: 45
    Number of basis functions: 135
    Number of Cartesian functions: 155
    Spherical Harmonics?: true
    Max angular momentum: 3

  Cached 100.0% of DFT collocation blocks in 0.026 [GiB].

  Minimum eigenvalue in the overlap matrix is 1.1159021862E-01.
  Reciprocal condition number of the overlap matrix is 6.6806519769E-02.
    Using symmetric orthogonalization.

  ==> Pre-Iterations <==

  SCF Guess: Orbitals guess was supplied from a previous computation.

   -------------------------------------------------------
    Irrep   Nso     Nmo     Nalpha   Nbeta   Ndocc  Nsocc
   -------------------------------------------------------
     A1        12      12       7       5       5       2
     A2         1       1       0       0       0       0
     B1         5       5       3       2       2       1
     B2         5       5       2       1       1       1
   -------------------------------------------------------
    Total      23      23      12       8       8       4
   -------------------------------------------------------

  ==> Iterations <==

                           Total Energy        Delta E     RMS |[F,P]|

   @DF-UKS iter   0:  -461.72646934934357   -4.61726e+02   2.06962e-05 
   @DF-UKS iter   1:  -461.72645062685967    1.87225e-05   1.79097e-06 DIIS
   @DF-UKS iter   2:  -461.72645062726434   -4.04668e-10   4.74417e-07 DIIS/DAMP=1%
   @DF-UKS iter   3:  -461.72645049807943    1.29185e-07   2.52142e-07 DIIS/DAMP=1%
   @DF-UKS iter   4:  -461.72645063530695   -1.37228e-07   1.02807e-07 DIIS/DAMP=1%
   @DF-UKS iter   5:  -461.72645063633018   -1.02324e-09   7.15286e-08 DIIS/DAMP=1%
   @DF-UKS iter   6:  -461.72645062433713    1.19931e-08   1.68865e-08 DIIS/DAMP=1%
   @DF-UKS iter   7:  -461.72645062940688   -5.06975e-09   1.62787e-09 DIIS/DAMP=1%
  Energy and wave function converged.


  ==> Post-Iterations <==

   Electrons on quadrature grid:
      Nalpha   =   11.9999967584 ; deviation = -3.242e-06
      Nbeta    =    7.9999967310 ; deviation = -3.269e-06
      Ntotal   =   19.9999934894 ; deviation = -6.511e-06 

   @Spin Contamination Metric:   1.848897422E-03
   @S^2 Expected:                6.000000000E+00
   @S^2 Observed:                6.001848897E+00
   @S   Expected:                2.000000000E+00
   @S   Observed:                2.000000000E+00

    Orbital Energies [Eh]
    ---------------------

    Alpha Occupied:                                                       

       1A1  -101.140283     2A1    -9.113637     1B2    -6.881087  
       3A1    -6.877524     1B1    -6.855885     4A1    -0.568204  
       5A1    -0.472373     2B2    -0.121038     6A1    -0.115868  
       2B1    -0.064567     7A1     0.676792     3B1     0.713533  

    Alpha Virtual:                                                        

       3B2     0.749714     8A1     0.810932     4B2     0.928743  
       9A1     0.928820     1A2     0.970217     4B1     0.984827  
      10A1     0.996290    11A1     1.316327     5B2     2.366991  
       5B1     2.367322    12A1     2.372942  

    Beta Occupied:                                                        

       1A1  -101.111920     2A1    -9.086180     1B2    -6.848329  
       3A1    -6.824842     1B1    -6.818365     4A1    -0.469041  
       5A1    -0.429876     2B1     0.009047  

    Beta Virtual:                                                         

       2B2     0.060078     6A1     0.093780     3B2     0.829362  
       3B1     0.855405     7A1     0.855966     8A1     0.908101  
       9A1     1.050247     1A2     1.050252     4B2     1.059751  
       4B1     1.075377    10A1     1.080214    11A1     1.322940  
       5B2     2.368060     5B1     2.368398    12A1     2.374714  

    Final Occupation by Irrep:
             A1    A2    B1    B2 
    DOCC [     5,    0,    2,    1 ]
    SOCC [     2,    0,    1,    1 ]
    NA   [     7,    0,    3,    2 ]
    NB   [     5,    0,    2,    1 ]

  @DF-UKS Final Energy:  -461.72645062940688

   => Energetics <=

    Nuclear Repulsion Energy =              5.6806059872490877
    One-Electron Energy =                -655.4236991590589696
    Two-Electron Energy =                 211.9175214982084583
    DFT Exchange-Correlation Energy =     -23.9008789558055170
    Empirical Dispersion Energy =           0.0000000000000000
    VV10 Nonlocal Energy =                  0.0000000000000000
    Total Energy =                       -461.7264506294069406

  UHF NO Occupations:
  HONO-2 :    2 B2 1.0000000
  HONO-1 :    6 A1 1.0000000
  HONO-0 :    7 A1 1.0000000
  LUNO+0 :    8 A1 0.0009199
  LUNO+1 :    9 A1 0.0000045
  LUNO+2 :    4 B1 0.0000002
  LUNO+3 :   10 A1 0.0000001


Computation Completed


Properties will be evaluated at   0.000000,   0.000000,   0.000000 [a0]

Properties computed using the SCF density matrix


 Multipole Moments:

 ------------------------------------------------------------------------------------
     Multipole            Electronic (a.u.)      Nuclear  (a.u.)        Total (a.u.)
 ------------------------------------------------------------------------------------

 L = 1.  Multiply by 2.5417464519 to convert [e a0] to [Debye]
 Dipole X            :          0.0000000            0.0000000            0.0000000
 Dipole Y            :          0.0000000            0.0000000            0.0000000
 Dipole Z            :          0.1822352            0.2907980            0.4730332
 Magnitude           :                                                    0.4730332

 ------------------------------------------------------------------------------------

*** tstop() called on Joses-MacBook-Pro-2.local at Thu Jul 17 09:26:06 2025
Module time:
	user time   =       2.43 seconds =       0.04 minutes
	system time =       2.38 seconds =       0.04 minutes
	total time  =          1 seconds =       0.02 minutes
Total time:
	user time   =      61.40 seconds =       1.02 minutes
	system time =      67.97 seconds =       1.13 minutes
	total time  =         13 seconds =       0.22 minutes

*** tstart() called on Joses-MacBook-Pro-2.local
*** at Thu Jul 17 09:26:06 2025


         ------------------------------------------------------------
                                   SCF GRAD                          
                          Rob Parrish, Justin Turney,                
                       Andy Simmonett, and Alex Sokolov              
         ------------------------------------------------------------

  ==> Geometry <==

    Molecular point group: c2v
    Full point group: C_inf_v

    Geometry (in Angstrom), charge = -1, multiplicity = 5:

       Center              X                  Y                   Z               Mass       
    ------------   -----------------  -----------------  -----------------  -----------------
         HE           0.000000000000     0.000000000000     2.841974227186     4.002603254130
         CL           0.000000000000     0.000000000000    -0.325297927082    34.968852682000

  Nuclear repulsion =    5.680605987249088

  ==> Basis Set <==

  Basis Set: CC-PVDZ
    Blend: CC-PVDZ
    Number of shells: 11
    Number of basis functions: 23
    Number of Cartesian functions: 24
    Spherical Harmonics?: true
    Max angular momentum: 2

  ==> DFJKGrad: Density-Fitted SCF Gradients <==

    Gradient:                    1
    J tasked:                  Yes
    K tasked:                  Yes
    wK tasked:                  No
    OpenMP threads:              1
    Integrals threads:           1
    Memory [MiB]:              375
    Schwarz Cutoff:          1E-12
    Fitting Condition:       1E-10

   => Auxiliary Basis Set <=

  Basis Set: (CC-PVDZ AUX)
    Blend: CC-PVDZ-JKFIT + DEF2-UNIVERSAL-JKFIT
    Number of shells: 45
    Number of basis functions: 135
    Number of Cartesian functions: 155
    Spherical Harmonics?: true
    Max angular momentum: 3

  ==> DFT Potential <==

   => LibXC <=

    Version 6.2.2
    S. Lehtola, C. Steigemann, M. J.T. Oliveira, and M. A.L. Marques.,  SoftwareX 7, 1–5 (2018) (10.1016/j.softx.2017.11.002)

   => Composite Functional: B3LYP <= 

    B3LYP Hyb-GGA Exchange-Correlation Functional

    P. J. Stephens, F. J. Devlin, C. F. Chabalowski, and M. J. Frisch.,  J. Phys. Chem. 98, 11623 (1994) (10.1021/j100096a001)

    Deriv               =              1
    GGA                 =           TRUE
    Meta                =          FALSE

    Exchange Hybrid     =           TRUE
    MP2 Hybrid          =          FALSE

   => Exchange Functionals <=

    0.0800   Slater exchange
    0.7200         Becke 88

   => Exact (HF) Exchange <=

    0.2000               HF 

   => Correlation Functionals <=

    0.1900   Vosko, Wilk & Nusair (VWN5_RPA)
    0.8100   Lee, Yang & Parr

   => LibXC Density Thresholds  <==

    XC_HYB_GGA_XC_B3LYP:  1.00E-15 

   => Molecular Quadrature <=

    Radial Scheme          =       TREUTLER
    Pruning Scheme         =           NONE
    Nuclear Scheme         =       TREUTLER

    Blocking Scheme        =         OCTREE
    BS radius alpha        =              1
    Pruning alpha          =              1
    Radial Points          =             75
    Spherical Points       =            302
    Total Points           =          42243
    Total Blocks           =            381
    Max Points             =            253
    Max Functions          =             23
    Weights Tolerance      =       1.00E-15


  -Total Gradient:
     Atom            X                  Y                   Z
    ------   -----------------  -----------------  -----------------
       1        0.000000000000     0.000000000000    -0.000027627477
       2        0.000000000000    -0.000000000000     0.000018119708


*** tstop() called on Joses-MacBook-Pro-2.local at Thu Jul 17 09:26:06 2025
Module time:
	user time   =       0.59 seconds =       0.01 minutes
	system time =       1.16 seconds =       0.02 minutes
	total time  =          0 seconds =       0.00 minutes
Total time:
	user time   =      61.99 seconds =       1.03 minutes
	system time =      69.13 seconds =       1.15 minutes
	total time  =         13 seconds =       0.22 minutes

    			-----------------------------------------

    			 OPTKING 3.0: for geometry optimizations 

    			     By R.A. King, Bethel University     

    			        with contributions from          

    			    A.V. Copan, J. Cayton, A. Heide      

    			-----------------------------------------

    
	                            ===> Fragment 1 <== 

	 Z (Atomic Numbers)          Masses                          Geom                  
	       2.000000             4.002603          0.00000000  0.00000000  5.37055294   
	      17.000000            34.968853          0.00000000  0.00000000 -0.61472399   

	 - Coordinate -           - BOHR/RAD -       - ANG/DEG -
	 R(1,2)           =         5.985277           3.167272


	        --- Internal Coordinate Step in ANG or DEG, aJ/ANG or AJ/DEG ---
	-------------------------------------------------------------------------------
	           Coordinate      Previous         Force          Change          New 
	           ----------      --------        ------          ------        ------
	               R(1,2)       3.16727        0.00019        0.00090       3.16817
	-------------------------------------------------------------------------------

	                                 ==> Convergence Check <==                                  
    
	Measures of convergence in internal coordinates in au.
    
	Criteria marked as inactive (o), active & met (*), and active & unmet ( ).

	----------------------------------------------------------------------------------------------
	   Step    Total Energy     Delta E     Max Force     RMS Force      Max Disp      RMS Disp   
	----------------------------------------------------------------------------------------------
	  Convergence Criteria     1.00e-06 *    3.00e-04 *             o    1.20e-03 *             o
	----------------------------------------------------------------------------------------------
	    15    -461.72645063   -1.84e-07 *    2.29e-05 *    2.29e-05 o    1.69e-03      1.69e-03 o  ~
	----------------------------------------------------------------------------------------------

Next Geometry in Ang 
	Fragment 1 (Ang)

	   He   0.0000000000   0.0000000000   2.8424225587
	   Cl   0.0000000000   0.0000000000  -0.3257462586


    Final optimized geometry and variables:
    Molecular point group: c2v
    Full point group: C_inf_v

    Geometry (in Angstrom), charge = -1, multiplicity = 5:

    HE           0.000000000000     0.000000000000     2.841974227186
    CL           0.000000000000     0.000000000000    -0.325297927082


    Psi4 stopped on: Thursday, 17 July 2025 09:26AM
    Psi4 wall time for execution: 0:00:12.90

*** Psi4 exiting successfully. Buy a developer a beer!
