
    -----------------------------------------------------------------------
          Psi4: An Open-Source Ab Initio Electronic Structure Package
                               Psi4 1.9.1 release

                         Git: Rev {} zzzzzzz 


    D. G. A. Smith, L. A. Burns, A. C. Simmonett, R. M. Parrish,
    M. C. Schieber, R. Galvelis, P. Kraus, H. Kruse, R. Di Remigio,
    A. Alenaizan, A. M. James, S. Lehtola, J. P. Misiewicz, M. Scheurer,
    R. A. Shaw, J. B. Schriber, Y. Xie, Z. L. Glick, D. A. Sirianni,
    J. S. O'Brien, J. M. Waldrop, A. Kumar, E. G. Hohenstein,
    B. P. Pritchard, B. R. Brooks, H. F. Schaefer III, A. Yu. Sokolov,
    K. Patkowski, A. E. DePrince III, U. Bozkaya, R. A. King,
    F. A. Evangelista, J. M. Turney, T. D. Crawford, C. D. Sherrill,
    J. Chem. Phys. 152(18) 184108 (2020). https://doi.org/10.1063/5.0006002

                            Additional Code Authors
    E. T. Seidl, C. L. Janssen, E. F. Valeev, M. L. Leininger,
    J. F. Gonthier, R. M. Richard, H. R. McAlexander, M. Saitow, X. Wang,
    P. Verma, M. H. Lechner, A. Jiang, S. Behnle, A. G. Heide,
    M. F. Herbst, and D. L. Poole

             Previous Authors, Complete List of Code Contributors,
                       and Citations for Specific Modules
    https://github.com/psi4/psi4/blob/master/codemeta.json
    https://github.com/psi4/psi4/graphs/contributors
    http://psicode.org/psi4manual/master/introduction.html#citing-psifour

    -----------------------------------------------------------------------


    Psi4 started on: Thursday, 17 July 2025 12:01PM

    Process ID: 73431
    Host:       Joses-MacBook-Pro-2.local
    PSIDATADIR: /Users/joseantoniorodriguesromero/anaconda3/share/psi4
    Memory:     500.0 MiB
    Threads:    1
    
  ==> Input File <==

--------------------------------------------------------------------------
molecule { 
-1 5
P   0.00000        0.60000        0.00000
S   0.00000       -0.60000        0.00000
}

set { 
basis              cc-pvdz
reference          uks
maxiter            500
geom_maxiter       500
DAMPING_PERCENTAGE 1
guess              SAP
}

optimize('b3lyp')
--------------------------------------------------------------------------

Scratch directory: /tmp/
gradient() will perform analytic gradient computation.
   => Libint2 <=

    Primary   basis highest AM E, G, H:  6, 6, 3
    Auxiliary basis highest AM E, G, H:  7, 7, 4
    Onebody   basis highest AM E, G, H:  -, -, -
    Solid Harmonics ordering:            Gaussian

*** tstart() called on Joses-MacBook-Pro-2.local
*** at Thu Jul 17 12:01:21 2025

   => Loading Basis Set <=

    Name: CC-PVDZ
    Role: ORBITAL
    Keyword: BASIS
    atoms 1 entry P          line   538 file /Users/joseantoniorodriguesromero/anaconda3/share/psi4/basis/cc-pvdz.gbs 
    atoms 2 entry S          line   598 file /Users/joseantoniorodriguesromero/anaconda3/share/psi4/basis/cc-pvdz.gbs 


         ---------------------------------------------------------
                                   SCF
               by Justin Turney, Rob Parrish, Andy Simmonett
                          and Daniel G. A. Smith
                              UKS Reference
                        1 Threads,    500 MiB Core
         ---------------------------------------------------------

  ==> Geometry <==

    Molecular point group: c2v
    Full point group: C_inf_v

    Geometry (in Angstrom), charge = -1, multiplicity = 5:

       Center              X                  Y                   Z               Mass       
    ------------   -----------------  -----------------  -----------------  -----------------
         P            0.000000000000     0.000000000000     0.609515888112    30.973761998420
         S            0.000000000000     0.000000000000    -0.590484111888    31.972071174400

  Running in c2v symmetry.

  Rotational constants: A = ************  B =      0.74411  C =      0.74411 [cm^-1]
  Rotational constants: A = ************  B =  22307.81148  C =  22307.81148 [MHz]
  Nuclear repulsion =  105.835442134000019

  Charge       = -1
  Multiplicity = 5
  Electrons    = 32
  Nalpha       = 18
  Nbeta        = 14

  ==> Algorithm <==

  SCF Algorithm Type is DF.
  DIIS enabled.
  MOM disabled.
  Fractional occupation disabled.
  Guess Type is SAP.
  Energy threshold   = 1.00e-08
  Density threshold  = 1.00e-08
  Integral threshold = 1.00e-12

  ==> Primary Basis <==

  Basis Set: CC-PVDZ
    Blend: CC-PVDZ
    Number of shells: 16
    Number of basis functions: 36
    Number of Cartesian functions: 38
    Spherical Harmonics?: true
    Max angular momentum: 2

  ==> DFT Potential <==

   => LibXC <=

    Version 6.2.2
    S. Lehtola, C. Steigemann, M. J.T. Oliveira, and M. A.L. Marques.,  SoftwareX 7, 1–5 (2018) (10.1016/j.softx.2017.11.002)

   => Composite Functional: B3LYP <= 

    B3LYP Hyb-GGA Exchange-Correlation Functional

    P. J. Stephens, F. J. Devlin, C. F. Chabalowski, and M. J. Frisch.,  J. Phys. Chem. 98, 11623 (1994) (10.1021/j100096a001)

    Deriv               =              1
    GGA                 =           TRUE
    Meta                =          FALSE

    Exchange Hybrid     =           TRUE
    MP2 Hybrid          =          FALSE

   => Exchange Functionals <=

    0.0800   Slater exchange
    0.7200         Becke 88

   => Exact (HF) Exchange <=

    0.2000               HF 

   => Correlation Functionals <=

    0.1900   Vosko, Wilk & Nusair (VWN5_RPA)
    0.8100   Lee, Yang & Parr

   => LibXC Density Thresholds  <==

    XC_HYB_GGA_XC_B3LYP:  1.00E-15 

   => Molecular Quadrature <=

    Radial Scheme          =       TREUTLER
    Pruning Scheme         =           NONE
    Nuclear Scheme         =       TREUTLER

    Blocking Scheme        =         OCTREE
    BS radius alpha        =              1
    Pruning alpha          =              1
    Radial Points          =             75
    Spherical Points       =            302
    Total Points           =          40692
    Total Blocks           =            376
    Max Points             =            241
    Max Functions          =             36
    Weights Tolerance      =       1.00E-15

   => Loading Basis Set <=

    Name: (CC-PVDZ AUX)
    Role: JKFIT
    Keyword: DF_BASIS_SCF
    atoms 1 entry P          line   519 file /Users/joseantoniorodriguesromero/anaconda3/share/psi4/basis/cc-pvdz-jkfit.gbs 
    atoms 2 entry S          line   593 file /Users/joseantoniorodriguesromero/anaconda3/share/psi4/basis/cc-pvdz-jkfit.gbs 

  ==> Integral Setup <==

  DFHelper Memory: AOs need 0.003 GiB; user supplied 0.324 GiB. 
  Using in-core AOs.

  ==> MemDFJK: Density-Fitted J/K Matrices <==

    J tasked:                   Yes
    K tasked:                   Yes
    wK tasked:                   No
    OpenMP threads:               1
    Memory [MiB]:               331
    Algorithm:                 Core
    Schwarz Cutoff:           1E-12
    Mask sparsity (%):       0.0000
    Fitting Condition:        1E-10

   => Auxiliary Basis Set <=

  Basis Set: (CC-PVDZ AUX)
    Blend: CC-PVDZ-JKFIT
    Number of shells: 72
    Number of basis functions: 224
    Number of Cartesian functions: 260
    Spherical Harmonics?: true
    Max angular momentum: 3

  Cached 100.0% of DFT collocation blocks in 0.042 [GiB].

  Minimum eigenvalue in the overlap matrix is 3.4412197542E-03.
  Reciprocal condition number of the overlap matrix is 1.0788497796E-03.
    Using symmetric orthogonalization.

  ==> Pre-Iterations <==

  SCF Guess: Superposition of Atomic Potentials (doi:10.1021/acs.jctc.8b01089).

  ==> SAP guess <==

   => Molecular Quadrature <=

    Radial Scheme          =       TREUTLER
    Pruning Scheme         =           NONE
    Nuclear Scheme         =       TREUTLER

    Blocking Scheme        =         OCTREE
    BS radius alpha        =              1
    Pruning alpha          =              1
    Radial Points          =             75
    Spherical Points       =            302
    Total Points           =          40692
    Total Blocks           =            376
    Max Points             =            241
    Max Functions          =             36
    Weights Tolerance      =       1.00E-15

   -------------------------------------------------------
    Irrep   Nso     Nmo     Nalpha   Nbeta   Ndocc  Nsocc
   -------------------------------------------------------
     A1        18      18      10       8       8       2
     A2         2       2       0       0       0       0
     B1         8       8       4       3       3       1
     B2         8       8       4       3       3       1
   -------------------------------------------------------
    Total      36      36      18      14      14       4
   -------------------------------------------------------

  ==> Iterations <==

                           Total Energy        Delta E     RMS |[F,P]|

   @DF-UKS iter   1:  -737.59109004390712   -7.37591e+02   3.44518e-02 ADIIS/DIIS
   @DF-UKS iter   2:  -737.60788500397177   -1.67950e-02   3.82421e-02 ADIIS/DIIS/DAMP=1%
   @DF-UKS iter   3:  -737.94741722018421   -3.39532e-01   1.69344e-03 ADIIS/DIIS/DAMP=1%
   @DF-UKS iter   4:  -738.01876353547902   -7.13463e-02   2.03830e-03 ADIIS/DIIS/DAMP=1%
   @DF-UKS iter   5:  -738.01966015944356   -8.96624e-04   4.23691e-04 ADIIS/DIIS/DAMP=1%
   @DF-UKS iter   6:  -738.01981416891806   -1.54009e-04   6.05325e-05 DIIS/DAMP=1%
   @DF-UKS iter   7:  -738.02004434571461   -2.30177e-04   2.45561e-05 DIIS/DAMP=1%
   @DF-UKS iter   8:  -738.02004416361194    1.82103e-07   2.58450e-06 DIIS/DAMP=1%
   @DF-UKS iter   9:  -738.02003508370080    9.07991e-06   3.28100e-07 DIIS/DAMP=1%
   @DF-UKS iter  10:  -738.02003502333378    6.03670e-08   1.14353e-07 DIIS/DAMP=1%
   @DF-UKS iter  11:  -738.02003532747904   -3.04145e-07   1.26258e-08 DIIS/DAMP=1%
   @DF-UKS iter  12:  -738.02003525704993    7.04291e-08   1.00983e-09 DIIS/DAMP=1%
   @DF-UKS iter  13:  -738.02003523751466    1.95353e-08   2.39920e-10 DIIS/DAMP=1%
   @DF-UKS iter  14:  -738.02003523955125   -2.03659e-09   1.47048e-11 DIIS/DAMP=1%
  Energy and wave function converged.


  ==> Post-Iterations <==

   Electrons on quadrature grid:
      Nalpha   =   17.9999973888 ; deviation = -2.611e-06
      Nbeta    =   13.9999974630 ; deviation = -2.537e-06
      Ntotal   =   31.9999948519 ; deviation = -5.148e-06 

   @Spin Contamination Metric:   3.652214761E-03
   @S^2 Expected:                6.000000000E+00
   @S^2 Observed:                6.003652215E+00
   @S   Expected:                2.000000000E+00
   @S   Observed:                2.000000000E+00

    Orbital Energies [Eh]
    ---------------------

    Alpha Occupied:                                                       

       1A1   -88.637518     2A1   -76.889304     3A1    -7.786620  
       4A1    -6.441629     5A1    -5.763723     1B2    -5.721091  
       1B1    -5.721091     6A1    -4.626733     2B1    -4.574547  
       2B2    -4.574547     7A1    -0.710484     8A1    -0.268371  
       3B1    -0.247432     3B2    -0.247432     9A1    -0.111864  
       4B1     0.109756     4B2     0.109756    10A1     0.275809  

    Alpha Virtual:                                                        

       5B1     0.442939     5B2     0.442939    11A1     0.483049  
       1A2     0.543827    12A1     0.543828    13A1     0.563999  
       6B1     0.700182     6B2     0.700182    14A1     0.731651  
       7B1     0.794049     7B2     0.794049     2A2     0.937774  
      15A1     0.937775    16A1     0.958908    17A1     1.292477  
       8B2     1.425834     8B1     1.425834    18A1     2.558867  

    Beta Occupied:                                                        

       1A1   -88.629427     2A1   -76.880889     3A1    -7.777459  
       4A1    -6.432779     5A1    -5.750896     1B2    -5.711104  
       1B1    -5.711104     6A1    -4.609144     2B1    -4.563599  
       2B2    -4.563599     7A1    -0.672535     3B1    -0.209827  
       3B2    -0.209827     8A1    -0.178184  

    Beta Virtual:                                                         

       9A1     0.044564     4B1     0.236563     4B2     0.236563  
      10A1     0.368596     5B1     0.480153     5B2     0.480153  
      11A1     0.514311     1A2     0.590661    12A1     0.590662  
      13A1     0.629958     6B1     0.761749     6B2     0.761749  
      14A1     0.804113     7B1     0.850334     7B2     0.850334  
       2A2     1.002869    15A1     1.002870    16A1     1.007194  
      17A1     1.331465     8B2     1.482724     8B1     1.482724  
      18A1     2.600204  

    Final Occupation by Irrep:
             A1    A2    B1    B2 
    DOCC [     8,    0,    3,    3 ]
    SOCC [     2,    0,    1,    1 ]
    NA   [    10,    0,    4,    4 ]
    NB   [     8,    0,    3,    3 ]

  @DF-UKS Final Energy:  -738.02003523955125

   => Energetics <=

    Nuclear Repulsion Energy =            105.8354421340000187
    One-Electron Energy =               -1235.4846611462285182
    Two-Electron Energy =                 431.7165413082353211
    DFT Exchange-Correlation Energy =     -40.0873575355579490
    Empirical Dispersion Energy =           0.0000000000000000
    VV10 Nonlocal Energy =                  0.0000000000000000
    Total Energy =                       -738.0200352395512482

  UHF NO Occupations:
  HONO-2 :    4 B2 1.0000000
  HONO-1 :    9 A1 1.0000000
  HONO-0 :   10 A1 1.0000000
  LUNO+0 :    5 B2 0.0008405
  LUNO+1 :    5 B1 0.0008405
  LUNO+2 :   11 A1 0.0001235
  LUNO+3 :   12 A1 0.0000220


Computation Completed


Properties will be evaluated at   0.000000,   0.000000,   0.000000 [a0]

Properties computed using the SCF density matrix


 Multipole Moments:

 ------------------------------------------------------------------------------------
     Multipole            Electronic (a.u.)      Nuclear  (a.u.)        Total (a.u.)
 ------------------------------------------------------------------------------------

 L = 1.  Multiply by 2.5417464519 to convert [e a0] to [Debye]
 Dipole X            :          0.0000000            0.0000000            0.0000000
 Dipole Y            :          0.0000000            0.0000000            0.0000000
 Dipole Z            :         -0.2339533           -0.5763806           -0.8103339
 Magnitude           :                                                    0.8103339

 ------------------------------------------------------------------------------------

*** tstop() called on Joses-MacBook-Pro-2.local at Thu Jul 17 12:01:23 2025
Module time:
	user time   =      18.85 seconds =       0.31 minutes
	system time =       1.60 seconds =       0.03 minutes
	total time  =          2 seconds =       0.03 minutes
Total time:
	user time   =      18.85 seconds =       0.31 minutes
	system time =       1.60 seconds =       0.03 minutes
	total time  =          2 seconds =       0.03 minutes

*** tstart() called on Joses-MacBook-Pro-2.local
*** at Thu Jul 17 12:01:23 2025


         ------------------------------------------------------------
                                   SCF GRAD                          
                          Rob Parrish, Justin Turney,                
                       Andy Simmonett, and Alex Sokolov              
         ------------------------------------------------------------

  ==> Geometry <==

    Molecular point group: c2v
    Full point group: C_inf_v

    Geometry (in Angstrom), charge = -1, multiplicity = 5:

       Center              X                  Y                   Z               Mass       
    ------------   -----------------  -----------------  -----------------  -----------------
         P            0.000000000000     0.000000000000     0.609515888112    30.973761998420
         S            0.000000000000     0.000000000000    -0.590484111888    31.972071174400

  Nuclear repulsion =  105.835442134000019

  ==> Basis Set <==

  Basis Set: CC-PVDZ
    Blend: CC-PVDZ
    Number of shells: 16
    Number of basis functions: 36
    Number of Cartesian functions: 38
    Spherical Harmonics?: true
    Max angular momentum: 2

  ==> DFJKGrad: Density-Fitted SCF Gradients <==

    Gradient:                    1
    J tasked:                  Yes
    K tasked:                  Yes
    wK tasked:                  No
    OpenMP threads:              1
    Integrals threads:           1
    Memory [MiB]:              375
    Schwarz Cutoff:          1E-12
    Fitting Condition:       1E-10

   => Auxiliary Basis Set <=

  Basis Set: (CC-PVDZ AUX)
    Blend: CC-PVDZ-JKFIT
    Number of shells: 72
    Number of basis functions: 224
    Number of Cartesian functions: 260
    Spherical Harmonics?: true
    Max angular momentum: 3

  ==> DFT Potential <==

   => LibXC <=

    Version 6.2.2
    S. Lehtola, C. Steigemann, M. J.T. Oliveira, and M. A.L. Marques.,  SoftwareX 7, 1–5 (2018) (10.1016/j.softx.2017.11.002)

   => Composite Functional: B3LYP <= 

    B3LYP Hyb-GGA Exchange-Correlation Functional

    P. J. Stephens, F. J. Devlin, C. F. Chabalowski, and M. J. Frisch.,  J. Phys. Chem. 98, 11623 (1994) (10.1021/j100096a001)

    Deriv               =              1
    GGA                 =           TRUE
    Meta                =          FALSE

    Exchange Hybrid     =           TRUE
    MP2 Hybrid          =          FALSE

   => Exchange Functionals <=

    0.0800   Slater exchange
    0.7200         Becke 88

   => Exact (HF) Exchange <=

    0.2000               HF 

   => Correlation Functionals <=

    0.1900   Vosko, Wilk & Nusair (VWN5_RPA)
    0.8100   Lee, Yang & Parr

   => LibXC Density Thresholds  <==

    XC_HYB_GGA_XC_B3LYP:  1.00E-15 

   => Molecular Quadrature <=

    Radial Scheme          =       TREUTLER
    Pruning Scheme         =           NONE
    Nuclear Scheme         =       TREUTLER

    Blocking Scheme        =         OCTREE
    BS radius alpha        =              1
    Pruning alpha          =              1
    Radial Points          =             75
    Spherical Points       =            302
    Total Points           =          40692
    Total Blocks           =            376
    Max Points             =            241
    Max Functions          =             36
    Weights Tolerance      =       1.00E-15


  -Total Gradient:
     Atom            X                  Y                   Z
    ------   -----------------  -----------------  -----------------
       1        0.000000000000    -0.000000000000    -2.951192344511
       2        0.000000000000     0.000000000000     2.951218192645


*** tstop() called on Joses-MacBook-Pro-2.local at Thu Jul 17 12:01:24 2025
Module time:
	user time   =       2.08 seconds =       0.03 minutes
	system time =       1.37 seconds =       0.02 minutes
	total time  =          1 seconds =       0.02 minutes
Total time:
	user time   =      20.93 seconds =       0.35 minutes
	system time =       2.97 seconds =       0.05 minutes
	total time  =          3 seconds =       0.05 minutes

    			-----------------------------------------

    			 OPTKING 3.0: for geometry optimizations 

    			     By R.A. King, Bethel University     

    			        with contributions from          

    			    A.V. Copan, J. Cayton, A. Heide      

    			-----------------------------------------

    
	                            ===> Fragment 1 <== 

	 Z (Atomic Numbers)          Masses                          Geom                  
	      15.000000            30.973762          0.00000000  0.00000000  1.15181810   
	      16.000000            31.972071          0.00000000  0.00000000 -1.11585325   

	 - Coordinate -           - BOHR/RAD -       - ANG/DEG -
	 R(1,2)           =         2.267671           1.200000


	        --- Internal Coordinate Step in ANG or DEG, aJ/ANG or AJ/DEG ---
	-------------------------------------------------------------------------------
	           Coordinate      Previous         Force          Change          New 
	           ----------      --------        ------          ------        ------
	               R(1,2)       1.20000       24.31416        0.00717       1.20717
	-------------------------------------------------------------------------------

	                                 ==> Convergence Check <==                                  
    
	Measures of convergence in internal coordinates in au.
    
	Criteria marked as inactive (o), active & met (*), and active & unmet ( ).

	----------------------------------------------------------------------------------------------
	   Step    Total Energy     Delta E     Max Force     RMS Force      Max Disp      RMS Disp   
	----------------------------------------------------------------------------------------------
	  Convergence Criteria     1.00e-06 *    3.00e-04 *             o    1.20e-03 *             o
	----------------------------------------------------------------------------------------------
	     1    -738.02003524   -7.38e+02      2.95e+00      2.95e+00 o    1.35e-02      1.35e-02 o  ~
	----------------------------------------------------------------------------------------------

Next Geometry in Ang 
	Fragment 1 (Ang)

	    P   0.0000000000   0.0000000000   0.6131000616
	    S   0.0000000000   0.0000000000  -0.5940682854


    Structure for next step:
    Molecular point group: c2v
    Full point group: C_inf_v

    Geometry (in Angstrom), charge = -1, multiplicity = 5:

    P            0.000000000000     0.000000000000     0.613156905961
    S            0.000000000000     0.000000000000    -0.594011441090


Scratch directory: /tmp/
gradient() will perform analytic gradient computation.
   => Libint2 <=

    Primary   basis highest AM E, G, H:  6, 6, 3
    Auxiliary basis highest AM E, G, H:  7, 7, 4
    Onebody   basis highest AM E, G, H:  -, -, -
    Solid Harmonics ordering:            Gaussian

*** tstart() called on Joses-MacBook-Pro-2.local
*** at Thu Jul 17 12:01:24 2025

   => Loading Basis Set <=

    Name: CC-PVDZ
    Role: ORBITAL
    Keyword: BASIS
    atoms 1 entry P          line   538 file /Users/joseantoniorodriguesromero/anaconda3/share/psi4/basis/cc-pvdz.gbs 
    atoms 2 entry S          line   598 file /Users/joseantoniorodriguesromero/anaconda3/share/psi4/basis/cc-pvdz.gbs 


         ---------------------------------------------------------
                                   SCF
               by Justin Turney, Rob Parrish, Andy Simmonett
                          and Daniel G. A. Smith
                              UKS Reference
                        1 Threads,    500 MiB Core
         ---------------------------------------------------------

  ==> Geometry <==

    Molecular point group: c2v
    Full point group: C_inf_v

    Geometry (in Angstrom), charge = -1, multiplicity = 5:

       Center              X                  Y                   Z               Mass       
    ------------   -----------------  -----------------  -----------------  -----------------
         P            0.000000000000     0.000000000000     0.613156905961    30.973761998420
         S            0.000000000000     0.000000000000    -0.594011441090    31.972071174400

  Running in c2v symmetry.

  Rotational constants: A = ************  B =      0.73530  C =      0.73530 [cm^-1]
  Rotational constants: A = ************  B =  22043.66381  C =  22043.66381 [MHz]
  Nuclear repulsion =  105.206975374324742

  Charge       = -1
  Multiplicity = 5
  Electrons    = 32
  Nalpha       = 18
  Nbeta        = 14

  ==> Algorithm <==

  SCF Algorithm Type is DF.
  DIIS enabled.
  MOM disabled.
  Fractional occupation disabled.
  Guess Type is READ.
  Energy threshold   = 1.00e-08
  Density threshold  = 1.00e-08
  Integral threshold = 1.00e-12

  ==> Primary Basis <==

  Basis Set: CC-PVDZ
    Blend: CC-PVDZ
    Number of shells: 16
    Number of basis functions: 36
    Number of Cartesian functions: 38
    Spherical Harmonics?: true
    Max angular momentum: 2

  ==> DFT Potential <==

   => LibXC <=

    Version 6.2.2
    S. Lehtola, C. Steigemann, M. J.T. Oliveira, and M. A.L. Marques.,  SoftwareX 7, 1–5 (2018) (10.1016/j.softx.2017.11.002)

   => Composite Functional: B3LYP <= 

    B3LYP Hyb-GGA Exchange-Correlation Functional

    P. J. Stephens, F. J. Devlin, C. F. Chabalowski, and M. J. Frisch.,  J. Phys. Chem. 98, 11623 (1994) (10.1021/j100096a001)

    Deriv               =              1
    GGA                 =           TRUE
    Meta                =          FALSE

    Exchange Hybrid     =           TRUE
    MP2 Hybrid          =          FALSE

   => Exchange Functionals <=

    0.0800   Slater exchange
    0.7200         Becke 88

   => Exact (HF) Exchange <=

    0.2000               HF 

   => Correlation Functionals <=

    0.1900   Vosko, Wilk & Nusair (VWN5_RPA)
    0.8100   Lee, Yang & Parr

   => LibXC Density Thresholds  <==

    XC_HYB_GGA_XC_B3LYP:  1.00E-15 

   => Molecular Quadrature <=

    Radial Scheme          =       TREUTLER
    Pruning Scheme         =           NONE
    Nuclear Scheme         =       TREUTLER

    Blocking Scheme        =         OCTREE
    BS radius alpha        =              1
    Pruning alpha          =              1
    Radial Points          =             75
    Spherical Points       =            302
    Total Points           =          40692
    Total Blocks           =            376
    Max Points             =            241
    Max Functions          =             36
    Weights Tolerance      =       1.00E-15

   => Loading Basis Set <=

    Name: (CC-PVDZ AUX)
    Role: JKFIT
    Keyword: DF_BASIS_SCF
    atoms 1 entry P          line   519 file /Users/joseantoniorodriguesromero/anaconda3/share/psi4/basis/cc-pvdz-jkfit.gbs 
    atoms 2 entry S          line   593 file /Users/joseantoniorodriguesromero/anaconda3/share/psi4/basis/cc-pvdz-jkfit.gbs 

   => Loading Basis Set <=

    Name: CC-PVDZ
    Role: ORBITAL
    Keyword: BASIS
    atoms 1 entry P          line   538 file /Users/joseantoniorodriguesromero/anaconda3/share/psi4/basis/cc-pvdz.gbs 
    atoms 2 entry S          line   598 file /Users/joseantoniorodriguesromero/anaconda3/share/psi4/basis/cc-pvdz.gbs 

  Reading orbitals from file /tmp/quintet_PS.default.73431.180.npy, no projection.

  ==> Integral Setup <==

  DFHelper Memory: AOs need 0.003 GiB; user supplied 0.324 GiB. 
  Using in-core AOs.

  ==> MemDFJK: Density-Fitted J/K Matrices <==

    J tasked:                   Yes
    K tasked:                   Yes
    wK tasked:                   No
    OpenMP threads:               1
    Memory [MiB]:               331
    Algorithm:                 Core
    Schwarz Cutoff:           1E-12
    Mask sparsity (%):       0.0000
    Fitting Condition:        1E-10

   => Auxiliary Basis Set <=

  Basis Set: (CC-PVDZ AUX)
    Blend: CC-PVDZ-JKFIT
    Number of shells: 72
    Number of basis functions: 224
    Number of Cartesian functions: 260
    Spherical Harmonics?: true
    Max angular momentum: 3

  Cached 100.0% of DFT collocation blocks in 0.042 [GiB].

  Minimum eigenvalue in the overlap matrix is 3.5041481171E-03.
  Reciprocal condition number of the overlap matrix is 1.0987766212E-03.
    Using symmetric orthogonalization.

  ==> Pre-Iterations <==

  SCF Guess: Orbitals guess was supplied from a previous computation.

   -------------------------------------------------------
    Irrep   Nso     Nmo     Nalpha   Nbeta   Ndocc  Nsocc
   -------------------------------------------------------
     A1        18      18      10       8       8       2
     A2         2       2       0       0       0       0
     B1         8       8       4       3       3       1
     B2         8       8       4       3       3       1
   -------------------------------------------------------
    Total      36      36      18      14      14       4
   -------------------------------------------------------

  ==> Iterations <==

                           Total Energy        Delta E     RMS |[F,P]|

   @DF-UKS iter   0:  -738.06075637605943   -7.38061e+02   7.83121e-03 
   @DF-UKS iter   1:  -738.05937415380288    1.38222e-03   5.45956e-04 ADIIS/DIIS
   @DF-UKS iter   2:  -738.05939341281362   -1.92590e-05   4.92690e-04 ADIIS/DIIS/DAMP=1%
   @DF-UKS iter   3:  -738.06034615088288   -9.52738e-04   3.82864e-05 DIIS/DAMP=1%
   @DF-UKS iter   4:  -738.05948467710994    8.61474e-04   1.71317e-05 DIIS/DAMP=1%
   @DF-UKS iter   5:  -738.05946465518389    2.00219e-05   3.31678e-06 DIIS/DAMP=1%
   @DF-UKS iter   6:  -738.05946715255595   -2.49737e-06   6.55937e-07 DIIS/DAMP=1%
   @DF-UKS iter   7:  -738.05946491359941    2.23896e-06   2.14629e-07 DIIS/DAMP=1%
   @DF-UKS iter   8:  -738.05946536690931   -4.53310e-07   1.31652e-08 DIIS/DAMP=1%
   @DF-UKS iter   9:  -738.05946530842971    5.84796e-08   3.21427e-09 DIIS/DAMP=1%
   @DF-UKS iter  10:  -738.05946531474513   -6.31542e-09   3.58393e-10 DIIS/DAMP=1%
  Energy and wave function converged.


  ==> Post-Iterations <==

   Electrons on quadrature grid:
      Nalpha   =   17.9999974143 ; deviation = -2.586e-06
      Nbeta    =   13.9999974751 ; deviation = -2.525e-06
      Ntotal   =   31.9999948894 ; deviation = -5.111e-06 

   @Spin Contamination Metric:   3.684630872E-03
   @S^2 Expected:                6.000000000E+00
   @S^2 Observed:                6.003684631E+00
   @S   Expected:                2.000000000E+00
   @S   Observed:                2.000000000E+00

    Orbital Energies [Eh]
    ---------------------

    Alpha Occupied:                                                       

       1A1   -88.634948     2A1   -76.887385     3A1    -7.782272  
       4A1    -6.437288     5A1    -5.759060     1B2    -5.717598  
       1B1    -5.717598     6A1    -4.622243     2B1    -4.571310  
       2B2    -4.571310     7A1    -0.709641     8A1    -0.268801  
       3B1    -0.244852     3B2    -0.244852     9A1    -0.113191  
       4B1     0.108969     4B2     0.108969    10A1     0.275721  

    Alpha Virtual:                                                        

       5B1     0.444359     5B2     0.444359    11A1     0.481803  
       1A2     0.545867    12A1     0.545868    13A1     0.564173  
       6B1     0.699984     6B2     0.699984    14A1     0.729626  
       7B2     0.793091     7B1     0.793091     2A2     0.936378  
      15A1     0.936379    16A1     0.958247    17A1     1.288175  
       8B1     1.420832     8B2     1.420832    18A1     2.532425  

    Beta Occupied:                                                        

       1A1   -88.626890     2A1   -76.878952     3A1    -7.773154  
       4A1    -6.428400     5A1    -5.746307     1B2    -5.707627  
       1B1    -5.707627     6A1    -4.604731     2B1    -4.560298  
       2B2    -4.560298     7A1    -0.671712     3B1    -0.207088  
       3B2    -0.207088     8A1    -0.178816  

    Beta Virtual:                                                         

       9A1     0.043491     4B1     0.235826     4B2     0.235826  
      10A1     0.368896     5B1     0.481430     5B2     0.481430  
      11A1     0.512942     1A2     0.593019    12A1     0.593020  
      13A1     0.630115     6B1     0.761710     6B2     0.761710  
      14A1     0.802008     7B2     0.849014     7B1     0.849014  
       2A2     1.001407    15A1     1.001408    16A1     1.006633  
      17A1     1.327085     8B1     1.477696     8B2     1.477696  
      18A1     2.573796  

    Final Occupation by Irrep:
             A1    A2    B1    B2 
    DOCC [     8,    0,    3,    3 ]
    SOCC [     2,    0,    1,    1 ]
    NA   [    10,    0,    4,    4 ]
    NB   [     8,    0,    3,    3 ]

  @DF-UKS Final Energy:  -738.05946531474513

   => Energetics <=

    Nuclear Repulsion Energy =            105.2069753743247418
    One-Electron Energy =               -1234.3913729493683604
    Two-Electron Energy =                 431.2049368199263313
    DFT Exchange-Correlation Energy =     -40.0800045596276746
    Empirical Dispersion Energy =           0.0000000000000000
    VV10 Nonlocal Energy =                  0.0000000000000000
    Total Energy =                       -738.0594653147450117

  UHF NO Occupations:
  HONO-2 :    4 B1 1.0000000
  HONO-1 :    4 B2 1.0000000
  HONO-0 :   10 A1 1.0000000
  LUNO+0 :    5 B1 0.0008489
  LUNO+1 :    5 B2 0.0008489
  LUNO+2 :   11 A1 0.0001229
  LUNO+3 :   12 A1 0.0000220


Computation Completed


Properties will be evaluated at   0.000000,   0.000000,   0.000000 [a0]

Properties computed using the SCF density matrix


 Multipole Moments:

 ------------------------------------------------------------------------------------
     Multipole            Electronic (a.u.)      Nuclear  (a.u.)        Total (a.u.)
 ------------------------------------------------------------------------------------

 L = 1.  Multiply by 2.5417464519 to convert [e a0] to [Debye]
 Dipole X            :          0.0000000            0.0000000            0.0000000
 Dipole Y            :          0.0000000            0.0000000            0.0000000
 Dipole Z            :         -0.2334146           -0.5798237           -0.8132383
 Magnitude           :                                                    0.8132383

 ------------------------------------------------------------------------------------

*** tstop() called on Joses-MacBook-Pro-2.local at Thu Jul 17 12:01:24 2025
Module time:
	user time   =       8.04 seconds =       0.13 minutes
	system time =       1.43 seconds =       0.02 minutes
	total time  =          0 seconds =       0.00 minutes
Total time:
	user time   =      29.23 seconds =       0.49 minutes
	system time =       4.40 seconds =       0.07 minutes
	total time  =          3 seconds =       0.05 minutes

*** tstart() called on Joses-MacBook-Pro-2.local
*** at Thu Jul 17 12:01:24 2025


         ------------------------------------------------------------
                                   SCF GRAD                          
                          Rob Parrish, Justin Turney,                
                       Andy Simmonett, and Alex Sokolov              
         ------------------------------------------------------------

  ==> Geometry <==

    Molecular point group: c2v
    Full point group: C_inf_v

    Geometry (in Angstrom), charge = -1, multiplicity = 5:

       Center              X                  Y                   Z               Mass       
    ------------   -----------------  -----------------  -----------------  -----------------
         P            0.000000000000     0.000000000000     0.613156905961    30.973761998420
         S            0.000000000000     0.000000000000    -0.594011441090    31.972071174400

  Nuclear repulsion =  105.206975374324742

  ==> Basis Set <==

  Basis Set: CC-PVDZ
    Blend: CC-PVDZ
    Number of shells: 16
    Number of basis functions: 36
    Number of Cartesian functions: 38
    Spherical Harmonics?: true
    Max angular momentum: 2

  ==> DFJKGrad: Density-Fitted SCF Gradients <==

    Gradient:                    1
    J tasked:                  Yes
    K tasked:                  Yes
    wK tasked:                  No
    OpenMP threads:              1
    Integrals threads:           1
    Memory [MiB]:              375
    Schwarz Cutoff:          1E-12
    Fitting Condition:       1E-10

   => Auxiliary Basis Set <=

  Basis Set: (CC-PVDZ AUX)
    Blend: CC-PVDZ-JKFIT
    Number of shells: 72
    Number of basis functions: 224
    Number of Cartesian functions: 260
    Spherical Harmonics?: true
    Max angular momentum: 3

  ==> DFT Potential <==

   => LibXC <=

    Version 6.2.2
    S. Lehtola, C. Steigemann, M. J.T. Oliveira, and M. A.L. Marques.,  SoftwareX 7, 1–5 (2018) (10.1016/j.softx.2017.11.002)

   => Composite Functional: B3LYP <= 

    B3LYP Hyb-GGA Exchange-Correlation Functional

    P. J. Stephens, F. J. Devlin, C. F. Chabalowski, and M. J. Frisch.,  J. Phys. Chem. 98, 11623 (1994) (10.1021/j100096a001)

    Deriv               =              1
    GGA                 =           TRUE
    Meta                =          FALSE

    Exchange Hybrid     =           TRUE
    MP2 Hybrid          =          FALSE

   => Exchange Functionals <=

    0.0800   Slater exchange
    0.7200         Becke 88

   => Exact (HF) Exchange <=

    0.2000               HF 

   => Correlation Functionals <=

    0.1900   Vosko, Wilk & Nusair (VWN5_RPA)
    0.8100   Lee, Yang & Parr

   => LibXC Density Thresholds  <==

    XC_HYB_GGA_XC_B3LYP:  1.00E-15 

   => Molecular Quadrature <=

    Radial Scheme          =       TREUTLER
    Pruning Scheme         =           NONE
    Nuclear Scheme         =       TREUTLER

    Blocking Scheme        =         OCTREE
    BS radius alpha        =              1
    Pruning alpha          =              1
    Radial Points          =             75
    Spherical Points       =            302
    Total Points           =          40692
    Total Blocks           =            376
    Max Points             =            241
    Max Functions          =             36
    Weights Tolerance      =       1.00E-15


  -Total Gradient:
     Atom            X                  Y                   Z
    ------   -----------------  -----------------  -----------------
       1       -0.000000000000     0.000000000000    -2.870693982277
       2        0.000000000000     0.000000000000     2.870715618044


*** tstop() called on Joses-MacBook-Pro-2.local at Thu Jul 17 12:01:25 2025
Module time:
	user time   =       2.79 seconds =       0.05 minutes
	system time =       0.77 seconds =       0.01 minutes
	total time  =          1 seconds =       0.02 minutes
Total time:
	user time   =      32.03 seconds =       0.53 minutes
	system time =       5.17 seconds =       0.09 minutes
	total time  =          4 seconds =       0.07 minutes

    			-----------------------------------------

    			 OPTKING 3.0: for geometry optimizations 

    			     By R.A. King, Bethel University     

    			        with contributions from          

    			    A.V. Copan, J. Cayton, A. Heide      

    			-----------------------------------------

    
	                            ===> Fragment 1 <== 

	 Z (Atomic Numbers)          Masses                          Geom                  
	      15.000000            30.973762          0.00000000  0.00000000  1.15869862   
	      16.000000            31.972071          0.00000000  0.00000000 -1.12251894   

	 - Coordinate -           - BOHR/RAD -       - ANG/DEG -
	 R(1,2)           =         2.281218           1.207168


	        --- Internal Coordinate Step in ANG or DEG, aJ/ANG or AJ/DEG ---
	-------------------------------------------------------------------------------
	           Coordinate      Previous         Force          Change          New 
	           ----------      --------        ------          ------        ------
	               R(1,2)       1.20717       23.65094        0.01394       1.22111
	-------------------------------------------------------------------------------

	                                 ==> Convergence Check <==                                  
    
	Measures of convergence in internal coordinates in au.
    
	Criteria marked as inactive (o), active & met (*), and active & unmet ( ).

	----------------------------------------------------------------------------------------------
	   Step    Total Energy     Delta E     Max Force     RMS Force      Max Disp      RMS Disp   
	----------------------------------------------------------------------------------------------
	  Convergence Criteria     1.00e-06 *    3.00e-04 *             o    1.20e-03 *             o
	----------------------------------------------------------------------------------------------
	     2    -738.05946531   -3.94e-02      2.87e+00      2.87e+00 o    2.63e-02      2.63e-02 o  ~
	----------------------------------------------------------------------------------------------

Next Geometry in Ang 
	Fragment 1 (Ang)

	    P   0.0000000000   0.0000000000   0.6201261621
	    S   0.0000000000   0.0000000000  -0.6009806972


    Structure for next step:
    Molecular point group: c2v
    Full point group: C_inf_v

    Geometry (in Angstrom), charge = -1, multiplicity = 5:

    P            0.000000000000     0.000000000000     0.620236693197
    S            0.000000000000     0.000000000000    -0.600870166120


Scratch directory: /tmp/
gradient() will perform analytic gradient computation.
   => Libint2 <=

    Primary   basis highest AM E, G, H:  6, 6, 3
    Auxiliary basis highest AM E, G, H:  7, 7, 4
    Onebody   basis highest AM E, G, H:  -, -, -
    Solid Harmonics ordering:            Gaussian

*** tstart() called on Joses-MacBook-Pro-2.local
*** at Thu Jul 17 12:01:25 2025

   => Loading Basis Set <=

    Name: CC-PVDZ
    Role: ORBITAL
    Keyword: BASIS
    atoms 1 entry P          line   538 file /Users/joseantoniorodriguesromero/anaconda3/share/psi4/basis/cc-pvdz.gbs 
    atoms 2 entry S          line   598 file /Users/joseantoniorodriguesromero/anaconda3/share/psi4/basis/cc-pvdz.gbs 


         ---------------------------------------------------------
                                   SCF
               by Justin Turney, Rob Parrish, Andy Simmonett
                          and Daniel G. A. Smith
                              UKS Reference
                        1 Threads,    500 MiB Core
         ---------------------------------------------------------

  ==> Geometry <==

    Molecular point group: c2v
    Full point group: C_inf_v

    Geometry (in Angstrom), charge = -1, multiplicity = 5:

       Center              X                  Y                   Z               Mass       
    ------------   -----------------  -----------------  -----------------  -----------------
         P            0.000000000000     0.000000000000     0.620236693197    30.973761998420
         S            0.000000000000     0.000000000000    -0.600870166120    31.972071174400

  Running in c2v symmetry.

  Rotational constants: A = ************  B =      0.71861  C =      0.71861 [cm^-1]
  Rotational constants: A = ************  B =  21543.29439  C =  21543.29439 [MHz]
  Nuclear repulsion =  104.006074154526488

  Charge       = -1
  Multiplicity = 5
  Electrons    = 32
  Nalpha       = 18
  Nbeta        = 14

  ==> Algorithm <==

  SCF Algorithm Type is DF.
  DIIS enabled.
  MOM disabled.
  Fractional occupation disabled.
  Guess Type is READ.
  Energy threshold   = 1.00e-08
  Density threshold  = 1.00e-08
  Integral threshold = 1.00e-12

  ==> Primary Basis <==

  Basis Set: CC-PVDZ
    Blend: CC-PVDZ
    Number of shells: 16
    Number of basis functions: 36
    Number of Cartesian functions: 38
    Spherical Harmonics?: true
    Max angular momentum: 2

  ==> DFT Potential <==

   => LibXC <=

    Version 6.2.2
    S. Lehtola, C. Steigemann, M. J.T. Oliveira, and M. A.L. Marques.,  SoftwareX 7, 1–5 (2018) (10.1016/j.softx.2017.11.002)

   => Composite Functional: B3LYP <= 

    B3LYP Hyb-GGA Exchange-Correlation Functional

    P. J. Stephens, F. J. Devlin, C. F. Chabalowski, and M. J. Frisch.,  J. Phys. Chem. 98, 11623 (1994) (10.1021/j100096a001)

    Deriv               =              1
    GGA                 =           TRUE
    Meta                =          FALSE

    Exchange Hybrid     =           TRUE
    MP2 Hybrid          =          FALSE

   => Exchange Functionals <=

    0.0800   Slater exchange
    0.7200         Becke 88

   => Exact (HF) Exchange <=

    0.2000               HF 

   => Correlation Functionals <=

    0.1900   Vosko, Wilk & Nusair (VWN5_RPA)
    0.8100   Lee, Yang & Parr

   => LibXC Density Thresholds  <==

    XC_HYB_GGA_XC_B3LYP:  1.00E-15 

   => Molecular Quadrature <=

    Radial Scheme          =       TREUTLER
    Pruning Scheme         =           NONE
    Nuclear Scheme         =       TREUTLER

    Blocking Scheme        =         OCTREE
    BS radius alpha        =              1
    Pruning alpha          =              1
    Radial Points          =             75
    Spherical Points       =            302
    Total Points           =          40692
    Total Blocks           =            376
    Max Points             =            241
    Max Functions          =             36
    Weights Tolerance      =       1.00E-15

   => Loading Basis Set <=

    Name: (CC-PVDZ AUX)
    Role: JKFIT
    Keyword: DF_BASIS_SCF
    atoms 1 entry P          line   519 file /Users/joseantoniorodriguesromero/anaconda3/share/psi4/basis/cc-pvdz-jkfit.gbs 
    atoms 2 entry S          line   593 file /Users/joseantoniorodriguesromero/anaconda3/share/psi4/basis/cc-pvdz-jkfit.gbs 

   => Loading Basis Set <=

    Name: CC-PVDZ
    Role: ORBITAL
    Keyword: BASIS
    atoms 1 entry P          line   538 file /Users/joseantoniorodriguesromero/anaconda3/share/psi4/basis/cc-pvdz.gbs 
    atoms 2 entry S          line   598 file /Users/joseantoniorodriguesromero/anaconda3/share/psi4/basis/cc-pvdz.gbs 

  Reading orbitals from file /tmp/quintet_PS.default.73431.180.npy, no projection.

  ==> Integral Setup <==

  DFHelper Memory: AOs need 0.003 GiB; user supplied 0.324 GiB. 
  Using in-core AOs.

  ==> MemDFJK: Density-Fitted J/K Matrices <==

    J tasked:                   Yes
    K tasked:                   Yes
    wK tasked:                   No
    OpenMP threads:               1
    Memory [MiB]:               331
    Algorithm:                 Core
    Schwarz Cutoff:           1E-12
    Mask sparsity (%):       0.0000
    Fitting Condition:        1E-10

   => Auxiliary Basis Set <=

  Basis Set: (CC-PVDZ AUX)
    Blend: CC-PVDZ-JKFIT
    Number of shells: 72
    Number of basis functions: 224
    Number of Cartesian functions: 260
    Spherical Harmonics?: true
    Max angular momentum: 3

  Cached 100.0% of DFT collocation blocks in 0.042 [GiB].

  Minimum eigenvalue in the overlap matrix is 3.6293594642E-03.
  Reciprocal condition number of the overlap matrix is 1.1384684870E-03.
    Using symmetric orthogonalization.

  ==> Pre-Iterations <==

  SCF Guess: Orbitals guess was supplied from a previous computation.

   -------------------------------------------------------
    Irrep   Nso     Nmo     Nalpha   Nbeta   Ndocc  Nsocc
   -------------------------------------------------------
     A1        18      18      10       8       8       2
     A2         2       2       0       0       0       0
     B1         8       8       4       3       3       1
     B2         8       8       4       3       3       1
   -------------------------------------------------------
    Total      36      36      18      14      14       4
   -------------------------------------------------------

  ==> Iterations <==

                           Total Energy        Delta E     RMS |[F,P]|

   @DF-UKS iter   0:  -738.13773972046647   -7.38138e+02   1.50651e-02 
   @DF-UKS iter   1:  -738.13271923361447    5.02049e-03   1.07157e-03 ADIIS/DIIS
   @DF-UKS iter   2:  -738.13279120720961   -7.19736e-05   9.68696e-04 ADIIS/DIIS/DAMP=1%
   @DF-UKS iter   3:  -738.13478485377675   -1.99365e-03   8.42578e-05 DIIS/DAMP=1%
   @DF-UKS iter   4:  -738.13311254969221    1.67230e-03   3.27265e-05 DIIS/DAMP=1%
   @DF-UKS iter   5:  -738.13306977790978    4.27718e-05   6.17485e-06 DIIS/DAMP=1%
   @DF-UKS iter   6:  -738.13307469265726   -4.91475e-06   1.22990e-06 DIIS/DAMP=1%
   @DF-UKS iter   7:  -738.13307051622849    4.17643e-06   4.19003e-07 DIIS/DAMP=1%
   @DF-UKS iter   8:  -738.13307141533573   -8.99107e-07   2.63975e-08 DIIS/DAMP=1%
   @DF-UKS iter   9:  -738.13307129107170    1.24264e-07   6.47458e-09 DIIS/DAMP=1%
   @DF-UKS iter  10:  -738.13307130283113   -1.17594e-08   7.24092e-10 DIIS/DAMP=1%
   @DF-UKS iter  11:  -738.13307130326086   -4.29736e-10   6.92466e-11 DIIS/DAMP=1%
  Energy and wave function converged.


  ==> Post-Iterations <==

   Electrons on quadrature grid:
      Nalpha   =   17.9999975199 ; deviation = -2.480e-06
      Nbeta    =   13.9999975520 ; deviation = -2.448e-06
      Ntotal   =   31.9999950719 ; deviation = -4.928e-06 

   @Spin Contamination Metric:   3.744501563E-03
   @S^2 Expected:                6.000000000E+00
   @S^2 Observed:                6.003744502E+00
   @S   Expected:                2.000000000E+00
   @S   Observed:                2.000000000E+00

    Orbital Energies [Eh]
    ---------------------

    Alpha Occupied:                                                       

       1A1   -88.630465     2A1   -76.884083     3A1    -7.774397  
       4A1    -6.429417     5A1    -5.750553     1B2    -5.711294  
       1B1    -5.711294     6A1    -4.613986     2B2    -4.565453  
       2B1    -4.565453     7A1    -0.707904     8A1    -0.269671  
       3B2    -0.239949     3B1    -0.239949     9A1    -0.115660  
       4B1     0.107410     4B2     0.107410    10A1     0.275548  

    Alpha Virtual:                                                        

       5B2     0.447128     5B1     0.447128    11A1     0.479470  
       1A2     0.549747    12A1     0.549748    13A1     0.564520  
       6B2     0.699549     6B1     0.699549    14A1     0.725705  
       7B2     0.791215     7B1     0.791215     2A2     0.933662  
      15A1     0.933663    16A1     0.957061    17A1     1.280067  
       8B2     1.411131     8B1     1.411131    18A1     2.483771  

    Beta Occupied:                                                        

       1A1   -88.622471     2A1   -76.875616     3A1    -7.765364  
       4A1    -6.420452     5A1    -5.737943     1B2    -5.701352  
       1B1    -5.701352     6A1    -4.596626     2B2    -4.554315  
       2B1    -4.554315     7A1    -0.670001     3B2    -0.201875  
       3B1    -0.201875     8A1    -0.180061  

    Beta Virtual:                                                         

       9A1     0.041484     4B1     0.234360     4B2     0.234360  
      10A1     0.369481     5B2     0.483926     5B1     0.483926  
      11A1     0.510386     1A2     0.597520    12A1     0.597521  
      13A1     0.630409     6B2     0.761576     6B1     0.761576  
      14A1     0.797919     7B2     0.846437     7B1     0.846437  
       2A2     0.998553    15A1     0.998554    16A1     1.005628  
      17A1     1.318843     8B2     1.467944     8B1     1.467944  
      18A1     2.525207  

    Final Occupation by Irrep:
             A1    A2    B1    B2 
    DOCC [     8,    0,    3,    3 ]
    SOCC [     2,    0,    1,    1 ]
    NA   [    10,    0,    4,    4 ]
    NB   [     8,    0,    3,    3 ]

  @DF-UKS Final Energy:  -738.13307130326086

   => Energetics <=

    Nuclear Repulsion Energy =            104.0060741545264875
    One-Electron Energy =               -1232.2914054769207723
    Two-Electron Energy =                 430.2180318122270251
    DFT Exchange-Correlation Energy =     -40.0657717930935391
    Empirical Dispersion Energy =           0.0000000000000000
    VV10 Nonlocal Energy =                  0.0000000000000000
    Total Energy =                       -738.1330713032607491

  UHF NO Occupations:
  HONO-2 :    4 B2 1.0000000
  HONO-1 :    9 A1 1.0000000
  HONO-0 :   10 A1 1.0000000
  LUNO+0 :    5 B1 0.0008644
  LUNO+1 :    5 B2 0.0008644
  LUNO+2 :   11 A1 0.0001219
  LUNO+3 :   12 A1 0.0000219


Computation Completed


Properties will be evaluated at   0.000000,   0.000000,   0.000000 [a0]

Properties computed using the SCF density matrix


 Multipole Moments:

 ------------------------------------------------------------------------------------
     Multipole            Electronic (a.u.)      Nuclear  (a.u.)        Total (a.u.)
 ------------------------------------------------------------------------------------

 L = 1.  Multiply by 2.5417464519 to convert [e a0] to [Debye]
 Dipole X            :          0.0000000            0.0000000            0.0000000
 Dipole Y            :          0.0000000            0.0000000            0.0000000
 Dipole Z            :         -0.2317663           -0.5865186           -0.8182849
 Magnitude           :                                                    0.8182849

 ------------------------------------------------------------------------------------

*** tstop() called on Joses-MacBook-Pro-2.local at Thu Jul 17 12:01:26 2025
Module time:
	user time   =       7.77 seconds =       0.13 minutes
	system time =       2.10 seconds =       0.04 minutes
	total time  =          1 seconds =       0.02 minutes
Total time:
	user time   =      39.85 seconds =       0.66 minutes
	system time =       7.46 seconds =       0.12 minutes
	total time  =          5 seconds =       0.08 minutes

*** tstart() called on Joses-MacBook-Pro-2.local
*** at Thu Jul 17 12:01:26 2025


         ------------------------------------------------------------
                                   SCF GRAD                          
                          Rob Parrish, Justin Turney,                
                       Andy Simmonett, and Alex Sokolov              
         ------------------------------------------------------------

  ==> Geometry <==

    Molecular point group: c2v
    Full point group: C_inf_v

    Geometry (in Angstrom), charge = -1, multiplicity = 5:

       Center              X                  Y                   Z               Mass       
    ------------   -----------------  -----------------  -----------------  -----------------
         P            0.000000000000     0.000000000000     0.620236693197    30.973761998420
         S            0.000000000000     0.000000000000    -0.600870166120    31.972071174400

  Nuclear repulsion =  104.006074154526488

  ==> Basis Set <==

  Basis Set: CC-PVDZ
    Blend: CC-PVDZ
    Number of shells: 16
    Number of basis functions: 36
    Number of Cartesian functions: 38
    Spherical Harmonics?: true
    Max angular momentum: 2

  ==> DFJKGrad: Density-Fitted SCF Gradients <==

    Gradient:                    1
    J tasked:                  Yes
    K tasked:                  Yes
    wK tasked:                  No
    OpenMP threads:              1
    Integrals threads:           1
    Memory [MiB]:              375
    Schwarz Cutoff:          1E-12
    Fitting Condition:       1E-10

   => Auxiliary Basis Set <=

  Basis Set: (CC-PVDZ AUX)
    Blend: CC-PVDZ-JKFIT
    Number of shells: 72
    Number of basis functions: 224
    Number of Cartesian functions: 260
    Spherical Harmonics?: true
    Max angular momentum: 3

  ==> DFT Potential <==

   => LibXC <=

    Version 6.2.2
    S. Lehtola, C. Steigemann, M. J.T. Oliveira, and M. A.L. Marques.,  SoftwareX 7, 1–5 (2018) (10.1016/j.softx.2017.11.002)

   => Composite Functional: B3LYP <= 

    B3LYP Hyb-GGA Exchange-Correlation Functional

    P. J. Stephens, F. J. Devlin, C. F. Chabalowski, and M. J. Frisch.,  J. Phys. Chem. 98, 11623 (1994) (10.1021/j100096a001)

    Deriv               =              1
    GGA                 =           TRUE
    Meta                =          FALSE

    Exchange Hybrid     =           TRUE
    MP2 Hybrid          =          FALSE

   => Exchange Functionals <=

    0.0800   Slater exchange
    0.7200         Becke 88

   => Exact (HF) Exchange <=

    0.2000               HF 

   => Correlation Functionals <=

    0.1900   Vosko, Wilk & Nusair (VWN5_RPA)
    0.8100   Lee, Yang & Parr

   => LibXC Density Thresholds  <==

    XC_HYB_GGA_XC_B3LYP:  1.00E-15 

   => Molecular Quadrature <=

    Radial Scheme          =       TREUTLER
    Pruning Scheme         =           NONE
    Nuclear Scheme         =       TREUTLER

    Blocking Scheme        =         OCTREE
    BS radius alpha        =              1
    Pruning alpha          =              1
    Radial Points          =             75
    Spherical Points       =            302
    Total Points           =          40692
    Total Blocks           =            376
    Max Points             =            241
    Max Functions          =             36
    Weights Tolerance      =       1.00E-15


  -Total Gradient:
     Atom            X                  Y                   Z
    ------   -----------------  -----------------  -----------------
       1        0.000000000000     0.000000000000    -2.719369486070
       2       -0.000000000000    -0.000000000000     2.719382690360


*** tstop() called on Joses-MacBook-Pro-2.local at Thu Jul 17 12:01:26 2025
Module time:
	user time   =       2.82 seconds =       0.05 minutes
	system time =       1.16 seconds =       0.02 minutes
	total time  =          0 seconds =       0.00 minutes
Total time:
	user time   =      42.67 seconds =       0.71 minutes
	system time =       8.62 seconds =       0.14 minutes
	total time  =          5 seconds =       0.08 minutes

    			-----------------------------------------

    			 OPTKING 3.0: for geometry optimizations 

    			     By R.A. King, Bethel University     

    			        with contributions from          

    			    A.V. Copan, J. Cayton, A. Heide      

    			-----------------------------------------

    
	                            ===> Fragment 1 <== 

	 Z (Atomic Numbers)          Masses                          Geom                  
	      15.000000            30.973762          0.00000000  0.00000000  1.17207748   
	      16.000000            31.972071          0.00000000  0.00000000 -1.13548005   

	 - Coordinate -           - BOHR/RAD -       - ANG/DEG -
	 R(1,2)           =         2.307558           1.221107


	        --- Internal Coordinate Step in ANG or DEG, aJ/ANG or AJ/DEG ---
	-------------------------------------------------------------------------------
	           Coordinate      Previous         Force          Change          New 
	           ----------      --------        ------          ------        ------
	               R(1,2)       1.22111       22.40419        0.05233       1.27344
	-------------------------------------------------------------------------------

	                                 ==> Convergence Check <==                                  
    
	Measures of convergence in internal coordinates in au.
    
	Criteria marked as inactive (o), active & met (*), and active & unmet ( ).

	----------------------------------------------------------------------------------------------
	   Step    Total Energy     Delta E     Max Force     RMS Force      Max Disp      RMS Disp   
	----------------------------------------------------------------------------------------------
	  Convergence Criteria     1.00e-06 *    3.00e-04 *             o    1.20e-03 *             o
	----------------------------------------------------------------------------------------------
	     3    -738.13307130   -7.36e-02      2.72e+00      2.72e+00 o    9.89e-02      9.89e-02 o  ~
	----------------------------------------------------------------------------------------------

Next Geometry in Ang 
	Fragment 1 (Ang)

	    P   0.0000000000   0.0000000000   0.6464040517
	    S   0.0000000000   0.0000000000  -0.6270375246


    Structure for next step:
    Molecular point group: c2v
    Full point group: C_inf_v

    Geometry (in Angstrom), charge = -1, multiplicity = 5:

    P            0.000000000000     0.000000000000     0.646819061091
    S            0.000000000000     0.000000000000    -0.626622515163


Scratch directory: /tmp/
gradient() will perform analytic gradient computation.
   => Libint2 <=

    Primary   basis highest AM E, G, H:  6, 6, 3
    Auxiliary basis highest AM E, G, H:  7, 7, 4
    Onebody   basis highest AM E, G, H:  -, -, -
    Solid Harmonics ordering:            Gaussian

*** tstart() called on Joses-MacBook-Pro-2.local
*** at Thu Jul 17 12:01:26 2025

   => Loading Basis Set <=

    Name: CC-PVDZ
    Role: ORBITAL
    Keyword: BASIS
    atoms 1 entry P          line   538 file /Users/joseantoniorodriguesromero/anaconda3/share/psi4/basis/cc-pvdz.gbs 
    atoms 2 entry S          line   598 file /Users/joseantoniorodriguesromero/anaconda3/share/psi4/basis/cc-pvdz.gbs 


         ---------------------------------------------------------
                                   SCF
               by Justin Turney, Rob Parrish, Andy Simmonett
                          and Daniel G. A. Smith
                              UKS Reference
                        1 Threads,    500 MiB Core
         ---------------------------------------------------------

  ==> Geometry <==

    Molecular point group: c2v
    Full point group: C_inf_v

    Geometry (in Angstrom), charge = -1, multiplicity = 5:

       Center              X                  Y                   Z               Mass       
    ------------   -----------------  -----------------  -----------------  -----------------
         P            0.000000000000     0.000000000000     0.646819061091    30.973761998420
         S            0.000000000000     0.000000000000    -0.626622515163    31.972071174400

  Running in c2v symmetry.

  Rotational constants: A = ************  B =      0.66076  C =      0.66076 [cm^-1]
  Rotational constants: A = ************  B =  19808.94781  C =  19808.94781 [MHz]
  Nuclear repulsion =   99.731729298830828

  Charge       = -1
  Multiplicity = 5
  Electrons    = 32
  Nalpha       = 18
  Nbeta        = 14

  ==> Algorithm <==

  SCF Algorithm Type is DF.
  DIIS enabled.
  MOM disabled.
  Fractional occupation disabled.
  Guess Type is READ.
  Energy threshold   = 1.00e-08
  Density threshold  = 1.00e-08
  Integral threshold = 1.00e-12

  ==> Primary Basis <==

  Basis Set: CC-PVDZ
    Blend: CC-PVDZ
    Number of shells: 16
    Number of basis functions: 36
    Number of Cartesian functions: 38
    Spherical Harmonics?: true
    Max angular momentum: 2

  ==> DFT Potential <==

   => LibXC <=

    Version 6.2.2
    S. Lehtola, C. Steigemann, M. J.T. Oliveira, and M. A.L. Marques.,  SoftwareX 7, 1–5 (2018) (10.1016/j.softx.2017.11.002)

   => Composite Functional: B3LYP <= 

    B3LYP Hyb-GGA Exchange-Correlation Functional

    P. J. Stephens, F. J. Devlin, C. F. Chabalowski, and M. J. Frisch.,  J. Phys. Chem. 98, 11623 (1994) (10.1021/j100096a001)

    Deriv               =              1
    GGA                 =           TRUE
    Meta                =          FALSE

    Exchange Hybrid     =           TRUE
    MP2 Hybrid          =          FALSE

   => Exchange Functionals <=

    0.0800   Slater exchange
    0.7200         Becke 88

   => Exact (HF) Exchange <=

    0.2000               HF 

   => Correlation Functionals <=

    0.1900   Vosko, Wilk & Nusair (VWN5_RPA)
    0.8100   Lee, Yang & Parr

   => LibXC Density Thresholds  <==

    XC_HYB_GGA_XC_B3LYP:  1.00E-15 

   => Molecular Quadrature <=

    Radial Scheme          =       TREUTLER
    Pruning Scheme         =           NONE
    Nuclear Scheme         =       TREUTLER

    Blocking Scheme        =         OCTREE
    BS radius alpha        =              1
    Pruning alpha          =              1
    Radial Points          =             75
    Spherical Points       =            302
    Total Points           =          40692
    Total Blocks           =            372
    Max Points             =            256
    Max Functions          =             36
    Weights Tolerance      =       1.00E-15

   => Loading Basis Set <=

    Name: (CC-PVDZ AUX)
    Role: JKFIT
    Keyword: DF_BASIS_SCF
    atoms 1 entry P          line   519 file /Users/joseantoniorodriguesromero/anaconda3/share/psi4/basis/cc-pvdz-jkfit.gbs 
    atoms 2 entry S          line   593 file /Users/joseantoniorodriguesromero/anaconda3/share/psi4/basis/cc-pvdz-jkfit.gbs 

   => Loading Basis Set <=

    Name: CC-PVDZ
    Role: ORBITAL
    Keyword: BASIS
    atoms 1 entry P          line   538 file /Users/joseantoniorodriguesromero/anaconda3/share/psi4/basis/cc-pvdz.gbs 
    atoms 2 entry S          line   598 file /Users/joseantoniorodriguesromero/anaconda3/share/psi4/basis/cc-pvdz.gbs 

  Reading orbitals from file /tmp/quintet_PS.default.73431.180.npy, no projection.

  ==> Integral Setup <==

  DFHelper Memory: AOs need 0.003 GiB; user supplied 0.324 GiB. 
  Using in-core AOs.

  ==> MemDFJK: Density-Fitted J/K Matrices <==

    J tasked:                   Yes
    K tasked:                   Yes
    wK tasked:                   No
    OpenMP threads:               1
    Memory [MiB]:               331
    Algorithm:                 Core
    Schwarz Cutoff:           1E-12
    Mask sparsity (%):       0.0000
    Fitting Condition:        1E-10

   => Auxiliary Basis Set <=

  Basis Set: (CC-PVDZ AUX)
    Blend: CC-PVDZ-JKFIT
    Number of shells: 72
    Number of basis functions: 224
    Number of Cartesian functions: 260
    Spherical Harmonics?: true
    Max angular momentum: 3

  Cached 100.0% of DFT collocation blocks in 0.042 [GiB].

  Minimum eigenvalue in the overlap matrix is 4.1341833698E-03.
  Reciprocal condition number of the overlap matrix is 1.2991073337E-03.
    Using symmetric orthogonalization.

  ==> Pre-Iterations <==

  SCF Guess: Orbitals guess was supplied from a previous computation.

   -------------------------------------------------------
    Irrep   Nso     Nmo     Nalpha   Nbeta   Ndocc  Nsocc
   -------------------------------------------------------
     A1        18      18      10       8       8       2
     A2         2       2       0       0       0       0
     B1         8       8       4       3       3       1
     B2         8       8       4       3       3       1
   -------------------------------------------------------
    Total      36      36      18      14      14       4
   -------------------------------------------------------

  ==> Iterations <==

                           Total Energy        Delta E     RMS |[F,P]|

   @DF-UKS iter   0:  -738.43810558996620   -7.38438e+02   5.61590e-02 
   @DF-UKS iter   1:  -738.37009076127754    6.80148e-02   4.39905e-03 ADIIS/DIIS
   @DF-UKS iter   2:  -738.37122989858904   -1.13914e-03   3.97736e-03 ADIIS/DIIS/DAMP=1%
   @DF-UKS iter   3:  -738.38281165181559   -1.15818e-02   4.57793e-04 ADIIS/DIIS/DAMP=1%
   @DF-UKS iter   4:  -738.37628740916421    6.52424e-03   1.40900e-04 ADIIS/DIIS/DAMP=1%
   @DF-UKS iter   5:  -738.37606090411475    2.26505e-04   2.21592e-05 DIIS/DAMP=1%
   @DF-UKS iter   6:  -738.37608640843939   -2.55043e-05   4.22768e-06 DIIS/DAMP=1%
   @DF-UKS iter   7:  -738.37607052883493    1.58796e-05   1.71448e-06 DIIS/DAMP=1%
   @DF-UKS iter   8:  -738.37607396429837   -3.43546e-06   1.18329e-07 DIIS/DAMP=1%
   @DF-UKS iter   9:  -738.37607348643689    4.77861e-07   2.82073e-08 DIIS/DAMP=1%
   @DF-UKS iter  10:  -738.37607351647807   -3.00412e-08   3.18330e-09 DIIS/DAMP=1%
   @DF-UKS iter  11:  -738.37607352043131   -3.95323e-09   3.01907e-10 DIIS/DAMP=1%
  Energy and wave function converged.


  ==> Post-Iterations <==

   Electrons on quadrature grid:
      Nalpha   =   17.9999984960 ; deviation = -1.504e-06
      Nbeta    =   13.9999984136 ; deviation = -1.586e-06
      Ntotal   =   31.9999969097 ; deviation = -3.090e-06 

   @Spin Contamination Metric:   3.930264516E-03
   @S^2 Expected:                6.000000000E+00
   @S^2 Observed:                6.003930265E+00
   @S   Expected:                2.000000000E+00
   @S   Observed:                2.000000000E+00

    Orbital Energies [Eh]
    ---------------------

    Alpha Occupied:                                                       

       1A1   -88.618860     2A1   -76.875911     3A1    -7.750832  
       4A1    -6.405665     5A1    -5.724561     1B2    -5.692678  
       1B1    -5.692678     6A1    -4.588039     2B2    -4.547946  
       2B1    -4.547946     7A1    -0.700198     8A1    -0.273313  
       3B2    -0.222838     3B1    -0.222838     9A1    -0.123682  
       4B1     0.101257     4B2     0.101257    10A1     0.274828  

    Alpha Virtual:                                                        

       5B2     0.457584     5B1     0.457584    11A1     0.471696  
       1A2     0.563335    12A1     0.563337    13A1     0.565860  
       6B1     0.697399     6B2     0.697399    14A1     0.711302  
       7B1     0.784045     7B2     0.784045    15A1     0.923481  
       2A2     0.923481    16A1     0.953526    17A1     1.252295  
       8B2     1.375090     8B1     1.375090    18A1     2.326334  

    Beta Occupied:                                                        

       1A1   -88.611088     2A1   -76.867300     3A1    -7.742088  
       4A1    -6.396386     5A1    -5.712452     1B2    -5.682835  
       1B1    -5.682835     6A1    -4.571261     2B2    -4.536324  
       2B1    -4.536324     7A1    -0.662241     8A1    -0.184846  
       3B1    -0.183569     3B2    -0.183569  

    Beta Virtual:                                                         

       9A1     0.034769     4B1     0.228494     4B2     0.228494  
      10A1     0.371614     5B2     0.493441     5B1     0.493441  
      11A1     0.501947     1A2     0.613458    12A1     0.613460  
      13A1     0.631371     6B1     0.760428     6B2     0.760428  
      14A1     0.782740     7B1     0.836663     7B2     0.836663  
       2A2     0.987751    15A1     0.987752    16A1     1.002632  
      17A1     1.290778     8B2     1.431728     8B1     1.431728  
      18A1     2.368048  

    Final Occupation by Irrep:
             A1    A2    B1    B2 
    DOCC [     8,    0,    3,    3 ]
    SOCC [     2,    0,    1,    1 ]
    NA   [    10,    0,    4,    4 ]
    NB   [     8,    0,    3,    3 ]

  @DF-UKS Final Energy:  -738.37607352043131

   => Energetics <=

    Nuclear Repulsion Energy =             99.7317292988308282
    One-Electron Energy =               -1224.7034611725505329
    Two-Electron Energy =                 426.6091201483659461
    DFT Exchange-Correlation Energy =     -40.0134617950774754
    Empirical Dispersion Energy =           0.0000000000000000
    VV10 Nonlocal Energy =                  0.0000000000000000
    Total Energy =                       -738.3760735204313050

  UHF NO Occupations:
  HONO-2 :    4 B1 1.0000000
  HONO-1 :    4 B2 1.0000000
  HONO-0 :   10 A1 1.0000000
  LUNO+0 :    5 B1 0.0009124
  LUNO+1 :    5 B2 0.0009124
  LUNO+2 :   11 A1 0.0001186
  LUNO+3 :   12 A1 0.0000221


Computation Completed


Properties will be evaluated at   0.000000,   0.000000,   0.000000 [a0]

Properties computed using the SCF density matrix


 Multipole Moments:

 ------------------------------------------------------------------------------------
     Multipole            Electronic (a.u.)      Nuclear  (a.u.)        Total (a.u.)
 ------------------------------------------------------------------------------------

 L = 1.  Multiply by 2.5417464519 to convert [e a0] to [Debye]
 Dipole X            :          0.0000000            0.0000000            0.0000000
 Dipole Y            :          0.0000000            0.0000000            0.0000000
 Dipole Z            :         -0.2184949           -0.6116558           -0.8301508
 Magnitude           :                                                    0.8301508

 ------------------------------------------------------------------------------------

*** tstop() called on Joses-MacBook-Pro-2.local at Thu Jul 17 12:01:27 2025
Module time:
	user time   =       7.96 seconds =       0.13 minutes
	system time =       2.04 seconds =       0.03 minutes
	total time  =          1 seconds =       0.02 minutes
Total time:
	user time   =      50.76 seconds =       0.85 minutes
	system time =      10.82 seconds =       0.18 minutes
	total time  =          6 seconds =       0.10 minutes

*** tstart() called on Joses-MacBook-Pro-2.local
*** at Thu Jul 17 12:01:27 2025


         ------------------------------------------------------------
                                   SCF GRAD                          
                          Rob Parrish, Justin Turney,                
                       Andy Simmonett, and Alex Sokolov              
         ------------------------------------------------------------

  ==> Geometry <==

    Molecular point group: c2v
    Full point group: C_inf_v

    Geometry (in Angstrom), charge = -1, multiplicity = 5:

       Center              X                  Y                   Z               Mass       
    ------------   -----------------  -----------------  -----------------  -----------------
         P            0.000000000000     0.000000000000     0.646819061091    30.973761998420
         S            0.000000000000     0.000000000000    -0.626622515163    31.972071174400

  Nuclear repulsion =   99.731729298830828

  ==> Basis Set <==

  Basis Set: CC-PVDZ
    Blend: CC-PVDZ
    Number of shells: 16
    Number of basis functions: 36
    Number of Cartesian functions: 38
    Spherical Harmonics?: true
    Max angular momentum: 2

  ==> DFJKGrad: Density-Fitted SCF Gradients <==

    Gradient:                    1
    J tasked:                  Yes
    K tasked:                  Yes
    wK tasked:                  No
    OpenMP threads:              1
    Integrals threads:           1
    Memory [MiB]:              375
    Schwarz Cutoff:          1E-12
    Fitting Condition:       1E-10

   => Auxiliary Basis Set <=

  Basis Set: (CC-PVDZ AUX)
    Blend: CC-PVDZ-JKFIT
    Number of shells: 72
    Number of basis functions: 224
    Number of Cartesian functions: 260
    Spherical Harmonics?: true
    Max angular momentum: 3

  ==> DFT Potential <==

   => LibXC <=

    Version 6.2.2
    S. Lehtola, C. Steigemann, M. J.T. Oliveira, and M. A.L. Marques.,  SoftwareX 7, 1–5 (2018) (10.1016/j.softx.2017.11.002)

   => Composite Functional: B3LYP <= 

    B3LYP Hyb-GGA Exchange-Correlation Functional

    P. J. Stephens, F. J. Devlin, C. F. Chabalowski, and M. J. Frisch.,  J. Phys. Chem. 98, 11623 (1994) (10.1021/j100096a001)

    Deriv               =              1
    GGA                 =           TRUE
    Meta                =          FALSE

    Exchange Hybrid     =           TRUE
    MP2 Hybrid          =          FALSE

   => Exchange Functionals <=

    0.0800   Slater exchange
    0.7200         Becke 88

   => Exact (HF) Exchange <=

    0.2000               HF 

   => Correlation Functionals <=

    0.1900   Vosko, Wilk & Nusair (VWN5_RPA)
    0.8100   Lee, Yang & Parr

   => LibXC Density Thresholds  <==

    XC_HYB_GGA_XC_B3LYP:  1.00E-15 

   => Molecular Quadrature <=

    Radial Scheme          =       TREUTLER
    Pruning Scheme         =           NONE
    Nuclear Scheme         =       TREUTLER

    Blocking Scheme        =         OCTREE
    BS radius alpha        =              1
    Pruning alpha          =              1
    Radial Points          =             75
    Spherical Points       =            302
    Total Points           =          40692
    Total Blocks           =            372
    Max Points             =            256
    Max Functions          =             36
    Weights Tolerance      =       1.00E-15


  -Total Gradient:
     Atom            X                  Y                   Z
    ------   -----------------  -----------------  -----------------
       1        0.000000000000     0.000000000000    -2.209840070886
       2        0.000000000000    -0.000000000000     2.209820378555


*** tstop() called on Joses-MacBook-Pro-2.local at Thu Jul 17 12:01:27 2025
Module time:
	user time   =       2.53 seconds =       0.04 minutes
	system time =       0.77 seconds =       0.01 minutes
	total time  =          0 seconds =       0.00 minutes
Total time:
	user time   =      53.29 seconds =       0.89 minutes
	system time =      11.59 seconds =       0.19 minutes
	total time  =          6 seconds =       0.10 minutes

    			-----------------------------------------

    			 OPTKING 3.0: for geometry optimizations 

    			     By R.A. King, Bethel University     

    			        with contributions from          

    			    A.V. Copan, J. Cayton, A. Heide      

    			-----------------------------------------

    
	                            ===> Fragment 1 <== 

	 Z (Atomic Numbers)          Masses                          Geom                  
	      15.000000            30.973762          0.00000000  0.00000000  1.22231088   
	      16.000000            31.972071          0.00000000  0.00000000 -1.18414494   

	 - Coordinate -           - BOHR/RAD -       - ANG/DEG -
	 R(1,2)           =         2.406456           1.273442


	        --- Internal Coordinate Step in ANG or DEG, aJ/ANG or AJ/DEG ---
	-------------------------------------------------------------------------------
	           Coordinate      Previous         Force          Change          New 
	           ----------      --------        ------          ------        ------
	               R(1,2)       1.27344       18.20618        0.19053       1.46397
	-------------------------------------------------------------------------------

	                                 ==> Convergence Check <==                                  
    
	Measures of convergence in internal coordinates in au.
    
	Criteria marked as inactive (o), active & met (*), and active & unmet ( ).

	----------------------------------------------------------------------------------------------
	   Step    Total Energy     Delta E     Max Force     RMS Force      Max Disp      RMS Disp   
	----------------------------------------------------------------------------------------------
	  Convergence Criteria     1.00e-06 *    3.00e-04 *             o    1.20e-03 *             o
	----------------------------------------------------------------------------------------------
	     4    -738.37607352   -2.43e-01      2.21e+00      2.21e+00 o    3.60e-01      3.60e-01 o  ~
	----------------------------------------------------------------------------------------------

Next Geometry in Ang 
	Fragment 1 (Ang)

	    P   0.0000000000   0.0000000000   0.7420841726
	    S   0.0000000000   0.0000000000  -0.7218876267


    Structure for next step:
    Molecular point group: c2v
    Full point group: C_inf_v

    Geometry (in Angstrom), charge = -1, multiplicity = 5:

    P            0.000000000000     0.000000000000     0.743595059482
    S            0.000000000000     0.000000000000    -0.720376739748


Scratch directory: /tmp/
gradient() will perform analytic gradient computation.
   => Libint2 <=

    Primary   basis highest AM E, G, H:  6, 6, 3
    Auxiliary basis highest AM E, G, H:  7, 7, 4
    Onebody   basis highest AM E, G, H:  -, -, -
    Solid Harmonics ordering:            Gaussian

*** tstart() called on Joses-MacBook-Pro-2.local
*** at Thu Jul 17 12:01:27 2025

   => Loading Basis Set <=

    Name: CC-PVDZ
    Role: ORBITAL
    Keyword: BASIS
    atoms 1 entry P          line   538 file /Users/joseantoniorodriguesromero/anaconda3/share/psi4/basis/cc-pvdz.gbs 
    atoms 2 entry S          line   598 file /Users/joseantoniorodriguesromero/anaconda3/share/psi4/basis/cc-pvdz.gbs 


         ---------------------------------------------------------
                                   SCF
               by Justin Turney, Rob Parrish, Andy Simmonett
                          and Daniel G. A. Smith
                              UKS Reference
                        1 Threads,    500 MiB Core
         ---------------------------------------------------------

  ==> Geometry <==

    Molecular point group: c2v
    Full point group: C_inf_v

    Geometry (in Angstrom), charge = -1, multiplicity = 5:

       Center              X                  Y                   Z               Mass       
    ------------   -----------------  -----------------  -----------------  -----------------
         P            0.000000000000     0.000000000000     0.743595059482    30.973761998420
         S            0.000000000000     0.000000000000    -0.720376739748    31.972071174400

  Running in c2v symmetry.

  Rotational constants: A = ************  B =      0.49996  C =      0.49996 [cm^-1]
  Rotational constants: A = ************  B =  14988.35725  C =  14988.35725 [MHz]
[...]
	   Step    Total Energy     Delta E     Max Force     RMS Force      Max Disp      RMS Disp   
	----------------------------------------------------------------------------------------------
	  Convergence Criteria     1.00e-06 *    3.00e-04 *             o    1.20e-03 *             o
	----------------------------------------------------------------------------------------------
	    19    -739.46706159   -6.53e-06      5.95e-05 *    5.95e-05 o    2.32e-02      2.32e-02 o  ~
	----------------------------------------------------------------------------------------------

Next Geometry in Ang 
	Fragment 1 (Ang)

	    P   0.0000000000   0.0000000000   1.8633990471
	    S   0.0000000000   0.0000000000  -1.8054071400


    Structure for next step:
    Molecular point group: c2v
    Full point group: C_inf_v

    Geometry (in Angstrom), charge = -1, multiplicity = 5:

    P            0.000000000000     0.000000000000     1.863496384526
    S            0.000000000000     0.000000000000    -1.805309802558


Scratch directory: /tmp/
gradient() will perform analytic gradient computation.
   => Libint2 <=

    Primary   basis highest AM E, G, H:  6, 6, 3
    Auxiliary basis highest AM E, G, H:  7, 7, 4
    Onebody   basis highest AM E, G, H:  -, -, -
    Solid Harmonics ordering:            Gaussian

*** tstart() called on Joses-MacBook-Pro-2.local
*** at Thu Jul 17 12:01:48 2025

   => Loading Basis Set <=

    Name: CC-PVDZ
    Role: ORBITAL
    Keyword: BASIS
    atoms 1 entry P          line   538 file /Users/joseantoniorodriguesromero/anaconda3/share/psi4/basis/cc-pvdz.gbs 
    atoms 2 entry S          line   598 file /Users/joseantoniorodriguesromero/anaconda3/share/psi4/basis/cc-pvdz.gbs 


         ---------------------------------------------------------
                                   SCF
               by Justin Turney, Rob Parrish, Andy Simmonett
                          and Daniel G. A. Smith
                              UKS Reference
                        1 Threads,    500 MiB Core
         ---------------------------------------------------------

  ==> Geometry <==

    Molecular point group: c2v
    Full point group: C_inf_v

    Geometry (in Angstrom), charge = -1, multiplicity = 5:

       Center              X                  Y                   Z               Mass       
    ------------   -----------------  -----------------  -----------------  -----------------
         P            0.000000000000     0.000000000000     1.863496384526    30.973761998420
         S            0.000000000000     0.000000000000    -1.805309802558    31.972071174400

  Running in c2v symmetry.

  Rotational constants: A = ************  B =      0.07961  C =      0.07961 [cm^-1]
  Rotational constants: A = ************  B =   2386.54660  C =   2386.54660 [MHz]
  Nuclear repulsion =   34.616854661848265

  Charge       = -1
  Multiplicity = 5
  Electrons    = 32
  Nalpha       = 18
  Nbeta        = 14

  ==> Algorithm <==

  SCF Algorithm Type is DF.
  DIIS enabled.
  MOM disabled.
  Fractional occupation disabled.
  Guess Type is READ.
  Energy threshold   = 1.00e-08
  Density threshold  = 1.00e-08
  Integral threshold = 1.00e-12

  ==> Primary Basis <==

  Basis Set: CC-PVDZ
    Blend: CC-PVDZ
    Number of shells: 16
    Number of basis functions: 36
    Number of Cartesian functions: 38
    Spherical Harmonics?: true
    Max angular momentum: 2

  ==> DFT Potential <==

   => LibXC <=

    Version 6.2.2
    S. Lehtola, C. Steigemann, M. J.T. Oliveira, and M. A.L. Marques.,  SoftwareX 7, 1–5 (2018) (10.1016/j.softx.2017.11.002)

   => Composite Functional: B3LYP <= 

    B3LYP Hyb-GGA Exchange-Correlation Functional

    P. J. Stephens, F. J. Devlin, C. F. Chabalowski, and M. J. Frisch.,  J. Phys. Chem. 98, 11623 (1994) (10.1021/j100096a001)

    Deriv               =              1
    GGA                 =           TRUE
    Meta                =          FALSE

    Exchange Hybrid     =           TRUE
    MP2 Hybrid          =          FALSE

   => Exchange Functionals <=

    0.0800   Slater exchange
    0.7200         Becke 88

   => Exact (HF) Exchange <=

    0.2000               HF 

   => Correlation Functionals <=

    0.1900   Vosko, Wilk & Nusair (VWN5_RPA)
    0.8100   Lee, Yang & Parr

   => LibXC Density Thresholds  <==

    XC_HYB_GGA_XC_B3LYP:  1.00E-15 

   => Molecular Quadrature <=

    Radial Scheme          =       TREUTLER
    Pruning Scheme         =           NONE
    Nuclear Scheme         =       TREUTLER

    Blocking Scheme        =         OCTREE
    BS radius alpha        =              1
    Pruning alpha          =              1
    Radial Points          =             75
    Spherical Points       =            302
    Total Points           =          40972
    Total Blocks           =            384
    Max Points             =            247
    Max Functions          =             36
    Weights Tolerance      =       1.00E-15

   => Loading Basis Set <=

    Name: (CC-PVDZ AUX)
    Role: JKFIT
    Keyword: DF_BASIS_SCF
    atoms 1 entry P          line   519 file /Users/joseantoniorodriguesromero/anaconda3/share/psi4/basis/cc-pvdz-jkfit.gbs 
    atoms 2 entry S          line   593 file /Users/joseantoniorodriguesromero/anaconda3/share/psi4/basis/cc-pvdz-jkfit.gbs 

   => Loading Basis Set <=

    Name: CC-PVDZ
    Role: ORBITAL
    Keyword: BASIS
    atoms 1 entry P          line   538 file /Users/joseantoniorodriguesromero/anaconda3/share/psi4/basis/cc-pvdz.gbs 
    atoms 2 entry S          line   598 file /Users/joseantoniorodriguesromero/anaconda3/share/psi4/basis/cc-pvdz.gbs 

  Reading orbitals from file /tmp/quintet_PS.default.73431.180.npy, no projection.

  ==> Integral Setup <==

  DFHelper Memory: AOs need 0.003 GiB; user supplied 0.326 GiB. 
  Using in-core AOs.

  ==> MemDFJK: Density-Fitted J/K Matrices <==

    J tasked:                   Yes
    K tasked:                   Yes
    wK tasked:                   No
    OpenMP threads:               1
    Memory [MiB]:               333
    Algorithm:                 Core
    Schwarz Cutoff:           1E-12
    Mask sparsity (%):       0.0000
    Fitting Condition:        1E-10

   => Auxiliary Basis Set <=

  Basis Set: (CC-PVDZ AUX)
    Blend: CC-PVDZ-JKFIT
    Number of shells: 72
    Number of basis functions: 224
    Number of Cartesian functions: 260
    Spherical Harmonics?: true
    Max angular momentum: 3

  Cached 100.0% of DFT collocation blocks in 0.040 [GiB].

  Minimum eigenvalue in the overlap matrix is 9.8963241674E-02.
  Reciprocal condition number of the overlap matrix is 5.3688452476E-02.
    Using symmetric orthogonalization.

  ==> Pre-Iterations <==

  SCF Guess: Orbitals guess was supplied from a previous computation.

   -------------------------------------------------------
    Irrep   Nso     Nmo     Nalpha   Nbeta   Ndocc  Nsocc
   -------------------------------------------------------
     A1        18      18      10       8       8       2
     A2         2       2       0       0       0       0
     B1         8       8       4       3       3       1
     B2         8       8       4       3       3       1
   -------------------------------------------------------
    Total      36      36      18      14      14       4
   -------------------------------------------------------

  ==> Iterations <==

                           Total Energy        Delta E     RMS |[F,P]|

   @DF-UKS iter   0:  -739.46695431146168   -7.39467e+02   7.62643e-05 
   @DF-UKS iter   1:  -739.46706204310544   -1.07732e-04   2.43473e-05 DIIS
   @DF-UKS iter   2:  -739.46705446462238    7.57848e-06   1.13308e-04 ADIIS/DIIS/DAMP=1%
   @DF-UKS iter   3:  -739.46701021906290    4.42456e-05   4.26104e-06 DIIS/DAMP=1%
   @DF-UKS iter   4:  -739.46706061962379   -5.04006e-05   2.12520e-06 DIIS/DAMP=1%
   @DF-UKS iter   5:  -739.46706130426548   -6.84642e-07   2.73729e-07 DIIS/DAMP=1%
   @DF-UKS iter   6:  -739.46706248922919   -1.18496e-06   1.47585e-07 DIIS/DAMP=1%
   @DF-UKS iter   7:  -739.46706250559271   -1.63635e-08   1.88752e-08 DIIS/DAMP=1%
   @DF-UKS iter   8:  -739.46706245047051    5.51222e-08   1.53540e-09 DIIS/DAMP=1%
   @DF-UKS iter   9:  -739.46706244394250    6.52801e-09   4.41869e-10 DIIS/DAMP=1%
  Energy and wave function converged.


  ==> Post-Iterations <==

   Electrons on quadrature grid:
      Nalpha   =   17.9999989014 ; deviation = -1.099e-06
      Nbeta    =   13.9999988673 ; deviation = -1.133e-06
      Ntotal   =   31.9999977688 ; deviation = -2.231e-06 

   @Spin Contamination Metric:   3.131284698E-03
   @S^2 Expected:                6.000000000E+00
   @S^2 Observed:                6.003131285E+00
   @S   Expected:                2.000000000E+00
   @S   Observed:                2.000000000E+00

    Orbital Energies [Eh]
    ---------------------

    Alpha Occupied:                                                       

       1A1   -88.616506     2A1   -76.920565     3A1    -7.673626  
       4A1    -6.388109     5A1    -5.645479     1B2    -5.630431  
       1B1    -5.630431     6A1    -4.552385     2B1    -4.550675  
       2B2    -4.550675     7A1    -0.412835     8A1    -0.400280  
       9A1    -0.080215     3B1    -0.068325     3B2    -0.068325  
      10A1    -0.031850     4B2    -0.007076     4B1    -0.007076  

    Alpha Virtual:                                                        

      11A1     0.500070    12A1     0.568768     5B1     0.575108  
       5B2     0.575108    13A1     0.608182     6B1     0.622349  
       6B2     0.622349     1A2     0.626159    14A1     0.626168  
      15A1     0.709433     7B2     0.743009     7B1     0.743009  
      16A1     0.806002     8B2     0.843205     8B1     0.843205  
       2A2     0.873486    17A1     0.873492    18A1     0.909176  

    Beta Occupied:                                                        

       1A1   -88.610017     2A1   -76.909788     3A1    -7.666992  
       4A1    -6.376692     5A1    -5.628013     1B2    -5.624375  
       1B1    -5.624375     6A1    -4.534432     2B1    -4.534407  
       2B2    -4.534407     7A1    -0.354442     8A1    -0.297094  
       3B1     0.020427     3B2     0.020427  

    Beta Virtual:                                                         

       9A1     0.059250     4B2     0.063280     4B1     0.063280  
      10A1     0.112579    11A1     0.541695    12A1     0.618492  
       5B2     0.619604     5B1     0.619604    13A1     0.694044  
       6B2     0.708050     6B1     0.708050     1A2     0.708586  
      14A1     0.708596    15A1     0.743524     7B1     0.760949  
       7B2     0.760949    16A1     0.866975     2A2     0.894296  
      17A1     0.894302     8B1     0.901011     8B2     0.901011  
      18A1     0.963029  

    Final Occupation by Irrep:
             A1    A2    B1    B2 
    DOCC [     8,    0,    3,    3 ]
    SOCC [     2,    0,    1,    1 ]
    NA   [    10,    0,    4,    4 ]
    NB   [     8,    0,    3,    3 ]

  @DF-UKS Final Energy:  -739.46706244394250

   => Energetics <=

    Nuclear Repulsion Energy =             34.6168546618482651
    One-Electron Energy =               -1098.1459436956911304
    Two-Electron Energy =                 363.5984216561001858
    DFT Exchange-Correlation Energy =     -39.5363950661997876
    Empirical Dispersion Energy =           0.0000000000000000
    VV10 Nonlocal Energy =                  0.0000000000000000
    Total Energy =                       -739.4670624439424955

  UHF NO Occupations:
  HONO-2 :    4 B1 1.0000000
  HONO-1 :    4 B2 1.0000000
  HONO-0 :   10 A1 1.0000000
  LUNO+0 :   11 A1 0.0007032
  LUNO+1 :    5 B2 0.0003817
  LUNO+2 :    5 B1 0.0003817
  LUNO+3 :   12 A1 0.0000995


Computation Completed


Properties will be evaluated at   0.000000,   0.000000,   0.000000 [a0]

Properties computed using the SCF density matrix


 Multipole Moments:

 ------------------------------------------------------------------------------------
     Multipole            Electronic (a.u.)      Nuclear  (a.u.)        Total (a.u.)
 ------------------------------------------------------------------------------------

 L = 1.  Multiply by 2.5417464519 to convert [e a0] to [Debye]
 Dipole X            :          0.0000000            0.0000000            0.0000000
 Dipole Y            :          0.0000000            0.0000000            0.0000000
 Dipole Z            :          3.0647945           -1.7621905            1.3026040
 Magnitude           :                                                    1.3026040

 ------------------------------------------------------------------------------------

*** tstop() called on Joses-MacBook-Pro-2.local at Thu Jul 17 12:01:49 2025
Module time:
	user time   =      11.32 seconds =       0.19 minutes
	system time =       1.24 seconds =       0.02 minutes
	total time  =          1 seconds =       0.02 minutes
Total time:
	user time   =     245.26 seconds =       4.09 minutes
	system time =      51.88 seconds =       0.86 minutes
	total time  =         28 seconds =       0.47 minutes

*** tstart() called on Joses-MacBook-Pro-2.local
*** at Thu Jul 17 12:01:49 2025


         ------------------------------------------------------------
                                   SCF GRAD                          
                          Rob Parrish, Justin Turney,                
                       Andy Simmonett, and Alex Sokolov              
         ------------------------------------------------------------

  ==> Geometry <==

    Molecular point group: c2v
    Full point group: C_inf_v

    Geometry (in Angstrom), charge = -1, multiplicity = 5:

       Center              X                  Y                   Z               Mass       
    ------------   -----------------  -----------------  -----------------  -----------------
         P            0.000000000000     0.000000000000     1.863496384526    30.973761998420
         S            0.000000000000     0.000000000000    -1.805309802558    31.972071174400

  Nuclear repulsion =   34.616854661848265

  ==> Basis Set <==

  Basis Set: CC-PVDZ
    Blend: CC-PVDZ
    Number of shells: 16
    Number of basis functions: 36
    Number of Cartesian functions: 38
    Spherical Harmonics?: true
    Max angular momentum: 2

  ==> DFJKGrad: Density-Fitted SCF Gradients <==

    Gradient:                    1
    J tasked:                  Yes
    K tasked:                  Yes
    wK tasked:                  No
    OpenMP threads:              1
    Integrals threads:           1
    Memory [MiB]:              375
    Schwarz Cutoff:          1E-12
    Fitting Condition:       1E-10

   => Auxiliary Basis Set <=

  Basis Set: (CC-PVDZ AUX)
    Blend: CC-PVDZ-JKFIT
    Number of shells: 72
    Number of basis functions: 224
    Number of Cartesian functions: 260
    Spherical Harmonics?: true
    Max angular momentum: 3

  ==> DFT Potential <==

   => LibXC <=

    Version 6.2.2
    S. Lehtola, C. Steigemann, M. J.T. Oliveira, and M. A.L. Marques.,  SoftwareX 7, 1–5 (2018) (10.1016/j.softx.2017.11.002)

   => Composite Functional: B3LYP <= 

    B3LYP Hyb-GGA Exchange-Correlation Functional

    P. J. Stephens, F. J. Devlin, C. F. Chabalowski, and M. J. Frisch.,  J. Phys. Chem. 98, 11623 (1994) (10.1021/j100096a001)

    Deriv               =              1
    GGA                 =           TRUE
    Meta                =          FALSE

    Exchange Hybrid     =           TRUE
    MP2 Hybrid          =          FALSE

   => Exchange Functionals <=

    0.0800   Slater exchange
    0.7200         Becke 88

   => Exact (HF) Exchange <=

    0.2000               HF 

   => Correlation Functionals <=

    0.1900   Vosko, Wilk & Nusair (VWN5_RPA)
    0.8100   Lee, Yang & Parr

   => LibXC Density Thresholds  <==

    XC_HYB_GGA_XC_B3LYP:  1.00E-15 

   => Molecular Quadrature <=

    Radial Scheme          =       TREUTLER
    Pruning Scheme         =           NONE
    Nuclear Scheme         =       TREUTLER

    Blocking Scheme        =         OCTREE
    BS radius alpha        =              1
    Pruning alpha          =              1
    Radial Points          =             75
    Spherical Points       =            302
    Total Points           =          40972
    Total Blocks           =            384
    Max Points             =            247
    Max Functions          =             36
    Weights Tolerance      =       1.00E-15


  -Total Gradient:
     Atom            X                  Y                   Z
    ------   -----------------  -----------------  -----------------
       1        0.000000000000     0.000000000000    -0.000021174212
       2        0.000000000000    -0.000000000000     0.000025499121


*** tstop() called on Joses-MacBook-Pro-2.local at Thu Jul 17 12:01:49 2025
Module time:
	user time   =       2.39 seconds =       0.04 minutes
	system time =       0.81 seconds =       0.01 minutes
	total time  =          0 seconds =       0.00 minutes
Total time:
	user time   =     247.65 seconds =       4.13 minutes
	system time =      52.69 seconds =       0.88 minutes
	total time  =         28 seconds =       0.47 minutes

    			-----------------------------------------

    			 OPTKING 3.0: for geometry optimizations 

    			     By R.A. King, Bethel University     

    			        with contributions from          

    			    A.V. Copan, J. Cayton, A. Heide      

    			-----------------------------------------

    
	                            ===> Fragment 1 <== 

	 Z (Atomic Numbers)          Masses                          Geom                  
	      15.000000            30.973762          0.00000000  0.00000000  3.52149780   
	      16.000000            31.972071          0.00000000  0.00000000 -3.41154110   

	 - Coordinate -           - BOHR/RAD -       - ANG/DEG -
	 R(1,2)           =         6.933039           3.668806


	        --- Internal Coordinate Step in ANG or DEG, aJ/ANG or AJ/DEG ---
	-------------------------------------------------------------------------------
	           Coordinate      Previous         Force          Change          New 
	           ----------      --------        ------          ------        ------
	               R(1,2)       3.66881        0.00019        0.00494       3.67375
	-------------------------------------------------------------------------------

	                                 ==> Convergence Check <==                                  
    
	Measures of convergence in internal coordinates in au.
    
	Criteria marked as inactive (o), active & met (*), and active & unmet ( ).

	----------------------------------------------------------------------------------------------
	   Step    Total Energy     Delta E     Max Force     RMS Force      Max Disp      RMS Disp   
	----------------------------------------------------------------------------------------------
	  Convergence Criteria     1.00e-06 *    3.00e-04 *             o    1.20e-03 *             o
	----------------------------------------------------------------------------------------------
	    20    -739.46706244   -8.57e-07 *    2.33e-05 *    2.33e-05 o    9.34e-03      9.34e-03 o  ~
	----------------------------------------------------------------------------------------------

Next Geometry in Ang 
	Fragment 1 (Ang)

	    P   0.0000000000   0.0000000000   1.8659673028
	    S   0.0000000000   0.0000000000  -1.8077807208


    Final optimized geometry and variables:
    Molecular point group: c2v
    Full point group: C_inf_v

    Geometry (in Angstrom), charge = -1, multiplicity = 5:

    P            0.000000000000     0.000000000000     1.863496384526
    S            0.000000000000     0.000000000000    -1.805309802558


    Psi4 stopped on: Thursday, 17 July 2025 12:01PM
    Psi4 wall time for execution: 0:00:28.81

*** Psi4 exiting successfully. Buy a developer a beer!
