
    -----------------------------------------------------------------------
          Psi4: An Open-Source Ab Initio Electronic Structure Package
                               Psi4 1.9.1 release

                         Git: Rev {} zzzzzzz 


    D. G. A. Smith, L. A. Burns, A. C. Simmonett, R. M. Parrish,
    M. C. Schieber, R. Galvelis, P. Kraus, H. Kruse, R. Di Remigio,
    A. Alenaizan, A. M. James, S. Lehtola, J. P. Misiewicz, M. Scheurer,
    R. A. Shaw, J. B. Schriber, Y. Xie, Z. L. Glick, D. A. Sirianni,
    J. S. O'Brien, J. M. Waldrop, A. Kumar, E. G. Hohenstein,
    B. P. Pritchard, B. R. Brooks, H. F. Schaefer III, A. Yu. Sokolov,
    K. Patkowski, A. E. DePrince III, U. Bozkaya, R. A. King,
    F. A. Evangelista, J. M. Turney, T. D. Crawford, C. D. Sherrill,
    J. Chem. Phys. 152(18) 184108 (2020). https://doi.org/10.1063/5.0006002

                            Additional Code Authors
    E. T. Seidl, C. L. Janssen, E. F. Valeev, M. L. Leininger,
    J. F. Gonthier, R. M. Richard, H. R. McAlexander, M. Saitow, X. Wang,
    P. Verma, M. H. Lechner, A. Jiang, S. Behnle, A. G. Heide,
    M. F. Herbst, and D. L. Poole

             Previous Authors, Complete List of Code Contributors,
                       and Citations for Specific Modules
    https://github.com/psi4/psi4/blob/master/codemeta.json
    https://github.com/psi4/psi4/graphs/contributors
    http://psicode.org/psi4manual/master/introduction.html#citing-psifour

    -----------------------------------------------------------------------


    Psi4 started on: Thursday, 17 July 2025 11:05AM

    Process ID: 72949
    Host:       Joses-MacBook-Pro-2.local
    PSIDATADIR: /Users/joseantoniorodriguesromero/anaconda3/share/psi4
    Memory:     500.0 MiB
    Threads:    1
    
  ==> Input File <==

--------------------------------------------------------------------------
molecule { 
-1 6
Ne   0.00000        0.60000        0.00000
Ar   0.00000       -0.60000        0.00000
}

set { 
basis              cc-pvdz
reference          uks
maxiter            500
geom_maxiter       500
DAMPING_PERCENTAGE 1
guess              SAP
}

optimize('b3lyp')
--------------------------------------------------------------------------

Scratch directory: /tmp/
gradient() will perform analytic gradient computation.
   => Libint2 <=

    Primary   basis highest AM E, G, H:  6, 6, 3
    Auxiliary basis highest AM E, G, H:  7, 7, 4
    Onebody   basis highest AM E, G, H:  -, -, -
    Solid Harmonics ordering:            Gaussian

*** tstart() called on Joses-MacBook-Pro-2.local
*** at Thu Jul 17 11:05:08 2025

   => Loading Basis Set <=

    Name: CC-PVDZ
    Role: ORBITAL
    Keyword: BASIS
    atoms 1 entry NE         line   258 file /Users/joseantoniorodriguesromero/anaconda3/share/psi4/basis/cc-pvdz.gbs 
    atoms 2 entry AR         line   718 file /Users/joseantoniorodriguesromero/anaconda3/share/psi4/basis/cc-pvdz.gbs 


         ---------------------------------------------------------
                                   SCF
               by Justin Turney, Rob Parrish, Andy Simmonett
                          and Daniel G. A. Smith
                              UKS Reference
                        1 Threads,    500 MiB Core
         ---------------------------------------------------------

  ==> Geometry <==

    Molecular point group: c2v
    Full point group: C_inf_v

    Geometry (in Angstrom), charge = -1, multiplicity = 6:

       Center              X                  Y                   Z               Mass       
    ------------   -----------------  -----------------  -----------------  -----------------
         NE           0.000000000000     0.000000000000     0.799849905462    19.992440176200
         AR           0.000000000000     0.000000000000    -0.400150094538    39.962383123700

  Running in c2v symmetry.

  Rotational constants: A = ************  B =      0.87850  C =      0.87850 [cm^-1]
  Rotational constants: A = ************  B =  26336.71780  C =  26336.71780 [MHz]
  Nuclear repulsion =   79.376581600499989

  Charge       = -1
  Multiplicity = 6
  Electrons    = 29
  Nalpha       = 17
  Nbeta        = 12

  ==> Algorithm <==

  SCF Algorithm Type is DF.
  DIIS enabled.
  MOM disabled.
  Fractional occupation disabled.
  Guess Type is SAP.
  Energy threshold   = 1.00e-08
  Density threshold  = 1.00e-08
  Integral threshold = 1.00e-12

  ==> Primary Basis <==

  Basis Set: CC-PVDZ
    Blend: CC-PVDZ
    Number of shells: 14
    Number of basis functions: 32
    Number of Cartesian functions: 34
    Spherical Harmonics?: true
    Max angular momentum: 2

  ==> DFT Potential <==

   => LibXC <=

    Version 6.2.2
    S. Lehtola, C. Steigemann, M. J.T. Oliveira, and M. A.L. Marques.,  SoftwareX 7, 1–5 (2018) (10.1016/j.softx.2017.11.002)

   => Composite Functional: B3LYP <= 

    B3LYP Hyb-GGA Exchange-Correlation Functional

    P. J. Stephens, F. J. Devlin, C. F. Chabalowski, and M. J. Frisch.,  J. Phys. Chem. 98, 11623 (1994) (10.1021/j100096a001)

    Deriv               =              1
    GGA                 =           TRUE
    Meta                =          FALSE

    Exchange Hybrid     =           TRUE
    MP2 Hybrid          =          FALSE

   => Exchange Functionals <=

    0.0800   Slater exchange
    0.7200         Becke 88

   => Exact (HF) Exchange <=

    0.2000               HF 

   => Correlation Functionals <=

    0.1900   Vosko, Wilk & Nusair (VWN5_RPA)
    0.8100   Lee, Yang & Parr

   => LibXC Density Thresholds  <==

    XC_HYB_GGA_XC_B3LYP:  1.00E-15 

   => Molecular Quadrature <=

    Radial Scheme          =       TREUTLER
    Pruning Scheme         =           NONE
    Nuclear Scheme         =       TREUTLER

    Blocking Scheme        =         OCTREE
    BS radius alpha        =              1
    Pruning alpha          =              1
    Radial Points          =             75
    Spherical Points       =            302
    Total Points           =          41248
    Total Blocks           =            365
    Max Points             =            255
    Max Functions          =             32
    Weights Tolerance      =       1.00E-15

   => Loading Basis Set <=

    Name: (CC-PVDZ AUX)
    Role: JKFIT
    Keyword: DF_BASIS_SCF
    atoms 1 entry NE         line   321 file /Users/joseantoniorodriguesromero/anaconda3/share/psi4/basis/cc-pvdz-jkfit.gbs 
    atoms 2 entry AR         line   741 file /Users/joseantoniorodriguesromero/anaconda3/share/psi4/basis/cc-pvdz-jkfit.gbs 

  ==> Integral Setup <==

  DFHelper Memory: AOs need 0.002 GiB; user supplied 0.329 GiB. 
  Using in-core AOs.

  ==> MemDFJK: Density-Fitted J/K Matrices <==

    J tasked:                   Yes
    K tasked:                   Yes
    wK tasked:                   No
    OpenMP threads:               1
    Memory [MiB]:               337
    Algorithm:                 Core
    Schwarz Cutoff:           1E-12
    Mask sparsity (%):       0.0000
    Fitting Condition:        1E-10

   => Auxiliary Basis Set <=

  Basis Set: (CC-PVDZ AUX)
    Blend: CC-PVDZ-JKFIT
    Number of shells: 60
    Number of basis functions: 182
    Number of Cartesian functions: 211
    Spherical Harmonics?: true
    Max angular momentum: 3

  Cached 100.0% of DFT collocation blocks in 0.037 [GiB].

  Minimum eigenvalue in the overlap matrix is 3.8291105646E-02.
  Reciprocal condition number of the overlap matrix is 1.3594608440E-02.
    Using symmetric orthogonalization.

  ==> Pre-Iterations <==

  SCF Guess: Superposition of Atomic Potentials (doi:10.1021/acs.jctc.8b01089).

  ==> SAP guess <==

   => Molecular Quadrature <=

    Radial Scheme          =       TREUTLER
    Pruning Scheme         =           NONE
    Nuclear Scheme         =       TREUTLER

    Blocking Scheme        =         OCTREE
    BS radius alpha        =              1
    Pruning alpha          =              1
    Radial Points          =             75
    Spherical Points       =            302
    Total Points           =          41248
    Total Blocks           =            365
    Max Points             =            255
    Max Functions          =             32
    Weights Tolerance      =       1.00E-15

   -------------------------------------------------------
    Irrep   Nso     Nmo     Nalpha   Nbeta   Ndocc  Nsocc
   -------------------------------------------------------
     A1        16      16       9       7       7       2
     A2         2       2       0       0       0       0
     B1         7       7       4       3       3       1
     B2         7       7       4       2       2       2
   -------------------------------------------------------
    Total      32      32      17      12      12       5
   -------------------------------------------------------

  ==> Iterations <==

                           Total Energy        Delta E     RMS |[F,P]|

   @DF-UKS iter   1:  -653.37975355148501   -6.53380e+02   2.27667e-02 ADIIS/DIIS
   @DF-UKS iter   2:  -653.43744449124517   -5.76909e-02   1.23573e-02 ADIIS/DIIS/DAMP=1%
   @DF-UKS iter   3:  -653.44826596617145   -1.08215e-02   2.10251e-03 ADIIS/DIIS/DAMP=1%
   @DF-UKS iter   4:  -653.45712454218312   -8.85858e-03   1.27454e-03 ADIIS/DIIS/DAMP=1%
   @DF-UKS iter   5:  -653.45577994168593    1.34460e-03   1.89292e-04 ADIIS/DIIS/DAMP=1%
   @DF-UKS iter   6:  -653.45637262948640   -5.92688e-04   2.13225e-05 DIIS/DAMP=1%
   @DF-UKS iter   7:  -653.45629986261929    7.27669e-05   4.64688e-06 DIIS/DAMP=1%
   @DF-UKS iter   8:  -653.45630284526499   -2.98265e-06   1.48154e-06 DIIS/DAMP=1%
   @DF-UKS iter   9:  -653.45630313057768   -2.85313e-07   2.29895e-07 DIIS/DAMP=1%
   @DF-UKS iter  10:  -653.45630267893682    4.51641e-07   2.77317e-08 DIIS/DAMP=1%
   @DF-UKS iter  11:  -653.45630274522330   -6.62865e-08   2.63464e-09 DIIS/DAMP=1%
   @DF-UKS iter  12:  -653.45630273695167    8.27163e-09   2.47947e-10 DIIS/DAMP=1%
  Energy and wave function converged.


  ==> Post-Iterations <==

   Electrons on quadrature grid:
      Nalpha   =   17.0000050904 ; deviation = 5.090e-06
      Nbeta    =   12.0000048054 ; deviation = 4.805e-06
      Ntotal   =   29.0000098958 ; deviation = 9.896e-06 

   @Spin Contamination Metric:   2.127131694E-03
   @S^2 Expected:                8.750000000E+00
   @S^2 Observed:                8.752127132E+00
   @S   Expected:                2.500000000E+00
   @S   Observed:                2.500000000E+00

    Orbital Energies [Eh]
    ---------------------

    Alpha Occupied:                                                       

       1A1  -114.654828     2A1   -30.954393     3A1   -10.775333  
       4A1    -8.336552     1B2    -8.329904     1B1    -8.304874  
       5A1    -1.650898     6A1    -0.862975     2B2    -0.640074  
       2B1    -0.621809     7A1    -0.521405     3B2    -0.161148  
       3B1    -0.107993     8A1     0.135195     4B2     0.693476  
       9A1     0.727190     4B1     0.727581  

    Alpha Virtual:                                                        

      10A1     0.936689     5B2     1.069491    11A1     1.076214  
       1A2     1.076246     5B1     1.110714    12A1     1.287802  
       6B2     1.570395     6B1     1.584507    13A1     1.728977  
      14A1     2.685634    15A1     4.689502     2A2     4.689565  
       7B2     4.841062     7B1     4.854090    16A1     5.502942  

    Beta Occupied:                                                        

       1A1  -114.619403     2A1   -30.932572     3A1   -10.741430  
       4A1    -8.288283     1B2    -8.271944     1B1    -8.265667  
       5A1    -1.596093     6A1    -0.779842     2B1    -0.592792  
       2B2    -0.587318     7A1    -0.407825     3B1    -0.027860  

    Beta Virtual:                                                         

       3B2     0.066269     8A1     0.333495     4B1     0.891977  
       4B2     0.896410     9A1     0.919953    10A1     1.047571  
       5B1     1.176290     1A2     1.179090     5B2     1.181712  
      11A1     1.183984    12A1     1.339160     6B2     1.613715  
       6B1     1.616539    13A1     1.830284    14A1     2.725787  
       2A2     4.708708    15A1     4.708764     7B2     4.881224  
       7B1     4.883694    16A1     5.550552  

    Final Occupation by Irrep:
             A1    A2    B1    B2 
    DOCC [     7,    0,    3,    2 ]
    SOCC [     2,    0,    1,    2 ]
    NA   [     9,    0,    4,    4 ]
    NB   [     7,    0,    3,    2 ]

  @DF-UKS Final Energy:  -653.45630273695167

   => Energetics <=

    Nuclear Repulsion Energy =             79.3765816004999891
    One-Electron Energy =               -1071.6181480100563022
    Two-Electron Energy =                 374.3659607327207368
    DFT Exchange-Correlation Energy =     -35.5806970601161154
    Empirical Dispersion Energy =           0.0000000000000000
    VV10 Nonlocal Energy =                  0.0000000000000000
    Total Energy =                       -653.4563027369516703

  UHF NO Occupations:
  HONO-2 :    3 B2 1.0000000
  HONO-1 :    4 B2 1.0000000
  HONO-0 :    4 B1 1.0000000
  LUNO+0 :   10 A1 0.0006560
  LUNO+1 :    5 B1 0.0002330
  LUNO+2 :   11 A1 0.0001144
  LUNO+3 :    5 B2 0.0000413


Computation Completed


Properties will be evaluated at   0.000000,   0.000000,   0.000000 [a0]

Properties computed using the SCF density matrix


 Multipole Moments:

 ------------------------------------------------------------------------------------
     Multipole            Electronic (a.u.)      Nuclear  (a.u.)        Total (a.u.)
 ------------------------------------------------------------------------------------

 L = 1.  Multiply by 2.5417464519 to convert [e a0] to [Debye]
 Dipole X            :          0.0000000            0.0000000            0.0000000
 Dipole Y            :          0.0000000            0.0000000            0.0000000
 Dipole Z            :          0.5153404            1.5038390            2.0191794
 Magnitude           :                                                    2.0191794

 ------------------------------------------------------------------------------------

*** tstop() called on Joses-MacBook-Pro-2.local at Thu Jul 17 11:05:09 2025
Module time:
	user time   =       3.89 seconds =       0.06 minutes
	system time =       4.80 seconds =       0.08 minutes
	total time  =          1 seconds =       0.02 minutes
Total time:
	user time   =       3.89 seconds =       0.06 minutes
	system time =       4.80 seconds =       0.08 minutes
	total time  =          1 seconds =       0.02 minutes

*** tstart() called on Joses-MacBook-Pro-2.local
*** at Thu Jul 17 11:05:09 2025


         ------------------------------------------------------------
                                   SCF GRAD                          
                          Rob Parrish, Justin Turney,                
                       Andy Simmonett, and Alex Sokolov              
         ------------------------------------------------------------

  ==> Geometry <==

    Molecular point group: c2v
    Full point group: C_inf_v

    Geometry (in Angstrom), charge = -1, multiplicity = 6:

       Center              X                  Y                   Z               Mass       
    ------------   -----------------  -----------------  -----------------  -----------------
         NE           0.000000000000     0.000000000000     0.799849905462    19.992440176200
         AR           0.000000000000     0.000000000000    -0.400150094538    39.962383123700

  Nuclear repulsion =   79.376581600499989

  ==> Basis Set <==

  Basis Set: CC-PVDZ
    Blend: CC-PVDZ
    Number of shells: 14
    Number of basis functions: 32
    Number of Cartesian functions: 34
    Spherical Harmonics?: true
    Max angular momentum: 2

  ==> DFJKGrad: Density-Fitted SCF Gradients <==

    Gradient:                    1
    J tasked:                  Yes
    K tasked:                  Yes
    wK tasked:                  No
    OpenMP threads:              1
    Integrals threads:           1
    Memory [MiB]:              375
    Schwarz Cutoff:          1E-12
    Fitting Condition:       1E-10

   => Auxiliary Basis Set <=

  Basis Set: (CC-PVDZ AUX)
    Blend: CC-PVDZ-JKFIT
    Number of shells: 60
    Number of basis functions: 182
    Number of Cartesian functions: 211
    Spherical Harmonics?: true
    Max angular momentum: 3

  ==> DFT Potential <==

   => LibXC <=

    Version 6.2.2
    S. Lehtola, C. Steigemann, M. J.T. Oliveira, and M. A.L. Marques.,  SoftwareX 7, 1–5 (2018) (10.1016/j.softx.2017.11.002)

   => Composite Functional: B3LYP <= 

    B3LYP Hyb-GGA Exchange-Correlation Functional

    P. J. Stephens, F. J. Devlin, C. F. Chabalowski, and M. J. Frisch.,  J. Phys. Chem. 98, 11623 (1994) (10.1021/j100096a001)

    Deriv               =              1
    GGA                 =           TRUE
    Meta                =          FALSE

    Exchange Hybrid     =           TRUE
    MP2 Hybrid          =          FALSE

   => Exchange Functionals <=

    0.0800   Slater exchange
    0.7200         Becke 88

   => Exact (HF) Exchange <=

    0.2000               HF 

   => Correlation Functionals <=

    0.1900   Vosko, Wilk & Nusair (VWN5_RPA)
    0.8100   Lee, Yang & Parr

   => LibXC Density Thresholds  <==

    XC_HYB_GGA_XC_B3LYP:  1.00E-15 

   => Molecular Quadrature <=

    Radial Scheme          =       TREUTLER
    Pruning Scheme         =           NONE
    Nuclear Scheme         =       TREUTLER

    Blocking Scheme        =         OCTREE
    BS radius alpha        =              1
    Pruning alpha          =              1
    Radial Points          =             75
    Spherical Points       =            302
    Total Points           =          41248
    Total Blocks           =            365
    Max Points             =            255
    Max Functions          =             32
    Weights Tolerance      =       1.00E-15


  -Total Gradient:
     Atom            X                  Y                   Z
    ------   -----------------  -----------------  -----------------
       1        0.000000000000     0.000000000000    -1.477531062126
       2        0.000000000000     0.000000000000     1.477448733771


*** tstop() called on Joses-MacBook-Pro-2.local at Thu Jul 17 11:05:10 2025
Module time:
	user time   =       0.69 seconds =       0.01 minutes
	system time =       1.76 seconds =       0.03 minutes
	total time  =          1 seconds =       0.02 minutes
Total time:
	user time   =       4.58 seconds =       0.08 minutes
	system time =       6.57 seconds =       0.11 minutes
	total time  =          2 seconds =       0.03 minutes

    			-----------------------------------------

    			 OPTKING 3.0: for geometry optimizations 

    			     By R.A. King, Bethel University     

    			        with contributions from          

    			    A.V. Copan, J. Cayton, A. Heide      

    			-----------------------------------------

    
	                            ===> Fragment 1 <== 

	 Z (Atomic Numbers)          Masses                          Geom                  
	      10.000000            19.992440          0.00000000  0.00000000  1.51149726   
	      18.000000            39.962383          0.00000000  0.00000000 -0.75617409   

	 - Coordinate -           - BOHR/RAD -       - ANG/DEG -
	 R(1,2)           =         2.267671           1.200000


	        --- Internal Coordinate Step in ANG or DEG, aJ/ANG or AJ/DEG ---
	-------------------------------------------------------------------------------
	           Coordinate      Previous         Force          Change          New 
	           ----------      --------        ------          ------        ------
	               R(1,2)       1.20000       12.17263        0.16809       1.36809
	-------------------------------------------------------------------------------

	                                 ==> Convergence Check <==                                  
    
	Measures of convergence in internal coordinates in au.
    
	Criteria marked as inactive (o), active & met (*), and active & unmet ( ).

	----------------------------------------------------------------------------------------------
	   Step    Total Energy     Delta E     Max Force     RMS Force      Max Disp      RMS Disp   
	----------------------------------------------------------------------------------------------
	  Convergence Criteria     1.00e-06 *    3.00e-04 *             o    1.20e-03 *             o
	----------------------------------------------------------------------------------------------
	     1    -653.45630274   -6.53e+02      1.48e+00      1.48e+00 o    3.18e-01      3.18e-01 o  ~
	----------------------------------------------------------------------------------------------

Next Geometry in Ang 
	Fragment 1 (Ang)

	   Ne   0.0000000000   0.0000000000   0.8838927147
	   Ar   0.0000000000   0.0000000000  -0.4841929038


    Structure for next step:
    Molecular point group: c2v
    Full point group: C_inf_v

    Geometry (in Angstrom), charge = -1, multiplicity = 6:

    NE           0.000000000000     0.000000000000     0.911885960474
    AR           0.000000000000     0.000000000000    -0.456199657960


Scratch directory: /tmp/
gradient() will perform analytic gradient computation.
   => Libint2 <=

    Primary   basis highest AM E, G, H:  6, 6, 3
    Auxiliary basis highest AM E, G, H:  7, 7, 4
    Onebody   basis highest AM E, G, H:  -, -, -
    Solid Harmonics ordering:            Gaussian

*** tstart() called on Joses-MacBook-Pro-2.local
*** at Thu Jul 17 11:05:10 2025

   => Loading Basis Set <=

    Name: CC-PVDZ
    Role: ORBITAL
    Keyword: BASIS
    atoms 1 entry NE         line   258 file /Users/joseantoniorodriguesromero/anaconda3/share/psi4/basis/cc-pvdz.gbs 
    atoms 2 entry AR         line   718 file /Users/joseantoniorodriguesromero/anaconda3/share/psi4/basis/cc-pvdz.gbs 


         ---------------------------------------------------------
                                   SCF
               by Justin Turney, Rob Parrish, Andy Simmonett
                          and Daniel G. A. Smith
                              UKS Reference
                        1 Threads,    500 MiB Core
         ---------------------------------------------------------

  ==> Geometry <==

    Molecular point group: c2v
    Full point group: C_inf_v

    Geometry (in Angstrom), charge = -1, multiplicity = 6:

       Center              X                  Y                   Z               Mass       
    ------------   -----------------  -----------------  -----------------  -----------------
         NE           0.000000000000     0.000000000000     0.911885960474    19.992440176200
         AR           0.000000000000     0.000000000000    -0.456199657960    39.962383123700

  Running in c2v symmetry.

  Rotational constants: A = ************  B =      0.67589  C =      0.67589 [cm^-1]
  Rotational constants: A = ************  B =  20262.71273  C =  20262.71273 [MHz]
  Nuclear repulsion =   69.624222809688689

  Charge       = -1
  Multiplicity = 6
  Electrons    = 29
  Nalpha       = 17
  Nbeta        = 12

  ==> Algorithm <==

  SCF Algorithm Type is DF.
  DIIS enabled.
  MOM disabled.
  Fractional occupation disabled.
  Guess Type is READ.
  Energy threshold   = 1.00e-08
  Density threshold  = 1.00e-08
  Integral threshold = 1.00e-12

  ==> Primary Basis <==

  Basis Set: CC-PVDZ
    Blend: CC-PVDZ
    Number of shells: 14
    Number of basis functions: 32
    Number of Cartesian functions: 34
    Spherical Harmonics?: true
    Max angular momentum: 2

  ==> DFT Potential <==

   => LibXC <=

    Version 6.2.2
    S. Lehtola, C. Steigemann, M. J.T. Oliveira, and M. A.L. Marques.,  SoftwareX 7, 1–5 (2018) (10.1016/j.softx.2017.11.002)

   => Composite Functional: B3LYP <= 

    B3LYP Hyb-GGA Exchange-Correlation Functional

    P. J. Stephens, F. J. Devlin, C. F. Chabalowski, and M. J. Frisch.,  J. Phys. Chem. 98, 11623 (1994) (10.1021/j100096a001)

    Deriv               =              1
    GGA                 =           TRUE
    Meta                =          FALSE

    Exchange Hybrid     =           TRUE
    MP2 Hybrid          =          FALSE

   => Exchange Functionals <=

    0.0800   Slater exchange
    0.7200         Becke 88

   => Exact (HF) Exchange <=

    0.2000               HF 

   => Correlation Functionals <=

    0.1900   Vosko, Wilk & Nusair (VWN5_RPA)
    0.8100   Lee, Yang & Parr

   => LibXC Density Thresholds  <==

    XC_HYB_GGA_XC_B3LYP:  1.00E-15 

   => Molecular Quadrature <=

    Radial Scheme          =       TREUTLER
    Pruning Scheme         =           NONE
    Nuclear Scheme         =       TREUTLER

    Blocking Scheme        =         OCTREE
    BS radius alpha        =              1
    Pruning alpha          =              1
    Radial Points          =             75
    Spherical Points       =            302
    Total Points           =          41291
    Total Blocks           =            367
    Max Points             =            256
    Max Functions          =             32
    Weights Tolerance      =       1.00E-15

   => Loading Basis Set <=

    Name: (CC-PVDZ AUX)
    Role: JKFIT
    Keyword: DF_BASIS_SCF
    atoms 1 entry NE         line   321 file /Users/joseantoniorodriguesromero/anaconda3/share/psi4/basis/cc-pvdz-jkfit.gbs 
    atoms 2 entry AR         line   741 file /Users/joseantoniorodriguesromero/anaconda3/share/psi4/basis/cc-pvdz-jkfit.gbs 

   => Loading Basis Set <=

    Name: CC-PVDZ
    Role: ORBITAL
    Keyword: BASIS
    atoms 1 entry NE         line   258 file /Users/joseantoniorodriguesromero/anaconda3/share/psi4/basis/cc-pvdz.gbs 
    atoms 2 entry AR         line   718 file /Users/joseantoniorodriguesromero/anaconda3/share/psi4/basis/cc-pvdz.gbs 

  Reading orbitals from file /tmp/sextet_NeAr.default.72949.180.npy, no projection.

  ==> Integral Setup <==

  DFHelper Memory: AOs need 0.002 GiB; user supplied 0.329 GiB. 
  Using in-core AOs.

  ==> MemDFJK: Density-Fitted J/K Matrices <==

    J tasked:                   Yes
    K tasked:                   Yes
    wK tasked:                   No
    OpenMP threads:               1
    Memory [MiB]:               337
    Algorithm:                 Core
    Schwarz Cutoff:           1E-12
    Mask sparsity (%):       0.0000
    Fitting Condition:        1E-10

   => Auxiliary Basis Set <=

  Basis Set: (CC-PVDZ AUX)
    Blend: CC-PVDZ-JKFIT
    Number of shells: 60
    Number of basis functions: 182
    Number of Cartesian functions: 211
    Spherical Harmonics?: true
    Max angular momentum: 3

  Cached 100.0% of DFT collocation blocks in 0.037 [GiB].

  Minimum eigenvalue in the overlap matrix is 5.0005430945E-02.
  Reciprocal condition number of the overlap matrix is 1.8871218003E-02.
    Using symmetric orthogonalization.

  ==> Pre-Iterations <==

  SCF Guess: Orbitals guess was supplied from a previous computation.

   -------------------------------------------------------
    Irrep   Nso     Nmo     Nalpha   Nbeta   Ndocc  Nsocc
   -------------------------------------------------------
     A1        16      16       9       7       7       2
     A2         2       2       0       0       0       0
     B1         7       7       4       3       3       1
     B2         7       7       4       2       2       2
   -------------------------------------------------------
    Total      32      32      17      12      12       5
   -------------------------------------------------------

  ==> Iterations <==

                           Total Energy        Delta E     RMS |[F,P]|

   @DF-UKS iter   0:  -653.75661143472348   -6.53757e+02   8.08697e-02 
   @DF-UKS iter   1:  -653.78961065555802   -3.29992e-02   4.90550e-03 ADIIS/DIIS
   @DF-UKS iter   2:  -653.79325707889211   -3.64642e-03   2.69540e-03 ADIIS/DIIS/DAMP=1%
   @DF-UKS iter   3:  -653.79495185445307   -1.69478e-03   5.50731e-04 ADIIS/DIIS/DAMP=1%
   @DF-UKS iter   4:  -653.79493671861314    1.51358e-05   2.54053e-04 ADIIS/DIIS/DAMP=1%
   @DF-UKS iter   5:  -653.79445784735924    4.78871e-04   8.52610e-05 DIIS/DAMP=1%
   @DF-UKS iter   6:  -653.79457035830967   -1.12511e-04   1.23446e-05 DIIS/DAMP=1%
   @DF-UKS iter   7:  -653.79456486836875    5.48994e-06   2.89037e-06 DIIS/DAMP=1%
   @DF-UKS iter   8:  -653.79456651698035   -1.64861e-06   3.69232e-07 DIIS/DAMP=1%
   @DF-UKS iter   9:  -653.79456661409472   -9.71144e-08   4.18787e-08 DIIS/DAMP=1%
   @DF-UKS iter  10:  -653.79456666213719   -4.80425e-08   9.05312e-09 DIIS/DAMP=1%
   @DF-UKS iter  11:  -653.79456665979012    2.34706e-09   7.49895e-10 DIIS/DAMP=1%
  Energy and wave function converged.


  ==> Post-Iterations <==

   Electrons on quadrature grid:
      Nalpha   =   17.0000011462 ; deviation = 1.146e-06
      Nbeta    =   12.0000014562 ; deviation = 1.456e-06
      Ntotal   =   29.0000026024 ; deviation = 2.602e-06 

   @Spin Contamination Metric:   2.201533524E-03
   @S^2 Expected:                8.750000000E+00
   @S^2 Observed:                8.752201534E+00
   @S   Expected:                2.500000000E+00
   @S   Observed:                2.500000000E+00

    Orbital Energies [Eh]
    ---------------------

    Alpha Occupied:                                                       

       1A1  -114.645688     2A1   -30.904608     3A1   -10.764585  
       4A1    -8.322944     1B2    -8.322685     1B1    -8.296884  
       5A1    -1.488878     6A1    -0.809020     2B2    -0.536943  
       2B1    -0.523875     7A1    -0.523075     3B2    -0.187966  
       3B1    -0.133207     8A1     0.026012     9A1     0.682561  
       4B2     0.709634     4B1     0.744596  

    Alpha Virtual:                                                        

      10A1     0.930154     5B2     1.019392     5B1     1.061071  
      11A1     1.079894     1A2     1.081109    12A1     1.291433  
       6B2     1.604939    13A1     1.611940     6B1     1.617538  
      14A1     2.709678     2A2     4.763464    15A1     4.763468  
       7B2     4.806536     7B1     4.815009    16A1     5.205509  

    Beta Occupied:                                                        

       1A1  -114.608733     2A1   -30.886147     3A1   -10.729772  
       4A1    -8.269594     1B2    -8.263102     1B1    -8.256342  
       5A1    -1.444261     6A1    -0.702584     2B1    -0.501569  
       2B2    -0.497641     7A1    -0.420085     3B1    -0.051370  

    Beta Virtual:                                                         

       3B2     0.043040     8A1     0.238069     9A1     0.867976  
       4B1     0.907333     4B2     0.912366    10A1     1.045963  
       5B1     1.133337     5B2     1.139737     1A2     1.183476  
      11A1     1.188713    12A1     1.378009     6B2     1.642632  
       6B1     1.644699    13A1     1.675131    14A1     2.749470  
       2A2     4.778555    15A1     4.778625     7B2     4.839491  
       7B1     4.841516    16A1     5.248233  

    Final Occupation by Irrep:
             A1    A2    B1    B2 
    DOCC [     7,    0,    3,    2 ]
    SOCC [     2,    0,    1,    2 ]
    NA   [     9,    0,    4,    4 ]
    NB   [     7,    0,    3,    2 ]

  @DF-UKS Final Energy:  -653.79456665979012

   => Energetics <=

    Nuclear Repulsion Energy =             69.6242228096886890
    One-Electron Energy =               -1053.6820233620433100
    Two-Electron Energy =                 365.7374358769251330
    DFT Exchange-Correlation Energy =     -35.4742019843606116
    Empirical Dispersion Energy =           0.0000000000000000
    VV10 Nonlocal Energy =                  0.0000000000000000
    Total Energy =                       -653.7945666597901209

  UHF NO Occupations:
  HONO-2 :    4 B1 1.0000000
  HONO-1 :    4 B2 1.0000000
  HONO-0 :    9 A1 1.0000000
  LUNO+0 :   10 A1 0.0006757
  LUNO+1 :    5 B1 0.0002118
  LUNO+2 :   11 A1 0.0001520
  LUNO+3 :    5 B2 0.0000413


Computation Completed


Properties will be evaluated at   0.000000,   0.000000,   0.000000 [a0]

Properties computed using the SCF density matrix


 Multipole Moments:

 ------------------------------------------------------------------------------------
     Multipole            Electronic (a.u.)      Nuclear  (a.u.)        Total (a.u.)
 ------------------------------------------------------------------------------------

 L = 1.  Multiply by 2.5417464519 to convert [e a0] to [Debye]
 Dipole X            :          0.0000000            0.0000000            0.0000000
 Dipole Y            :          0.0000000            0.0000000            0.0000000
 Dipole Z            :          0.2997478            1.7144838            2.0142316
 Magnitude           :                                                    2.0142316

 ------------------------------------------------------------------------------------

*** tstop() called on Joses-MacBook-Pro-2.local at Thu Jul 17 11:05:10 2025
Module time:
	user time   =       3.39 seconds =       0.06 minutes
	system time =       5.06 seconds =       0.08 minutes
	total time  =          0 seconds =       0.00 minutes
Total time:
	user time   =       8.23 seconds =       0.14 minutes
	system time =      11.63 seconds =       0.19 minutes
	total time  =          2 seconds =       0.03 minutes

*** tstart() called on Joses-MacBook-Pro-2.local
*** at Thu Jul 17 11:05:10 2025


         ------------------------------------------------------------
                                   SCF GRAD                          
                          Rob Parrish, Justin Turney,                
                       Andy Simmonett, and Alex Sokolov              
         ------------------------------------------------------------

  ==> Geometry <==

    Molecular point group: c2v
    Full point group: C_inf_v

    Geometry (in Angstrom), charge = -1, multiplicity = 6:

       Center              X                  Y                   Z               Mass       
    ------------   -----------------  -----------------  -----------------  -----------------
         NE           0.000000000000     0.000000000000     0.911885960474    19.992440176200
         AR           0.000000000000     0.000000000000    -0.456199657960    39.962383123700

  Nuclear repulsion =   69.624222809688689

  ==> Basis Set <==

  Basis Set: CC-PVDZ
    Blend: CC-PVDZ
    Number of shells: 14
    Number of basis functions: 32
    Number of Cartesian functions: 34
    Spherical Harmonics?: true
    Max angular momentum: 2

  ==> DFJKGrad: Density-Fitted SCF Gradients <==

    Gradient:                    1
    J tasked:                  Yes
    K tasked:                  Yes
    wK tasked:                  No
    OpenMP threads:              1
    Integrals threads:           1
    Memory [MiB]:              375
    Schwarz Cutoff:          1E-12
    Fitting Condition:       1E-10

   => Auxiliary Basis Set <=

  Basis Set: (CC-PVDZ AUX)
    Blend: CC-PVDZ-JKFIT
    Number of shells: 60
    Number of basis functions: 182
    Number of Cartesian functions: 211
    Spherical Harmonics?: true
    Max angular momentum: 3

  ==> DFT Potential <==

   => LibXC <=

    Version 6.2.2
    S. Lehtola, C. Steigemann, M. J.T. Oliveira, and M. A.L. Marques.,  SoftwareX 7, 1–5 (2018) (10.1016/j.softx.2017.11.002)

   => Composite Functional: B3LYP <= 

    B3LYP Hyb-GGA Exchange-Correlation Functional

    P. J. Stephens, F. J. Devlin, C. F. Chabalowski, and M. J. Frisch.,  J. Phys. Chem. 98, 11623 (1994) (10.1021/j100096a001)

    Deriv               =              1
    GGA                 =           TRUE
    Meta                =          FALSE

    Exchange Hybrid     =           TRUE
    MP2 Hybrid          =          FALSE

   => Exchange Functionals <=

    0.0800   Slater exchange
    0.7200         Becke 88

   => Exact (HF) Exchange <=

    0.2000               HF 

   => Correlation Functionals <=

    0.1900   Vosko, Wilk & Nusair (VWN5_RPA)
    0.8100   Lee, Yang & Parr

   => LibXC Density Thresholds  <==

    XC_HYB_GGA_XC_B3LYP:  1.00E-15 

   => Molecular Quadrature <=

    Radial Scheme          =       TREUTLER
    Pruning Scheme         =           NONE
    Nuclear Scheme         =       TREUTLER

    Blocking Scheme        =         OCTREE
    BS radius alpha        =              1
    Pruning alpha          =              1
    Radial Points          =             75
    Spherical Points       =            302
    Total Points           =          41291
    Total Blocks           =            367
    Max Points             =            256
    Max Functions          =             32
    Weights Tolerance      =       1.00E-15


  -Total Gradient:
     Atom            X                  Y                   Z
    ------   -----------------  -----------------  -----------------
       1        0.000000000000     0.000000000000    -0.725780339330
       2        0.000000000000     0.000000000000     0.725691559502


*** tstop() called on Joses-MacBook-Pro-2.local at Thu Jul 17 11:05:11 2025
Module time:
	user time   =       0.69 seconds =       0.01 minutes
	system time =       1.77 seconds =       0.03 minutes
	total time  =          1 seconds =       0.02 minutes
Total time:
	user time   =       8.92 seconds =       0.15 minutes
	system time =      13.41 seconds =       0.22 minutes
	total time  =          3 seconds =       0.05 minutes

    			-----------------------------------------

    			 OPTKING 3.0: for geometry optimizations 

    			     By R.A. King, Bethel University     

    			        with contributions from          

    			    A.V. Copan, J. Cayton, A. Heide      

    			-----------------------------------------

    
	                            ===> Fragment 1 <== 

	 Z (Atomic Numbers)          Masses                          Geom                  
	      10.000000            19.992440          0.00000000  0.00000000  1.72321472   
	      18.000000            39.962383          0.00000000  0.00000000 -0.86209241   

	 - Coordinate -           - BOHR/RAD -       - ANG/DEG -
	 R(1,2)           =         2.585307           1.368086


	        --- Internal Coordinate Step in ANG or DEG, aJ/ANG or AJ/DEG ---
	-------------------------------------------------------------------------------
	           Coordinate      Previous         Force          Change          New 
	           ----------      --------        ------          ------        ------
	               R(1,2)       1.36809        5.97914        0.14934       1.51743
	-------------------------------------------------------------------------------

	                                 ==> Convergence Check <==                                  
    
	Measures of convergence in internal coordinates in au.
    
	Criteria marked as inactive (o), active & met (*), and active & unmet ( ).

	----------------------------------------------------------------------------------------------
	   Step    Total Energy     Delta E     Max Force     RMS Force      Max Disp      RMS Disp   
	----------------------------------------------------------------------------------------------
	  Convergence Criteria     1.00e-06 *    3.00e-04 *             o    1.20e-03 *             o
	----------------------------------------------------------------------------------------------
	     2    -653.79456666   -3.38e-01      7.26e-01      7.26e-01 o    2.82e-01      2.82e-01 o  ~
	----------------------------------------------------------------------------------------------

Next Geometry in Ang 
	Fragment 1 (Ang)

	   Ne   0.0000000000   0.0000000000   0.9865579301
	   Ar   0.0000000000   0.0000000000  -0.5308716276


    Structure for next step:
    Molecular point group: c2v
    Full point group: C_inf_v

    Geometry (in Angstrom), charge = -1, multiplicity = 6:

    NE           0.000000000000     0.000000000000     1.011429906942
    AR           0.000000000000     0.000000000000    -0.505999650831


Scratch directory: /tmp/
gradient() will perform analytic gradient computation.
   => Libint2 <=

    Primary   basis highest AM E, G, H:  6, 6, 3
    Auxiliary basis highest AM E, G, H:  7, 7, 4
    Onebody   basis highest AM E, G, H:  -, -, -
    Solid Harmonics ordering:            Gaussian

*** tstart() called on Joses-MacBook-Pro-2.local
*** at Thu Jul 17 11:05:11 2025

   => Loading Basis Set <=

    Name: CC-PVDZ
    Role: ORBITAL
    Keyword: BASIS
    atoms 1 entry NE         line   258 file /Users/joseantoniorodriguesromero/anaconda3/share/psi4/basis/cc-pvdz.gbs 
    atoms 2 entry AR         line   718 file /Users/joseantoniorodriguesromero/anaconda3/share/psi4/basis/cc-pvdz.gbs 


         ---------------------------------------------------------
                                   SCF
               by Justin Turney, Rob Parrish, Andy Simmonett
                          and Daniel G. A. Smith
                              UKS Reference
                        1 Threads,    500 MiB Core
         ---------------------------------------------------------

  ==> Geometry <==

    Molecular point group: c2v
    Full point group: C_inf_v

    Geometry (in Angstrom), charge = -1, multiplicity = 6:

       Center              X                  Y                   Z               Mass       
    ------------   -----------------  -----------------  -----------------  -----------------
         NE           0.000000000000     0.000000000000     1.011429906942    19.992440176200
         AR           0.000000000000     0.000000000000    -0.505999650831    39.962383123700

  Running in c2v symmetry.

  Rotational constants: A = ************  B =      0.54940  C =      0.54940 [cm^-1]
  Rotational constants: A = ************  B =  16470.51063  C =  16470.51063 [MHz]
  Nuclear repulsion =   62.771874603811490

  Charge       = -1
  Multiplicity = 6
  Electrons    = 29
  Nalpha       = 17
  Nbeta        = 12

  ==> Algorithm <==

  SCF Algorithm Type is DF.
  DIIS enabled.
  MOM disabled.
  Fractional occupation disabled.
  Guess Type is READ.
  Energy threshold   = 1.00e-08
  Density threshold  = 1.00e-08
  Integral threshold = 1.00e-12

  ==> Primary Basis <==

  Basis Set: CC-PVDZ
    Blend: CC-PVDZ
    Number of shells: 14
    Number of basis functions: 32
    Number of Cartesian functions: 34
    Spherical Harmonics?: true
    Max angular momentum: 2

  ==> DFT Potential <==

   => LibXC <=

    Version 6.2.2
    S. Lehtola, C. Steigemann, M. J.T. Oliveira, and M. A.L. Marques.,  SoftwareX 7, 1–5 (2018) (10.1016/j.softx.2017.11.002)

   => Composite Functional: B3LYP <= 

    B3LYP Hyb-GGA Exchange-Correlation Functional

    P. J. Stephens, F. J. Devlin, C. F. Chabalowski, and M. J. Frisch.,  J. Phys. Chem. 98, 11623 (1994) (10.1021/j100096a001)

    Deriv               =              1
    GGA                 =           TRUE
    Meta                =          FALSE

    Exchange Hybrid     =           TRUE
    MP2 Hybrid          =          FALSE

   => Exchange Functionals <=

    0.0800   Slater exchange
    0.7200         Becke 88

   => Exact (HF) Exchange <=

    0.2000               HF 

   => Correlation Functionals <=

    0.1900   Vosko, Wilk & Nusair (VWN5_RPA)
    0.8100   Lee, Yang & Parr

   => LibXC Density Thresholds  <==

    XC_HYB_GGA_XC_B3LYP:  1.00E-15 

   => Molecular Quadrature <=

    Radial Scheme          =       TREUTLER
    Pruning Scheme         =           NONE
    Nuclear Scheme         =       TREUTLER

    Blocking Scheme        =         OCTREE
    BS radius alpha        =              1
    Pruning alpha          =              1
    Radial Points          =             75
    Spherical Points       =            302
    Total Points           =          41322
    Total Blocks           =            366
    Max Points             =            255
    Max Functions          =             32
    Weights Tolerance      =       1.00E-15

   => Loading Basis Set <=

    Name: (CC-PVDZ AUX)
    Role: JKFIT
    Keyword: DF_BASIS_SCF
    atoms 1 entry NE         line   321 file /Users/joseantoniorodriguesromero/anaconda3/share/psi4/basis/cc-pvdz-jkfit.gbs 
    atoms 2 entry AR         line   741 file /Users/joseantoniorodriguesromero/anaconda3/share/psi4/basis/cc-pvdz-jkfit.gbs 

   => Loading Basis Set <=

    Name: CC-PVDZ
    Role: ORBITAL
    Keyword: BASIS
    atoms 1 entry NE         line   258 file /Users/joseantoniorodriguesromero/anaconda3/share/psi4/basis/cc-pvdz.gbs 
    atoms 2 entry AR         line   718 file /Users/joseantoniorodriguesromero/anaconda3/share/psi4/basis/cc-pvdz.gbs 

  Reading orbitals from file /tmp/sextet_NeAr.default.72949.180.npy, no projection.

  ==> Integral Setup <==

  DFHelper Memory: AOs need 0.002 GiB; user supplied 0.329 GiB. 
  Using in-core AOs.

  ==> MemDFJK: Density-Fitted J/K Matrices <==

    J tasked:                   Yes
    K tasked:                   Yes
    wK tasked:                   No
    OpenMP threads:               1
    Memory [MiB]:               337
    Algorithm:                 Core
    Schwarz Cutoff:           1E-12
    Mask sparsity (%):       0.0000
    Fitting Condition:        1E-10

   => Auxiliary Basis Set <=

  Basis Set: (CC-PVDZ AUX)
    Blend: CC-PVDZ-JKFIT
    Number of shells: 60
    Number of basis functions: 182
    Number of Cartesian functions: 211
    Spherical Harmonics?: true
    Max angular momentum: 3

  Cached 100.0% of DFT collocation blocks in 0.037 [GiB].

  Minimum eigenvalue in the overlap matrix is 6.0524078232E-02.
  Reciprocal condition number of the overlap matrix is 2.4244005916E-02.
    Using symmetric orthogonalization.

  ==> Pre-Iterations <==

  SCF Guess: Orbitals guess was supplied from a previous computation.

   -------------------------------------------------------
    Irrep   Nso     Nmo     Nalpha   Nbeta   Ndocc  Nsocc
   -------------------------------------------------------
     A1        16      16       9       7       7       2
     A2         2       2       0       0       0       0
     B1         7       7       4       3       3       1
     B2         7       7       4       2       2       2
   -------------------------------------------------------
    Total      32      32      17      12      12       5
   -------------------------------------------------------

  ==> Iterations <==

                           Total Energy        Delta E     RMS |[F,P]|

   @DF-UKS iter   0:  -653.92041673157200   -6.53920e+02   4.96120e-02 
   @DF-UKS iter   1:  -653.94109224942224   -2.06755e-02   3.05757e-03 ADIIS/DIIS
   @DF-UKS iter   2:  -653.94258039708279   -1.48815e-03   2.22513e-03 ADIIS/DIIS/DAMP=1%
   @DF-UKS iter   3:  -653.94418074394753   -1.60035e-03   4.82858e-04 ADIIS/DIIS/DAMP=1%
   @DF-UKS iter   4:  -653.94301698805816    1.16376e-03   2.03880e-04 ADIIS/DIIS/DAMP=1%
   @DF-UKS iter   5:  -653.94315202975770   -1.35042e-04   7.63250e-05 DIIS/DAMP=1%
   @DF-UKS iter   6:  -653.94307979048199    7.22393e-05   1.16132e-05 DIIS/DAMP=1%
   @DF-UKS iter   7:  -653.94310012420146   -2.03337e-05   2.37075e-06 DIIS/DAMP=1%
   @DF-UKS iter   8:  -653.94309950940260    6.14799e-07   3.17803e-07 DIIS/DAMP=1%
   @DF-UKS iter   9:  -653.94309957809458   -6.86920e-08   4.33142e-08 DIIS/DAMP=1%
   @DF-UKS iter  10:  -653.94309964564991   -6.75553e-08   9.44482e-09 DIIS/DAMP=1%
   @DF-UKS iter  11:  -653.94309964023535    5.41456e-09   1.07375e-09 DIIS/DAMP=1%
  Energy and wave function converged.


  ==> Post-Iterations <==

   Electrons on quadrature grid:
      Nalpha   =   16.9999904919 ; deviation = -9.508e-06
      Nbeta    =   11.9999912548 ; deviation = -8.745e-06
      Ntotal   =   28.9999817467 ; deviation = -1.825e-05 

   @Spin Contamination Metric:   2.196493264E-03
   @S^2 Expected:                8.750000000E+00
   @S^2 Observed:                8.752196493E+00
   @S   Expected:                2.500000000E+00
   @S   Observed:                2.500000000E+00

    Orbital Energies [Eh]
    ---------------------

    Alpha Occupied:                                                       

       1A1  -114.660052     2A1   -30.872875     3A1   -10.773331  
       1B2    -8.333037     4A1    -8.331552     1B1    -8.307041  
       5A1    -1.401810     6A1    -0.782454     7A1    -0.507845  
       2B2    -0.478004     2B1    -0.468829     3B2    -0.205993  
       3B1    -0.149933     8A1    -0.057183     9A1     0.676591  
       4B2     0.713693     4B1     0.748937  

    Alpha Virtual:                                                        

      10A1     0.929648     5B2     1.002279     5B1     1.043952  
      11A1     1.075531     1A2     1.077886    12A1     1.234584  
       6B2     1.606150    13A1     1.608717     6B1     1.616940  
      14A1     2.669971     2A2     4.808873    15A1     4.808982  
       7B2     4.810729     7B1     4.816198    16A1     5.020976  

    Beta Occupied:                                                        

       1A1  -114.622767     2A1   -30.857892     3A1   -10.738361  
       4A1    -8.276677     1B2    -8.272696     1B1    -8.265904  
       5A1    -1.368144     6A1    -0.656812     2B1    -0.451583  
       2B2    -0.449063     7A1    -0.416872     3B1    -0.066751  

    Beta Virtual:                                                         

       3B2     0.028649     8A1     0.159578     9A1     0.863320  
       4B1     0.908249     4B2     0.913902    10A1     1.050642  
       5B1     1.122652     5B2     1.130705     1A2     1.180665  
      11A1     1.186036    12A1     1.342046     6B2     1.638774  
       6B1     1.640362    13A1     1.645843    14A1     2.709380  
       2A2     4.820600    15A1     4.820749     7B2     4.837895  
       7B1     4.839470    16A1     5.055565  

    Final Occupation by Irrep:
             A1    A2    B1    B2 
    DOCC [     7,    0,    3,    2 ]
    SOCC [     2,    0,    1,    2 ]
    NA   [     9,    0,    4,    4 ]
    NB   [     7,    0,    3,    2 ]

  @DF-UKS Final Energy:  -653.94309964023535

   => Energetics <=

    Nuclear Repulsion Energy =             62.7718746038114901
    One-Electron Energy =               -1040.6115576743820839
    Two-Electron Energy =                 359.3063499490889967
    DFT Exchange-Correlation Energy =     -35.4097665187538553
    Empirical Dispersion Energy =           0.0000000000000000
    VV10 Nonlocal Energy =                  0.0000000000000000
    Total Energy =                       -653.9430996402353458

  UHF NO Occupations:
  HONO-2 :    8 A1 1.0000000
  HONO-1 :    9 A1 1.0000000
  HONO-0 :    4 B2 1.0000000
  LUNO+0 :   10 A1 0.0007813
  LUNO+1 :   11 A1 0.0001527
  LUNO+2 :    5 B1 0.0001162
  LUNO+3 :    5 B2 0.0000308


Computation Completed


Properties will be evaluated at   0.000000,   0.000000,   0.000000 [a0]

Properties computed using the SCF density matrix


 Multipole Moments:

 ------------------------------------------------------------------------------------
     Multipole            Electronic (a.u.)      Nuclear  (a.u.)        Total (a.u.)
 ------------------------------------------------------------------------------------

 L = 1.  Multiply by 2.5417464519 to convert [e a0] to [Debye]
 Dipole X            :          0.0000000            0.0000000            0.0000000
 Dipole Y            :          0.0000000            0.0000000            0.0000000
 Dipole Z            :          0.1196729            1.9016415            2.0213145
 Magnitude           :                                                    2.0213145

 ------------------------------------------------------------------------------------

*** tstop() called on Joses-MacBook-Pro-2.local at Thu Jul 17 11:05:12 2025
Module time:
	user time   =       4.17 seconds =       0.07 minutes
	system time =       3.97 seconds =       0.07 minutes
	total time  =          1 seconds =       0.02 minutes
Total time:
	user time   =      13.13 seconds =       0.22 minutes
	system time =      17.64 seconds =       0.29 minutes
	total time  =          4 seconds =       0.07 minutes

*** tstart() called on Joses-MacBook-Pro-2.local
*** at Thu Jul 17 11:05:12 2025


         ------------------------------------------------------------
                                   SCF GRAD                          
                          Rob Parrish, Justin Turney,                
                       Andy Simmonett, and Alex Sokolov              
         ------------------------------------------------------------

  ==> Geometry <==

    Molecular point group: c2v
    Full point group: C_inf_v

    Geometry (in Angstrom), charge = -1, multiplicity = 6:

       Center              X                  Y                   Z               Mass       
    ------------   -----------------  -----------------  -----------------  -----------------
         NE           0.000000000000     0.000000000000     1.011429906942    19.992440176200
         AR           0.000000000000     0.000000000000    -0.505999650831    39.962383123700

  Nuclear repulsion =   62.771874603811490

  ==> Basis Set <==

  Basis Set: CC-PVDZ
    Blend: CC-PVDZ
    Number of shells: 14
    Number of basis functions: 32
    Number of Cartesian functions: 34
    Spherical Harmonics?: true
    Max angular momentum: 2

  ==> DFJKGrad: Density-Fitted SCF Gradients <==

    Gradient:                    1
    J tasked:                  Yes
    K tasked:                  Yes
    wK tasked:                  No
    OpenMP threads:              1
    Integrals threads:           1
    Memory [MiB]:              375
    Schwarz Cutoff:          1E-12
    Fitting Condition:       1E-10

   => Auxiliary Basis Set <=

  Basis Set: (CC-PVDZ AUX)
    Blend: CC-PVDZ-JKFIT
    Number of shells: 60
    Number of basis functions: 182
    Number of Cartesian functions: 211
    Spherical Harmonics?: true
    Max angular momentum: 3

  ==> DFT Potential <==

   => LibXC <=

    Version 6.2.2
    S. Lehtola, C. Steigemann, M. J.T. Oliveira, and M. A.L. Marques.,  SoftwareX 7, 1–5 (2018) (10.1016/j.softx.2017.11.002)

   => Composite Functional: B3LYP <= 

    B3LYP Hyb-GGA Exchange-Correlation Functional

    P. J. Stephens, F. J. Devlin, C. F. Chabalowski, and M. J. Frisch.,  J. Phys. Chem. 98, 11623 (1994) (10.1021/j100096a001)

    Deriv               =              1
    GGA                 =           TRUE
    Meta                =          FALSE

    Exchange Hybrid     =           TRUE
    MP2 Hybrid          =          FALSE

   => Exchange Functionals <=

    0.0800   Slater exchange
    0.7200         Becke 88

   => Exact (HF) Exchange <=

    0.2000               HF 

   => Correlation Functionals <=

    0.1900   Vosko, Wilk & Nusair (VWN5_RPA)
    0.8100   Lee, Yang & Parr

   => LibXC Density Thresholds  <==

    XC_HYB_GGA_XC_B3LYP:  1.00E-15 

   => Molecular Quadrature <=

    Radial Scheme          =       TREUTLER
    Pruning Scheme         =           NONE
    Nuclear Scheme         =       TREUTLER

    Blocking Scheme        =         OCTREE
    BS radius alpha        =              1
    Pruning alpha          =              1
    Radial Points          =             75
    Spherical Points       =            302
    Total Points           =          41322
    Total Blocks           =            366
    Max Points             =            255
    Max Functions          =             32
    Weights Tolerance      =       1.00E-15


  -Total Gradient:
     Atom            X                  Y                   Z
    ------   -----------------  -----------------  -----------------
       1        0.000000000000    -0.000000000000    -0.364009958063
       2        0.000000000000    -0.000000000000     0.363928277972


*** tstop() called on Joses-MacBook-Pro-2.local at Thu Jul 17 11:05:12 2025
Module time:
	user time   =       0.91 seconds =       0.02 minutes
	system time =       1.51 seconds =       0.03 minutes
	total time  =          0 seconds =       0.00 minutes
Total time:
	user time   =      14.04 seconds =       0.23 minutes
	system time =      19.15 seconds =       0.32 minutes
	total time  =          4 seconds =       0.07 minutes

    			-----------------------------------------

    			 OPTKING 3.0: for geometry optimizations 

    			     By R.A. King, Bethel University     

    			        with contributions from          

    			    A.V. Copan, J. Cayton, A. Heide      

    			-----------------------------------------

    
	                            ===> Fragment 1 <== 

	 Z (Atomic Numbers)          Masses                          Geom                  
	      10.000000            19.992440          0.00000000  0.00000000  1.91132552   
	      18.000000            39.962383          0.00000000  0.00000000 -0.95620076   

	 - Coordinate -           - BOHR/RAD -       - ANG/DEG -
	 R(1,2)           =         2.867526           1.517430


	        --- Internal Coordinate Step in ANG or DEG, aJ/ANG or AJ/DEG ---
	-------------------------------------------------------------------------------
	           Coordinate      Previous         Force          Change          New 
	           ----------      --------        ------          ------        ------
	               R(1,2)       1.51743        2.99864        0.13977       1.65720
	-------------------------------------------------------------------------------

	                                 ==> Convergence Check <==                                  
    
	Measures of convergence in internal coordinates in au.
    
	Criteria marked as inactive (o), active & met (*), and active & unmet ( ).

	----------------------------------------------------------------------------------------------
	   Step    Total Energy     Delta E     Max Force     RMS Force      Max Disp      RMS Disp   
	----------------------------------------------------------------------------------------------
	  Convergence Criteria     1.00e-06 *    3.00e-04 *             o    1.20e-03 *             o
	----------------------------------------------------------------------------------------------
	     3    -653.94309964   -1.49e-01      3.64e-01      3.64e-01 o    2.64e-01      2.64e-01 o  ~
	----------------------------------------------------------------------------------------------

Next Geometry in Ang 
	Fragment 1 (Ang)

	   Ne   0.0000000000   0.0000000000   1.0813153265
	   Ar   0.0000000000   0.0000000000  -0.5758850704


    Structure for next step:
    Molecular point group: c2v
    Full point group: C_inf_v

    Geometry (in Angstrom), charge = -1, multiplicity = 6:

    NE           0.000000000000     0.000000000000     1.104592984032
    AR           0.000000000000     0.000000000000    -0.552607412925


Scratch directory: /tmp/
gradient() will perform analytic gradient computation.
   => Libint2 <=

    Primary   basis highest AM E, G, H:  6, 6, 3
    Auxiliary basis highest AM E, G, H:  7, 7, 4
    Onebody   basis highest AM E, G, H:  -, -, -
    Solid Harmonics ordering:            Gaussian

*** tstart() called on Joses-MacBook-Pro-2.local
*** at Thu Jul 17 11:05:12 2025

   => Loading Basis Set <=

    Name: CC-PVDZ
    Role: ORBITAL
    Keyword: BASIS
    atoms 1 entry NE         line   258 file /Users/joseantoniorodriguesromero/anaconda3/share/psi4/basis/cc-pvdz.gbs 
    atoms 2 entry AR         line   718 file /Users/joseantoniorodriguesromero/anaconda3/share/psi4/basis/cc-pvdz.gbs 


         ---------------------------------------------------------
                                   SCF
               by Justin Turney, Rob Parrish, Andy Simmonett
                          and Daniel G. A. Smith
                              UKS Reference
                        1 Threads,    500 MiB Core
         ---------------------------------------------------------

  ==> Geometry <==

    Molecular point group: c2v
    Full point group: C_inf_v

    Geometry (in Angstrom), charge = -1, multiplicity = 6:

       Center              X                  Y                   Z               Mass       
    ------------   -----------------  -----------------  -----------------  -----------------
         NE           0.000000000000     0.000000000000     1.104592984032    19.992440176200
         AR           0.000000000000     0.000000000000    -0.552607412925    39.962383123700

  Running in c2v symmetry.

  Rotational constants: A = ************  B =      0.46063  C =      0.46063 [cm^-1]
  Rotational constants: A = ************  B =  13809.37697  C =  13809.37697 [MHz]
  Nuclear repulsion =   57.477597818305370

  Charge       = -1
  Multiplicity = 6
  Electrons    = 29
  Nalpha       = 17
  Nbeta        = 12

  ==> Algorithm <==

  SCF Algorithm Type is DF.
  DIIS enabled.
  MOM disabled.
  Fractional occupation disabled.
  Guess Type is READ.
  Energy threshold   = 1.00e-08
  Density threshold  = 1.00e-08
  Integral threshold = 1.00e-12

  ==> Primary Basis <==

  Basis Set: CC-PVDZ
    Blend: CC-PVDZ
    Number of shells: 14
    Number of basis functions: 32
    Number of Cartesian functions: 34
    Spherical Harmonics?: true
    Max angular momentum: 2

  ==> DFT Potential <==

   => LibXC <=

    Version 6.2.2
    S. Lehtola, C. Steigemann, M. J.T. Oliveira, and M. A.L. Marques.,  SoftwareX 7, 1–5 (2018) (10.1016/j.softx.2017.11.002)

   => Composite Functional: B3LYP <= 

    B3LYP Hyb-GGA Exchange-Correlation Functional

    P. J. Stephens, F. J. Devlin, C. F. Chabalowski, and M. J. Frisch.,  J. Phys. Chem. 98, 11623 (1994) (10.1021/j100096a001)

    Deriv               =              1
    GGA                 =           TRUE
    Meta                =          FALSE

    Exchange Hybrid     =           TRUE
    MP2 Hybrid          =          FALSE

   => Exchange Functionals <=

    0.0800   Slater exchange
    0.7200         Becke 88

   => Exact (HF) Exchange <=

    0.2000               HF 

   => Correlation Functionals <=

    0.1900   Vosko, Wilk & Nusair (VWN5_RPA)
    0.8100   Lee, Yang & Parr

   => LibXC Density Thresholds  <==

    XC_HYB_GGA_XC_B3LYP:  1.00E-15 

   => Molecular Quadrature <=

    Radial Scheme          =       TREUTLER
    Pruning Scheme         =           NONE
    Nuclear Scheme         =       TREUTLER

    Blocking Scheme        =         OCTREE
    BS radius alpha        =              1
    Pruning alpha          =              1
    Radial Points          =             75
    Spherical Points       =            302
    Total Points           =          41357
    Total Blocks           =            368
    Max Points             =            255
    Max Functions          =             32
    Weights Tolerance      =       1.00E-15

   => Loading Basis Set <=

    Name: (CC-PVDZ AUX)
    Role: JKFIT
    Keyword: DF_BASIS_SCF
    atoms 1 entry NE         line   321 file /Users/joseantoniorodriguesromero/anaconda3/share/psi4/basis/cc-pvdz-jkfit.gbs 
    atoms 2 entry AR         line   741 file /Users/joseantoniorodriguesromero/anaconda3/share/psi4/basis/cc-pvdz-jkfit.gbs 

   => Loading Basis Set <=

    Name: CC-PVDZ
    Role: ORBITAL
    Keyword: BASIS
    atoms 1 entry NE         line   258 file /Users/joseantoniorodriguesromero/anaconda3/share/psi4/basis/cc-pvdz.gbs 
    atoms 2 entry AR         line   718 file /Users/joseantoniorodriguesromero/anaconda3/share/psi4/basis/cc-pvdz.gbs 

  Reading orbitals from file /tmp/sextet_NeAr.default.72949.180.npy, no projection.

  ==> Integral Setup <==

  DFHelper Memory: AOs need 0.002 GiB; user supplied 0.330 GiB. 
  Using in-core AOs.

  ==> MemDFJK: Density-Fitted J/K Matrices <==

    J tasked:                   Yes
    K tasked:                   Yes
    wK tasked:                   No
    OpenMP threads:               1
    Memory [MiB]:               337
    Algorithm:                 Core
    Schwarz Cutoff:           1E-12
    Mask sparsity (%):       0.0000
    Fitting Condition:        1E-10

   => Auxiliary Basis Set <=

  Basis Set: (CC-PVDZ AUX)
    Blend: CC-PVDZ-JKFIT
    Number of shells: 60
    Number of basis functions: 182
    Number of Cartesian functions: 211
    Spherical Harmonics?: true
    Max angular momentum: 3

  Cached 100.0% of DFT collocation blocks in 0.037 [GiB].

  Minimum eigenvalue in the overlap matrix is 7.0054886920E-02.
  Reciprocal condition number of the overlap matrix is 2.9719159432E-02.
    Using symmetric orthogonalization.

  ==> Pre-Iterations <==

  SCF Guess: Orbitals guess was supplied from a previous computation.

   -------------------------------------------------------
    Irrep   Nso     Nmo     Nalpha   Nbeta   Ndocc  Nsocc
   -------------------------------------------------------
     A1        16      16       9       7       7       2
     A2         2       2       0       0       0       0
     B1         7       7       4       3       3       1
     B2         7       7       4       2       2       2
   -------------------------------------------------------
    Total      32      32      17      12      12       5
   -------------------------------------------------------

  ==> Iterations <==

                           Total Energy        Delta E     RMS |[F,P]|

   @DF-UKS iter   0:  -654.00092525315870   -6.54001e+02   3.40754e-02 
   @DF-UKS iter   1:  -654.01109380491812   -1.01686e-02   1.95332e-03 ADIIS/DIIS
   @DF-UKS iter   2:  -654.01187453375269   -7.80729e-04   1.62271e-03 ADIIS/DIIS/DAMP=1%
   @DF-UKS iter   3:  -654.01289809045124   -1.02356e-03   3.33306e-04 ADIIS/DIIS/DAMP=1%
   @DF-UKS iter   4:  -654.01211854771782    7.79543e-04   1.58171e-04 ADIIS/DIIS/DAMP=1%
   @DF-UKS iter   5:  -654.01219703194727   -7.84842e-05   5.59010e-05 DIIS/DAMP=1%
   @DF-UKS iter   6:  -654.01216152815527    3.55038e-05   1.01732e-05 DIIS/DAMP=1%
   @DF-UKS iter   7:  -654.01217377563864   -1.22475e-05   1.75061e-06 DIIS/DAMP=1%
   @DF-UKS iter   8:  -654.01217218313855    1.59250e-06   2.61080e-07 DIIS/DAMP=1%
   @DF-UKS iter   9:  -654.01217230170710   -1.18569e-07   4.61289e-08 DIIS/DAMP=1%
   @DF-UKS iter  10:  -654.01217236177592   -6.00688e-08   8.45849e-09 DIIS/DAMP=1%
   @DF-UKS iter  11:  -654.01217235685658    4.91934e-09   1.13069e-09 DIIS/DAMP=1%
  Energy and wave function converged.


  ==> Post-Iterations <==

   Electrons on quadrature grid:
      Nalpha   =   16.9999893506 ; deviation = -1.065e-05
      Nbeta    =   11.9999894448 ; deviation = -1.056e-05
      Ntotal   =   28.9999787954 ; deviation = -2.120e-05 

   @Spin Contamination Metric:   2.197051256E-03
   @S^2 Expected:                8.750000000E+00
   @S^2 Observed:                8.752197051E+00
   @S   Expected:                2.500000000E+00
   @S   Observed:                2.500000000E+00

    Orbital Energies [Eh]
    ---------------------

    Alpha Occupied:                                                       

       1A1  -114.676811     2A1   -30.847690     3A1   -10.784930  
       1B2    -8.345288     4A1    -8.343959     1B1    -8.319292  
       5A1    -1.348564     6A1    -0.771664     7A1    -0.482303  
       2B2    -0.439014     2B1    -0.432643     3B2    -0.218419  
       3B1    -0.161393     8A1    -0.114465     9A1     0.686235  
       4B2     0.711257     4B1     0.746597  

    Alpha Virtual:                                                        

      10A1     0.932231     5B2     1.000551     5B1     1.042495  
      11A1     1.068308     1A2     1.072977    12A1     1.165001  
       6B2     1.594807     6B1     1.603567    13A1     1.628691  
      14A1     2.591334     7B2     4.830698     7B1     4.834267  
       2A2     4.840544    15A1     4.840612    16A1     4.930105  

    Beta Occupied:                                                        

       1A1  -114.639359     2A1   -30.835773     3A1   -10.749794  
       4A1    -8.288178     1B2    -8.284604     1B1    -8.277910  
       5A1    -1.323515     6A1    -0.630850     2B1    -0.419071  
       2B2    -0.417635     7A1    -0.406259     3B1    -0.077190  

    Beta Virtual:                                                         

       3B2     0.019162     8A1     0.104691     9A1     0.878148  
       4B1     0.903834     4B2     0.909999    10A1     1.057331  
       5B1     1.126680     5B2     1.136210     1A2     1.176260  
      11A1     1.181619    12A1     1.274195     6B2     1.621928  
       6B1     1.623291    13A1     1.656897    14A1     2.628786  
       2A2     4.849698    15A1     4.849799     7B2     4.852501  
       7B1     4.853715    16A1     4.956584  

    Final Occupation by Irrep:
             A1    A2    B1    B2 
    DOCC [     7,    0,    3,    2 ]
    SOCC [     2,    0,    1,    2 ]
    NA   [     9,    0,    4,    4 ]
    NB   [     7,    0,    3,    2 ]

  @DF-UKS Final Energy:  -654.01217235685658

   => Energetics <=

    Nuclear Repulsion Energy =             57.4775978183053695
    One-Electron Energy =               -1030.3282872079812478
    Two-Electron Energy =                 354.2095966697385165
    DFT Exchange-Correlation Energy =     -35.3710796369191272
    Empirical Dispersion Energy =           0.0000000000000000
    VV10 Nonlocal Energy =                  0.0000000000000000
    Total Energy =                       -654.0121723568564676

  UHF NO Occupations:
  HONO-2 :    4 B2 1.0000000
  HONO-1 :    4 B1 1.0000000
  HONO-0 :    9 A1 1.0000000
  LUNO+0 :   10 A1 0.0008936
  LUNO+1 :   11 A1 0.0001268
  LUNO+2 :    5 B1 0.0000434
  LUNO+3 :    5 B2 0.0000210


Computation Completed


Properties will be evaluated at   0.000000,   0.000000,   0.000000 [a0]

Properties computed using the SCF density matrix


 Multipole Moments:

 ------------------------------------------------------------------------------------
     Multipole            Electronic (a.u.)      Nuclear  (a.u.)        Total (a.u.)
 ------------------------------------------------------------------------------------

 L = 1.  Multiply by 2.5417464519 to convert [e a0] to [Debye]
 Dipole X            :          0.0000000            0.0000000            0.0000000
 Dipole Y            :          0.0000000            0.0000000            0.0000000
 Dipole Z            :         -0.0355183            2.0768022            2.0412839
 Magnitude           :                                                    2.0412839

 ------------------------------------------------------------------------------------

*** tstop() called on Joses-MacBook-Pro-2.local at Thu Jul 17 11:05:13 2025
Module time:
	user time   =       3.86 seconds =       0.06 minutes
	system time =       4.54 seconds =       0.08 minutes
	total time  =          1 seconds =       0.02 minutes
Total time:
	user time   =      17.94 seconds =       0.30 minutes
	system time =      23.91 seconds =       0.40 minutes
	total time  =          5 seconds =       0.08 minutes

*** tstart() called on Joses-MacBook-Pro-2.local
*** at Thu Jul 17 11:05:13 2025


         ------------------------------------------------------------
                                   SCF GRAD                          
                          Rob Parrish, Justin Turney,                
                       Andy Simmonett, and Alex Sokolov              
         ------------------------------------------------------------

  ==> Geometry <==

    Molecular point group: c2v
    Full point group: C_inf_v

    Geometry (in Angstrom), charge = -1, multiplicity = 6:

       Center              X                  Y                   Z               Mass       
    ------------   -----------------  -----------------  -----------------  -----------------
         NE           0.000000000000     0.000000000000     1.104592984032    19.992440176200
         AR           0.000000000000     0.000000000000    -0.552607412925    39.962383123700

  Nuclear repulsion =   57.477597818305370

  ==> Basis Set <==

  Basis Set: CC-PVDZ
    Blend: CC-PVDZ
    Number of shells: 14
    Number of basis functions: 32
    Number of Cartesian functions: 34
    Spherical Harmonics?: true
    Max angular momentum: 2

  ==> DFJKGrad: Density-Fitted SCF Gradients <==

    Gradient:                    1
    J tasked:                  Yes
    K tasked:                  Yes
    wK tasked:                  No
    OpenMP threads:              1
    Integrals threads:           1
    Memory [MiB]:              375
    Schwarz Cutoff:          1E-12
    Fitting Condition:       1E-10

   => Auxiliary Basis Set <=

  Basis Set: (CC-PVDZ AUX)
    Blend: CC-PVDZ-JKFIT
    Number of shells: 60
    Number of basis functions: 182
    Number of Cartesian functions: 211
    Spherical Harmonics?: true
    Max angular momentum: 3

  ==> DFT Potential <==

   => LibXC <=

    Version 6.2.2
    S. Lehtola, C. Steigemann, M. J.T. Oliveira, and M. A.L. Marques.,  SoftwareX 7, 1–5 (2018) (10.1016/j.softx.2017.11.002)

   => Composite Functional: B3LYP <= 

    B3LYP Hyb-GGA Exchange-Correlation Functional

    P. J. Stephens, F. J. Devlin, C. F. Chabalowski, and M. J. Frisch.,  J. Phys. Chem. 98, 11623 (1994) (10.1021/j100096a001)

    Deriv               =              1
    GGA                 =           TRUE
    Meta                =          FALSE

    Exchange Hybrid     =           TRUE
    MP2 Hybrid          =          FALSE

   => Exchange Functionals <=

    0.0800   Slater exchange
    0.7200         Becke 88

   => Exact (HF) Exchange <=

    0.2000               HF 

   => Correlation Functionals <=

    0.1900   Vosko, Wilk & Nusair (VWN5_RPA)
    0.8100   Lee, Yang & Parr

   => LibXC Density Thresholds  <==

    XC_HYB_GGA_XC_B3LYP:  1.00E-15 

   => Molecular Quadrature <=

    Radial Scheme          =       TREUTLER
    Pruning Scheme         =           NONE
    Nuclear Scheme         =       TREUTLER

    Blocking Scheme        =         OCTREE
    BS radius alpha        =              1
    Pruning alpha          =              1
    Radial Points          =             75
    Spherical Points       =            302
    Total Points           =          41357
    Total Blocks           =            368
    Max Points             =            255
    Max Functions          =             32
    Weights Tolerance      =       1.00E-15


  -Total Gradient:
     Atom            X                  Y                   Z
    ------   -----------------  -----------------  -----------------
       1        0.000000000000    -0.000000000000    -0.176460973562
       2        0.000000000000    -0.000000000000     0.176385350723


*** tstop() called on Joses-MacBook-Pro-2.local at Thu Jul 17 11:05:13 2025
Module time:
	user time   =       0.73 seconds =       0.01 minutes
	system time =       1.70 seconds =       0.03 minutes
	total time  =          0 seconds =       0.00 minutes
Total time:
	user time   =      18.67 seconds =       0.31 minutes
	system time =      25.61 seconds =       0.43 minutes
	total time  =          5 seconds =       0.08 minutes

    			-----------------------------------------

    			 OPTKING 3.0: for geometry optimizations 

    			     By R.A. King, Bethel University     

    			        with contributions from          

    			    A.V. Copan, J. Cayton, A. Heide      

    			-----------------------------------------

    
	                            ===> Fragment 1 <== 

	 Z (Atomic Numbers)          Masses                          Geom                  
	      10.000000            19.992440          0.00000000  0.00000000  2.08737822   
	      18.000000            39.962383          0.00000000  0.00000000 -1.04427667   

	 - Coordinate -           - BOHR/RAD -       - ANG/DEG -
	 R(1,2)           =         3.131655           1.657200


	        --- Internal Coordinate Step in ANG or DEG, aJ/ANG or AJ/DEG ---
	-------------------------------------------------------------------------------
	           Coordinate      Previous         Force          Change          New 
	           ----------      --------        ------          ------        ------
	               R(1,2)       1.65720        1.45350        0.12423       1.78144
	-------------------------------------------------------------------------------

	                                 ==> Convergence Check <==                                  
    
	Measures of convergence in internal coordinates in au.
    
	Criteria marked as inactive (o), active & met (*), and active & unmet ( ).

	----------------------------------------------------------------------------------------------
	   Step    Total Energy     Delta E     Max Force     RMS Force      Max Disp      RMS Disp   
	----------------------------------------------------------------------------------------------
	  Convergence Criteria     1.00e-06 *    3.00e-04 *             o    1.20e-03 *             o
	----------------------------------------------------------------------------------------------
	     4    -654.01217236   -6.91e-02      1.76e-01      1.76e-01 o    2.35e-01      2.35e-01 o  ~
	----------------------------------------------------------------------------------------------

Next Geometry in Ang 
	Fragment 1 (Ang)

	   Ne   0.0000000000   0.0000000000   1.1667102966
	   Ar   0.0000000000   0.0000000000  -0.6147247255


    Structure for next step:
    Molecular point group: c2v
    Full point group: C_inf_v

    Geometry (in Angstrom), charge = -1, multiplicity = 6:

    NE           0.000000000000     0.000000000000     1.187400528323
    AR           0.000000000000     0.000000000000    -0.594034493744


Scratch directory: /tmp/
gradient() will perform analytic gradient computation.
   => Libint2 <=

    Primary   basis highest AM E, G, H:  6, 6, 3
    Auxiliary basis highest AM E, G, H:  7, 7, 4
    Onebody   basis highest AM E, G, H:  -, -, -
    Solid Harmonics ordering:            Gaussian

*** tstart() called on Joses-MacBook-Pro-2.local
*** at Thu Jul 17 11:05:13 2025

   => Loading Basis Set <=

    Name: CC-PVDZ
    Role: ORBITAL
    Keyword: BASIS
    atoms 1 entry NE         line   258 file /Users/joseantoniorodriguesromero/anaconda3/share/psi4/basis/cc-pvdz.gbs 
    atoms 2 entry AR         line   718 file /Users/joseantoniorodriguesromero/anaconda3/share/psi4/basis/cc-pvdz.gbs 


         ---------------------------------------------------------
                                   SCF
               by Justin Turney, Rob Parrish, Andy Simmonett
                          and Daniel G. A. Smith
                              UKS Reference
                        1 Threads,    500 MiB Core
         ---------------------------------------------------------

  ==> Geometry <==

    Molecular point group: c2v
    Full point group: C_inf_v

    Geometry (in Angstrom), charge = -1, multiplicity = 6:

       Center              X                  Y                   Z               Mass       
    ------------   -----------------  -----------------  -----------------  -----------------
         NE           0.000000000000     0.000000000000     1.187400528323    19.992440176200
         AR           0.000000000000     0.000000000000    -0.594034493744    39.962383123700

  Running in c2v symmetry.

  Rotational constants: A = ************  B =      0.39862  C =      0.39862 [cm^-1]
  Rotational constants: A = ************  B =  11950.44755  C =  11950.44755 [MHz]
  Nuclear repulsion =   53.469195755501829

  Charge       = -1
  Multiplicity = 6
  Electrons    = 29
  Nalpha       = 17
  Nbeta        = 12

  ==> Algorithm <==

  SCF Algorithm Type is DF.
  DIIS enabled.
  MOM disabled.
  Fractional occupation disabled.
  Guess Type is READ.
  Energy threshold   = 1.00e-08
  Density threshold  = 1.00e-08
  Integral threshold = 1.00e-12

  ==> Primary Basis <==

  Basis Set: CC-PVDZ
    Blend: CC-PVDZ
    Number of shells: 14
    Number of basis functions: 32
    Number of Cartesian functions: 34
    Spherical Harmonics?: true
    Max angular momentum: 2

  ==> DFT Potential <==

   => LibXC <=

    Version 6.2.2
    S. Lehtola, C. Steigemann, M. J.T. Oliveira, and M. A.L. Marques.,  SoftwareX 7, 1–5 (2018) (10.1016/j.softx.2017.11.002)

[...]
	-------------------------------------------------------------------------------

	                                 ==> Convergence Check <==                                  
    
	Measures of convergence in internal coordinates in au.
    
	Criteria marked as inactive (o), active & met (*), and active & unmet ( ).

	----------------------------------------------------------------------------------------------
	   Step    Total Energy     Delta E     Max Force     RMS Force      Max Disp      RMS Disp   
	----------------------------------------------------------------------------------------------
	  Convergence Criteria     1.00e-06 *    3.00e-04 *             o    1.20e-03 *             o
	----------------------------------------------------------------------------------------------
	    20    -654.10750443   -2.54e-06      1.15e-04 *    1.15e-04 o    4.40e-03      4.40e-03 o  ~
	----------------------------------------------------------------------------------------------

Next Geometry in Ang 
	Fragment 1 (Ang)

	   Ne   0.0000000000   0.0000000000   2.0716424233
	   Ar   0.0000000000   0.0000000000  -1.0369866547


    Structure for next step:
    Molecular point group: c2v
    Full point group: C_inf_v

    Geometry (in Angstrom), charge = -1, multiplicity = 6:

    NE           0.000000000000     0.000000000000     2.072030561793
    AR           0.000000000000     0.000000000000    -1.036598516202


Scratch directory: /tmp/
gradient() will perform analytic gradient computation.
   => Libint2 <=

    Primary   basis highest AM E, G, H:  6, 6, 3
    Auxiliary basis highest AM E, G, H:  7, 7, 4
    Onebody   basis highest AM E, G, H:  -, -, -
    Solid Harmonics ordering:            Gaussian

*** tstart() called on Joses-MacBook-Pro-2.local
*** at Thu Jul 17 11:05:29 2025

   => Loading Basis Set <=

    Name: CC-PVDZ
    Role: ORBITAL
    Keyword: BASIS
    atoms 1 entry NE         line   258 file /Users/joseantoniorodriguesromero/anaconda3/share/psi4/basis/cc-pvdz.gbs 
    atoms 2 entry AR         line   718 file /Users/joseantoniorodriguesromero/anaconda3/share/psi4/basis/cc-pvdz.gbs 


         ---------------------------------------------------------
                                   SCF
               by Justin Turney, Rob Parrish, Andy Simmonett
                          and Daniel G. A. Smith
                              UKS Reference
                        1 Threads,    500 MiB Core
         ---------------------------------------------------------

  ==> Geometry <==

    Molecular point group: c2v
    Full point group: C_inf_v

    Geometry (in Angstrom), charge = -1, multiplicity = 6:

       Center              X                  Y                   Z               Mass       
    ------------   -----------------  -----------------  -----------------  -----------------
         NE           0.000000000000     0.000000000000     2.072030561793    19.992440176200
         AR           0.000000000000     0.000000000000    -1.036598516202    39.962383123700

  Running in c2v symmetry.

  Rotational constants: A = ************  B =      0.13091  C =      0.13091 [cm^-1]
  Rotational constants: A = ************  B =   3924.51806  C =   3924.51806 [MHz]
  Nuclear repulsion =   30.641126853913541

  Charge       = -1
  Multiplicity = 6
  Electrons    = 29
  Nalpha       = 17
  Nbeta        = 12

  ==> Algorithm <==

  SCF Algorithm Type is DF.
  DIIS enabled.
  MOM disabled.
  Fractional occupation disabled.
  Guess Type is READ.
  Energy threshold   = 1.00e-08
  Density threshold  = 1.00e-08
  Integral threshold = 1.00e-12

  ==> Primary Basis <==

  Basis Set: CC-PVDZ
    Blend: CC-PVDZ
    Number of shells: 14
    Number of basis functions: 32
    Number of Cartesian functions: 34
    Spherical Harmonics?: true
    Max angular momentum: 2

  ==> DFT Potential <==

   => LibXC <=

    Version 6.2.2
    S. Lehtola, C. Steigemann, M. J.T. Oliveira, and M. A.L. Marques.,  SoftwareX 7, 1–5 (2018) (10.1016/j.softx.2017.11.002)

   => Composite Functional: B3LYP <= 

    B3LYP Hyb-GGA Exchange-Correlation Functional

    P. J. Stephens, F. J. Devlin, C. F. Chabalowski, and M. J. Frisch.,  J. Phys. Chem. 98, 11623 (1994) (10.1021/j100096a001)

    Deriv               =              1
    GGA                 =           TRUE
    Meta                =          FALSE

    Exchange Hybrid     =           TRUE
    MP2 Hybrid          =          FALSE

   => Exchange Functionals <=

    0.0800   Slater exchange
    0.7200         Becke 88

   => Exact (HF) Exchange <=

    0.2000               HF 

   => Correlation Functionals <=

    0.1900   Vosko, Wilk & Nusair (VWN5_RPA)
    0.8100   Lee, Yang & Parr

   => LibXC Density Thresholds  <==

    XC_HYB_GGA_XC_B3LYP:  1.00E-15 

   => Molecular Quadrature <=

    Radial Scheme          =       TREUTLER
    Pruning Scheme         =           NONE
    Nuclear Scheme         =       TREUTLER

    Blocking Scheme        =         OCTREE
    BS radius alpha        =              1
    Pruning alpha          =              1
    Radial Points          =             75
    Spherical Points       =            302
    Total Points           =          41520
    Total Blocks           =            375
    Max Points             =            255
    Max Functions          =             32
    Weights Tolerance      =       1.00E-15

   => Loading Basis Set <=

    Name: (CC-PVDZ AUX)
    Role: JKFIT
    Keyword: DF_BASIS_SCF
    atoms 1 entry NE         line   321 file /Users/joseantoniorodriguesromero/anaconda3/share/psi4/basis/cc-pvdz-jkfit.gbs 
    atoms 2 entry AR         line   741 file /Users/joseantoniorodriguesromero/anaconda3/share/psi4/basis/cc-pvdz-jkfit.gbs 

   => Loading Basis Set <=

    Name: CC-PVDZ
    Role: ORBITAL
    Keyword: BASIS
    atoms 1 entry NE         line   258 file /Users/joseantoniorodriguesromero/anaconda3/share/psi4/basis/cc-pvdz.gbs 
    atoms 2 entry AR         line   718 file /Users/joseantoniorodriguesromero/anaconda3/share/psi4/basis/cc-pvdz.gbs 

  Reading orbitals from file /tmp/sextet_NeAr.default.72949.180.npy, no projection.

  ==> Integral Setup <==

  DFHelper Memory: AOs need 0.002 GiB; user supplied 0.334 GiB. 
  Using in-core AOs.

  ==> MemDFJK: Density-Fitted J/K Matrices <==

    J tasked:                   Yes
    K tasked:                   Yes
    wK tasked:                   No
    OpenMP threads:               1
    Memory [MiB]:               341
    Algorithm:                 Core
    Schwarz Cutoff:           1E-12
    Mask sparsity (%):       0.0000
    Fitting Condition:        1E-10

   => Auxiliary Basis Set <=

  Basis Set: (CC-PVDZ AUX)
    Blend: CC-PVDZ-JKFIT
    Number of shells: 60
    Number of basis functions: 182
    Number of Cartesian functions: 211
    Spherical Harmonics?: true
    Max angular momentum: 3

  Cached 100.0% of DFT collocation blocks in 0.032 [GiB].

  Minimum eigenvalue in the overlap matrix is 1.1003793518E-01.
  Reciprocal condition number of the overlap matrix is 6.4376747335E-02.
    Using symmetric orthogonalization.

  ==> Pre-Iterations <==

  SCF Guess: Orbitals guess was supplied from a previous computation.

   -------------------------------------------------------
    Irrep   Nso     Nmo     Nalpha   Nbeta   Ndocc  Nsocc
   -------------------------------------------------------
     A1        16      16       9       7       7       2
     A2         2       2       0       0       0       0
     B1         7       7       4       3       3       1
     B2         7       7       4       2       2       2
   -------------------------------------------------------
    Total      32      32      17      12      12       5
   -------------------------------------------------------

  ==> Iterations <==

                           Total Energy        Delta E     RMS |[F,P]|

   @DF-UKS iter   0:  -654.10751915941273   -6.54108e+02   2.88946e-05 
   @DF-UKS iter   1:  -654.10750488092174    1.42785e-05   2.00113e-06 DIIS
   @DF-UKS iter   2:  -654.10750488132453   -4.02792e-10   1.71369e-06 DIIS/DAMP=1%
   @DF-UKS iter   3:  -654.10750559652638   -7.15202e-07   1.69976e-07 DIIS/DAMP=1%
   @DF-UKS iter   4:  -654.10750481083585    7.85691e-07   3.38900e-08 DIIS/DAMP=1%
   @DF-UKS iter   5:  -654.10750489596512   -8.51293e-08   9.93682e-09 DIIS/DAMP=1%
   @DF-UKS iter   6:  -654.10750488311180    1.28533e-08   9.81921e-09 DIIS/DAMP=1%
   @DF-UKS iter   7:  -654.10750488046028    2.65152e-09   1.20762e-09 DIIS/DAMP=1%
  Energy and wave function converged.


  ==> Post-Iterations <==

   Electrons on quadrature grid:
      Nalpha   =   16.9999862179 ; deviation = -1.378e-05
      Nbeta    =   11.9999860449 ; deviation = -1.396e-05
      Ntotal   =   28.9999722628 ; deviation = -2.774e-05 

   @Spin Contamination Metric:   2.167937897E-03
   @S^2 Expected:                8.750000000E+00
   @S^2 Observed:                8.752167938E+00
   @S   Expected:                2.500000000E+00
   @S   Observed:                2.500000000E+00

    Orbital Energies [Eh]
    ---------------------

    Alpha Occupied:                                                       

       1A1  -114.735480     2A1   -30.782738     3A1   -10.845104  
       4A1    -8.405781     1B2    -8.405744     1B1    -8.378605  
       5A1    -1.251053     6A1    -0.801846     2B2    -0.360174  
       2B1    -0.360041     7A1    -0.359281     3B2    -0.270759  
       8A1    -0.269806     3B1    -0.210665     9A1     0.673390  
       4B2     0.675112     4B1     0.711193  

    Alpha Virtual:                                                        

      10A1     0.883087    11A1     0.981374     5B2     0.981508  
       5B1     1.028911     1A2     1.029030    12A1     1.046255  
       6B2     1.536789     6B1     1.537085    13A1     1.564972  
      14A1     2.007388     2A2     4.905584    15A1     4.905814  
       7B2     4.907027     7B1     4.907102    16A1     4.908075  

    Beta Occupied:                                                        

       1A1  -114.696385     2A1   -30.781677     3A1   -10.808579  
       4A1    -8.344407     1B2    -8.344099     1B1    -8.336821  
       5A1    -1.249751     6A1    -0.635022     2B2    -0.359525  
       2B1    -0.359404     7A1    -0.355896     3B1    -0.126088  

    Beta Virtual:                                                         

       3B2    -0.028817     8A1    -0.028574     4B1     0.868259  
       9A1     0.868836     4B2     0.874570    10A1     1.014008  
       5B1     1.128309     1A2     1.128559    11A1     1.132558  
      12A1     1.138744     5B2     1.138932     6B2     1.536978  
       6B1     1.537266    13A1     1.570259    14A1     2.009770  
       2A2     4.905986    15A1     4.906216     7B2     4.908187  
       7B1     4.908258    16A1     4.909489  

    Final Occupation by Irrep:
             A1    A2    B1    B2 
    DOCC [     7,    0,    3,    2 ]
    SOCC [     2,    0,    1,    2 ]
    NA   [     9,    0,    4,    4 ]
    NB   [     7,    0,    3,    2 ]

  @DF-UKS Final Energy:  -654.10750488046028

   => Energetics <=

    Nuclear Repulsion Energy =             30.6411268539135406
    One-Electron Energy =                -976.6176531995940877
    Two-Electron Energy =                 327.1574813689721850
    DFT Exchange-Correlation Energy =     -35.2884599037519706
    Empirical Dispersion Energy =           0.0000000000000000
    VV10 Nonlocal Energy =                  0.0000000000000000
    Total Energy =                       -654.1075048804602829

  UHF NO Occupations:
  HONO-2 :    4 B2 1.0000000
  HONO-1 :    4 B1 1.0000000
  HONO-0 :    9 A1 1.0000000
  LUNO+0 :   10 A1 0.0010818
  LUNO+1 :   11 A1 0.0000022
  LUNO+2 :    5 B1 0.0000002
  LUNO+3 :    5 B2 0.0000001


Computation Completed


Properties will be evaluated at   0.000000,   0.000000,   0.000000 [a0]

Properties computed using the SCF density matrix


 Multipole Moments:

 ------------------------------------------------------------------------------------
     Multipole            Electronic (a.u.)      Nuclear  (a.u.)        Total (a.u.)
 ------------------------------------------------------------------------------------

 L = 1.  Multiply by 2.5417464519 to convert [e a0] to [Debye]
 Dipole X            :          0.0000000            0.0000000            0.0000000
 Dipole Y            :          0.0000000            0.0000000            0.0000000
 Dipole Z            :         -2.0461038            3.8957315            1.8496277
 Magnitude           :                                                    1.8496277

 ------------------------------------------------------------------------------------

*** tstop() called on Joses-MacBook-Pro-2.local at Thu Jul 17 11:05:29 2025
Module time:
	user time   =       2.07 seconds =       0.03 minutes
	system time =       3.21 seconds =       0.05 minutes
	total time  =          0 seconds =       0.00 minutes
Total time:
	user time   =      95.23 seconds =       1.59 minutes
	system time =     110.25 seconds =       1.84 minutes
	total time  =         21 seconds =       0.35 minutes

*** tstart() called on Joses-MacBook-Pro-2.local
*** at Thu Jul 17 11:05:29 2025


         ------------------------------------------------------------
                                   SCF GRAD                          
                          Rob Parrish, Justin Turney,                
                       Andy Simmonett, and Alex Sokolov              
         ------------------------------------------------------------

  ==> Geometry <==

    Molecular point group: c2v
    Full point group: C_inf_v

    Geometry (in Angstrom), charge = -1, multiplicity = 6:

       Center              X                  Y                   Z               Mass       
    ------------   -----------------  -----------------  -----------------  -----------------
         NE           0.000000000000     0.000000000000     2.072030561793    19.992440176200
         AR           0.000000000000     0.000000000000    -1.036598516202    39.962383123700

  Nuclear repulsion =   30.641126853913541

  ==> Basis Set <==

  Basis Set: CC-PVDZ
    Blend: CC-PVDZ
    Number of shells: 14
    Number of basis functions: 32
    Number of Cartesian functions: 34
    Spherical Harmonics?: true
    Max angular momentum: 2

  ==> DFJKGrad: Density-Fitted SCF Gradients <==

    Gradient:                    1
    J tasked:                  Yes
    K tasked:                  Yes
    wK tasked:                  No
    OpenMP threads:              1
    Integrals threads:           1
    Memory [MiB]:              375
    Schwarz Cutoff:          1E-12
    Fitting Condition:       1E-10

   => Auxiliary Basis Set <=

  Basis Set: (CC-PVDZ AUX)
    Blend: CC-PVDZ-JKFIT
    Number of shells: 60
    Number of basis functions: 182
    Number of Cartesian functions: 211
    Spherical Harmonics?: true
    Max angular momentum: 3

  ==> DFT Potential <==

   => LibXC <=

    Version 6.2.2
    S. Lehtola, C. Steigemann, M. J.T. Oliveira, and M. A.L. Marques.,  SoftwareX 7, 1–5 (2018) (10.1016/j.softx.2017.11.002)

   => Composite Functional: B3LYP <= 

    B3LYP Hyb-GGA Exchange-Correlation Functional

    P. J. Stephens, F. J. Devlin, C. F. Chabalowski, and M. J. Frisch.,  J. Phys. Chem. 98, 11623 (1994) (10.1021/j100096a001)

    Deriv               =              1
    GGA                 =           TRUE
    Meta                =          FALSE

    Exchange Hybrid     =           TRUE
    MP2 Hybrid          =          FALSE

   => Exchange Functionals <=

    0.0800   Slater exchange
    0.7200         Becke 88

   => Exact (HF) Exchange <=

    0.2000               HF 

   => Correlation Functionals <=

    0.1900   Vosko, Wilk & Nusair (VWN5_RPA)
    0.8100   Lee, Yang & Parr

   => LibXC Density Thresholds  <==

    XC_HYB_GGA_XC_B3LYP:  1.00E-15 

   => Molecular Quadrature <=

    Radial Scheme          =       TREUTLER
    Pruning Scheme         =           NONE
    Nuclear Scheme         =       TREUTLER

    Blocking Scheme        =         OCTREE
    BS radius alpha        =              1
    Pruning alpha          =              1
    Radial Points          =             75
    Spherical Points       =            302
    Total Points           =          41520
    Total Blocks           =            375
    Max Points             =            255
    Max Functions          =             32
    Weights Tolerance      =       1.00E-15


  -Total Gradient:
     Atom            X                  Y                   Z
    ------   -----------------  -----------------  -----------------
       1       -0.000000000000     0.000000000000    -0.000049923222
       2       -0.000000000000     0.000000000000     0.000036669637


*** tstop() called on Joses-MacBook-Pro-2.local at Thu Jul 17 11:05:29 2025
Module time:
	user time   =       1.48 seconds =       0.02 minutes
	system time =       0.57 seconds =       0.01 minutes
	total time  =          0 seconds =       0.00 minutes
Total time:
	user time   =      96.72 seconds =       1.61 minutes
	system time =     110.82 seconds =       1.85 minutes
	total time  =         21 seconds =       0.35 minutes

    			-----------------------------------------

    			 OPTKING 3.0: for geometry optimizations 

    			     By R.A. King, Bethel University     

    			        with contributions from          

    			    A.V. Copan, J. Cayton, A. Heide      

    			-----------------------------------------

    
	                            ===> Fragment 1 <== 

	 Z (Atomic Numbers)          Masses                          Geom                  
	      10.000000            19.992440          0.00000000  0.00000000  3.91557029   
	      18.000000            39.962383          0.00000000  0.00000000 -1.95888730   

	 - Coordinate -           - BOHR/RAD -       - ANG/DEG -
	 R(1,2)           =         5.874458           3.108629


	        --- Internal Coordinate Step in ANG or DEG, aJ/ANG or AJ/DEG ---
	-------------------------------------------------------------------------------
	           Coordinate      Previous         Force          Change          New 
	           ----------      --------        ------          ------        ------
	               R(1,2)       3.10863        0.00036        0.00119       3.10981
	-------------------------------------------------------------------------------

	                                 ==> Convergence Check <==                                  
    
	Measures of convergence in internal coordinates in au.
    
	Criteria marked as inactive (o), active & met (*), and active & unmet ( ).

	----------------------------------------------------------------------------------------------
	   Step    Total Energy     Delta E     Max Force     RMS Force      Max Disp      RMS Disp   
	----------------------------------------------------------------------------------------------
	  Convergence Criteria     1.00e-06 *    3.00e-04 *             o    1.20e-03 *             o
	----------------------------------------------------------------------------------------------
	    21    -654.10750488   -4.52e-07 *    4.33e-05 *    4.33e-05 o    2.24e-03      2.24e-03 o  ~
	----------------------------------------------------------------------------------------------

Next Geometry in Ang 
	Fragment 1 (Ang)

	   Ne   0.0000000000   0.0000000000   2.0726234016
	   Ar   0.0000000000   0.0000000000  -1.0371913560


    Final optimized geometry and variables:
    Molecular point group: c2v
    Full point group: C_inf_v

    Geometry (in Angstrom), charge = -1, multiplicity = 6:

    NE           0.000000000000     0.000000000000     2.072030561793
    AR           0.000000000000     0.000000000000    -1.036598516202


    Psi4 stopped on: Thursday, 17 July 2025 11:05AM
    Psi4 wall time for execution: 0:00:21.44

*** Psi4 exiting successfully. Buy a developer a beer!
