
    -----------------------------------------------------------------------
          Psi4: An Open-Source Ab Initio Electronic Structure Package
                               Psi4 1.9.1 release

                         Git: Rev {} zzzzzzz 


    D. G. A. Smith, L. A. Burns, A. C. Simmonett, R. M. Parrish,
    M. C. Schieber, R. Galvelis, P. Kraus, H. Kruse, R. Di Remigio,
    A. Alenaizan, A. M. James, S. Lehtola, J. P. Misiewicz, M. Scheurer,
    R. A. Shaw, J. B. Schriber, Y. Xie, Z. L. Glick, D. A. Sirianni,
    J. S. O'Brien, J. M. Waldrop, A. Kumar, E. G. Hohenstein,
    B. P. Pritchard, B. R. Brooks, H. F. Schaefer III, A. Yu. Sokolov,
    K. Patkowski, A. E. DePrince III, U. Bozkaya, R. A. King,
    F. A. Evangelista, J. M. Turney, T. D. Crawford, C. D. Sherrill,
    J. Chem. Phys. 152(18) 184108 (2020). https://doi.org/10.1063/5.0006002

                            Additional Code Authors
    E. T. Seidl, C. L. Janssen, E. F. Valeev, M. L. Leininger,
    J. F. Gonthier, R. M. Richard, H. R. McAlexander, M. Saitow, X. Wang,
    P. Verma, M. H. Lechner, A. Jiang, S. Behnle, A. G. Heide,
    M. F. Herbst, and D. L. Poole

             Previous Authors, Complete List of Code Contributors,
                       and Citations for Specific Modules
    https://github.com/psi4/psi4/blob/master/codemeta.json
    https://github.com/psi4/psi4/graphs/contributors
    http://psicode.org/psi4manual/master/introduction.html#citing-psifour

    -----------------------------------------------------------------------


    Psi4 started on: Thursday, 17 July 2025 10:54AM

    Process ID: 72861
    Host:       Joses-MacBook-Pro-2.local
    PSIDATADIR: /Users/joseantoniorodriguesromero/anaconda3/share/psi4
    Memory:     500.0 MiB
    Threads:    1
    
  ==> Input File <==

--------------------------------------------------------------------------
molecule { 
-1 6
F   0.00000        0.60000        0.00000
P   0.00000       -0.60000        0.00000
}

set { 
basis              cc-pvdz
reference          uks
maxiter            500
geom_maxiter       500
DAMPING_PERCENTAGE 1
guess              SAP
}

optimize('b3lyp')
--------------------------------------------------------------------------

Scratch directory: /tmp/
gradient() will perform analytic gradient computation.
   => Libint2 <=

    Primary   basis highest AM E, G, H:  6, 6, 3
    Auxiliary basis highest AM E, G, H:  7, 7, 4
    Onebody   basis highest AM E, G, H:  -, -, -
    Solid Harmonics ordering:            Gaussian

*** tstart() called on Joses-MacBook-Pro-2.local
*** at Thu Jul 17 10:54:32 2025

   => Loading Basis Set <=

    Name: CC-PVDZ
    Role: ORBITAL
    Keyword: BASIS
    atoms 1 entry F          line   228 file /Users/joseantoniorodriguesromero/anaconda3/share/psi4/basis/cc-pvdz.gbs 
    atoms 2 entry P          line   538 file /Users/joseantoniorodriguesromero/anaconda3/share/psi4/basis/cc-pvdz.gbs 


         ---------------------------------------------------------
                                   SCF
               by Justin Turney, Rob Parrish, Andy Simmonett
                          and Daniel G. A. Smith
                              UKS Reference
                        1 Threads,    500 MiB Core
         ---------------------------------------------------------

  ==> Geometry <==

    Molecular point group: c2v
    Full point group: C_inf_v

    Geometry (in Angstrom), charge = -1, multiplicity = 6:

       Center              X                  Y                   Z               Mass       
    ------------   -----------------  -----------------  -----------------  -----------------
         F            0.000000000000     0.000000000000     0.743784350313    18.998403162730
         P            0.000000000000     0.000000000000    -0.456215649687    30.973761998420

  Running in c2v symmetry.

  Rotational constants: A = ************  B =      0.99415  C =      0.99415 [cm^-1]
  Rotational constants: A = ************  B =  29803.81215  C =  29803.81215 [MHz]
  Nuclear repulsion =   59.532436200375010

  Charge       = -1
  Multiplicity = 6
  Electrons    = 25
  Nalpha       = 15
  Nbeta        = 10

  ==> Algorithm <==

  SCF Algorithm Type is DF.
  DIIS enabled.
  MOM disabled.
  Fractional occupation disabled.
  Guess Type is SAP.
  Energy threshold   = 1.00e-08
  Density threshold  = 1.00e-08
  Integral threshold = 1.00e-12

  ==> Primary Basis <==

  Basis Set: CC-PVDZ
    Blend: CC-PVDZ
    Number of shells: 14
    Number of basis functions: 32
    Number of Cartesian functions: 34
    Spherical Harmonics?: true
    Max angular momentum: 2

  ==> DFT Potential <==

   => LibXC <=

    Version 6.2.2
    S. Lehtola, C. Steigemann, M. J.T. Oliveira, and M. A.L. Marques.,  SoftwareX 7, 1–5 (2018) (10.1016/j.softx.2017.11.002)

   => Composite Functional: B3LYP <= 

    B3LYP Hyb-GGA Exchange-Correlation Functional

    P. J. Stephens, F. J. Devlin, C. F. Chabalowski, and M. J. Frisch.,  J. Phys. Chem. 98, 11623 (1994) (10.1021/j100096a001)

    Deriv               =              1
    GGA                 =           TRUE
    Meta                =          FALSE

    Exchange Hybrid     =           TRUE
    MP2 Hybrid          =          FALSE

   => Exchange Functionals <=

    0.0800   Slater exchange
    0.7200         Becke 88

   => Exact (HF) Exchange <=

    0.2000               HF 

   => Correlation Functionals <=

    0.1900   Vosko, Wilk & Nusair (VWN5_RPA)
    0.8100   Lee, Yang & Parr

   => LibXC Density Thresholds  <==

    XC_HYB_GGA_XC_B3LYP:  1.00E-15 

   => Molecular Quadrature <=

    Radial Scheme          =       TREUTLER
    Pruning Scheme         =           NONE
    Nuclear Scheme         =       TREUTLER

    Blocking Scheme        =         OCTREE
    BS radius alpha        =              1
    Pruning alpha          =              1
    Radial Points          =             75
    Spherical Points       =            302
    Total Points           =          42407
    Total Blocks           =            381
    Max Points             =            256
    Max Functions          =             32
    Weights Tolerance      =       1.00E-15

   => Loading Basis Set <=

    Name: (CC-PVDZ AUX)
    Role: JKFIT
    Keyword: DF_BASIS_SCF
    atoms 1 entry F          line   271 file /Users/joseantoniorodriguesromero/anaconda3/share/psi4/basis/cc-pvdz-jkfit.gbs 
    atoms 2 entry P          line   519 file /Users/joseantoniorodriguesromero/anaconda3/share/psi4/basis/cc-pvdz-jkfit.gbs 

  ==> Integral Setup <==

  DFHelper Memory: AOs need 0.002 GiB; user supplied 0.328 GiB. 
  Using in-core AOs.

  ==> MemDFJK: Density-Fitted J/K Matrices <==

    J tasked:                   Yes
    K tasked:                   Yes
    wK tasked:                   No
    OpenMP threads:               1
    Memory [MiB]:               335
    Algorithm:                 Core
    Schwarz Cutoff:           1E-12
    Mask sparsity (%):       0.0000
    Fitting Condition:        1E-10

   => Auxiliary Basis Set <=

  Basis Set: (CC-PVDZ AUX)
    Blend: CC-PVDZ-JKFIT
    Number of shells: 60
    Number of basis functions: 182
    Number of Cartesian functions: 211
    Spherical Harmonics?: true
    Max angular momentum: 3

  Cached 100.0% of DFT collocation blocks in 0.038 [GiB].

  Minimum eigenvalue in the overlap matrix is 1.8461412281E-02.
  Reciprocal condition number of the overlap matrix is 6.2068140944E-03.
    Using symmetric orthogonalization.

  ==> Pre-Iterations <==

  SCF Guess: Superposition of Atomic Potentials (doi:10.1021/acs.jctc.8b01089).

  ==> SAP guess <==

   => Molecular Quadrature <=

    Radial Scheme          =       TREUTLER
    Pruning Scheme         =           NONE
    Nuclear Scheme         =       TREUTLER

    Blocking Scheme        =         OCTREE
    BS radius alpha        =              1
    Pruning alpha          =              1
    Radial Points          =             75
    Spherical Points       =            302
    Total Points           =          42407
    Total Blocks           =            381
    Max Points             =            256
    Max Functions          =             32
    Weights Tolerance      =       1.00E-15

   -------------------------------------------------------
    Irrep   Nso     Nmo     Nalpha   Nbeta   Ndocc  Nsocc
   -------------------------------------------------------
     A1        16      16       9       6       6       3
     A2         2       2       0       0       0       0
     B1         7       7       3       2       2       1
     B2         7       7       3       2       2       1
   -------------------------------------------------------
    Total      32      32      15      10      10       5
   -------------------------------------------------------

  ==> Iterations <==

                           Total Energy        Delta E     RMS |[F,P]|

   @DF-UKS iter   1:  -439.90505427557378   -4.39905e+02   4.24780e-02 ADIIS/DIIS
   @DF-UKS iter   2:  -439.63714422169966    2.67910e-01   6.61227e-02 ADIIS/DIIS/DAMP=1%
   @DF-UKS iter   3:  -440.10998626304001   -4.72842e-01   5.76153e-03 ADIIS/DIIS/DAMP=1%
   @DF-UKS iter   4:  -440.14010829629740   -3.01220e-02   1.60910e-03 ADIIS/DIIS/DAMP=1%
   @DF-UKS iter   5:  -440.14563231859182   -5.52402e-03   1.72641e-04 ADIIS/DIIS/DAMP=1%
   @DF-UKS iter   6:  -440.14522353290704    4.08786e-04   3.98333e-05 DIIS/DAMP=1%
   @DF-UKS iter   7:  -440.14535137859218   -1.27846e-04   5.51032e-06 DIIS/DAMP=1%
   @DF-UKS iter   8:  -440.14532654774024    2.48309e-05   1.45173e-06 DIIS/DAMP=1%
   @DF-UKS iter   9:  -440.14532537203894    1.17570e-06   8.62523e-08 DIIS/DAMP=1%
   @DF-UKS iter  10:  -440.14532562367913   -2.51640e-07   1.54395e-08 DIIS/DAMP=1%
   @DF-UKS iter  11:  -440.14532569367083   -6.99917e-08   1.35230e-09 DIIS/DAMP=1%
   @DF-UKS iter  12:  -440.14532568866855    5.00228e-09   1.83408e-10 DIIS/DAMP=1%
  Energy and wave function converged.


  ==> Post-Iterations <==

   Electrons on quadrature grid:
      Nalpha   =   15.0000000056 ; deviation = 5.604e-09
      Nbeta    =    9.9999999223 ; deviation = -7.772e-08
      Ntotal   =   24.9999999279 ; deviation = -7.212e-08 

   @Spin Contamination Metric:   6.863788167E-04
   @S^2 Expected:                8.750000000E+00
   @S^2 Observed:                8.750686379E+00
   @S   Expected:                2.500000000E+00
   @S   Observed:                2.500000000E+00

    Orbital Energies [Eh]
    ---------------------

    Alpha Occupied:                                                       

       1A1   -76.871485     2A1   -24.525556     3A1    -6.365518  
       4A1    -4.533506     1B2    -4.519582     1B1    -4.519582  
       5A1    -1.200421     6A1    -0.459178     2B1    -0.388275  
       2B2    -0.388275     7A1    -0.239971     3B1     0.041786  
       3B2     0.041786     8A1     0.208714     9A1     0.498744  

    Alpha Virtual:                                                        

       4B1     0.588752     4B2     0.588752     1A2     0.656829  
      10A1     0.656833    11A1     0.685300     5B1     0.827610  
       5B2     0.827610    12A1     1.141771     6B1     1.383189  
       6B2     1.383189    13A1     1.608303    14A1     2.324125  
       2A2     3.660722    15A1     3.660725     7B2     3.852820  
       7B1     3.852820    16A1     4.307666  

    Beta Occupied:                                                        

       1A1   -76.852600     2A1   -24.508170     3A1    -6.342431  
       4A1    -4.509662     1B2    -4.495108     1B1    -4.495108  
       5A1    -1.163619     6A1    -0.416975     2B1    -0.347075  
       2B2    -0.347075  

    Beta Virtual:                                                         

       7A1     0.007016     3B1     0.230264     3B2     0.230264  
       8A1     0.352453     9A1     0.669797     4B1     0.685209  
       4B2     0.685209     1A2     0.789023    10A1     0.789025  
      11A1     0.796494     5B1     0.940301     5B2     0.940301  
      12A1     1.166557     6B1     1.411670     6B2     1.411670  
      13A1     1.675760    14A1     2.345851     2A2     3.686450  
      15A1     3.686450     7B2     3.883762     7B1     3.883762  
      16A1     4.337643  

    Final Occupation by Irrep:
             A1    A2    B1    B2 
    DOCC [     6,    0,    2,    2 ]
    SOCC [     3,    0,    1,    1 ]
    NA   [     9,    0,    3,    3 ]
    NB   [     6,    0,    2,    2 ]

  @DF-UKS Final Energy:  -440.14532568866855

   => Energetics <=

    Nuclear Repulsion Energy =             59.5324362003750096
    One-Electron Energy =                -732.9742388805281053
    Two-Electron Energy =                 260.9129525812249994
    DFT Exchange-Correlation Energy =     -27.6164755897405279
    Empirical Dispersion Energy =           0.0000000000000000
    VV10 Nonlocal Energy =                  0.0000000000000000
    Total Energy =                       -440.1453256886685494

  UHF NO Occupations:
  HONO-2 :    3 B2 1.0000000
  HONO-1 :    3 B1 1.0000000
  HONO-0 :    9 A1 1.0000000
  LUNO+0 :    4 B2 0.0001234
  LUNO+1 :    4 B1 0.0001234
  LUNO+2 :   10 A1 0.0000793
  LUNO+3 :   11 A1 0.0000156


Computation Completed


Properties will be evaluated at   0.000000,   0.000000,   0.000000 [a0]

Properties computed using the SCF density matrix


 Multipole Moments:

 ------------------------------------------------------------------------------------
     Multipole            Electronic (a.u.)      Nuclear  (a.u.)        Total (a.u.)
 ------------------------------------------------------------------------------------

 L = 1.  Multiply by 2.5417464519 to convert [e a0] to [Debye]
 Dipole X            :          0.0000000            0.0000000            0.0000000
 Dipole Y            :          0.0000000            0.0000000            0.0000000
 Dipole Z            :          1.7745298           -0.2819010            1.4926288
 Magnitude           :                                                    1.4926288

 ------------------------------------------------------------------------------------

*** tstop() called on Joses-MacBook-Pro-2.local at Thu Jul 17 10:54:33 2025
Module time:
	user time   =       4.37 seconds =       0.07 minutes
	system time =       4.90 seconds =       0.08 minutes
	total time  =          1 seconds =       0.02 minutes
Total time:
	user time   =       4.37 seconds =       0.07 minutes
	system time =       4.90 seconds =       0.08 minutes
	total time  =          1 seconds =       0.02 minutes

*** tstart() called on Joses-MacBook-Pro-2.local
*** at Thu Jul 17 10:54:33 2025


         ------------------------------------------------------------
                                   SCF GRAD                          
                          Rob Parrish, Justin Turney,                
                       Andy Simmonett, and Alex Sokolov              
         ------------------------------------------------------------

  ==> Geometry <==

    Molecular point group: c2v
    Full point group: C_inf_v

    Geometry (in Angstrom), charge = -1, multiplicity = 6:

       Center              X                  Y                   Z               Mass       
    ------------   -----------------  -----------------  -----------------  -----------------
         F            0.000000000000     0.000000000000     0.743784350313    18.998403162730
         P            0.000000000000     0.000000000000    -0.456215649687    30.973761998420

  Nuclear repulsion =   59.532436200375010

  ==> Basis Set <==

  Basis Set: CC-PVDZ
    Blend: CC-PVDZ
    Number of shells: 14
    Number of basis functions: 32
    Number of Cartesian functions: 34
    Spherical Harmonics?: true
    Max angular momentum: 2

  ==> DFJKGrad: Density-Fitted SCF Gradients <==

    Gradient:                    1
    J tasked:                  Yes
    K tasked:                  Yes
    wK tasked:                  No
    OpenMP threads:              1
    Integrals threads:           1
    Memory [MiB]:              375
    Schwarz Cutoff:          1E-12
    Fitting Condition:       1E-10

   => Auxiliary Basis Set <=

  Basis Set: (CC-PVDZ AUX)
    Blend: CC-PVDZ-JKFIT
    Number of shells: 60
    Number of basis functions: 182
    Number of Cartesian functions: 211
    Spherical Harmonics?: true
    Max angular momentum: 3

  ==> DFT Potential <==

   => LibXC <=

    Version 6.2.2
    S. Lehtola, C. Steigemann, M. J.T. Oliveira, and M. A.L. Marques.,  SoftwareX 7, 1–5 (2018) (10.1016/j.softx.2017.11.002)

   => Composite Functional: B3LYP <= 

    B3LYP Hyb-GGA Exchange-Correlation Functional

    P. J. Stephens, F. J. Devlin, C. F. Chabalowski, and M. J. Frisch.,  J. Phys. Chem. 98, 11623 (1994) (10.1021/j100096a001)

    Deriv               =              1
    GGA                 =           TRUE
    Meta                =          FALSE

    Exchange Hybrid     =           TRUE
    MP2 Hybrid          =          FALSE

   => Exchange Functionals <=

    0.0800   Slater exchange
    0.7200         Becke 88

   => Exact (HF) Exchange <=

    0.2000               HF 

   => Correlation Functionals <=

    0.1900   Vosko, Wilk & Nusair (VWN5_RPA)
    0.8100   Lee, Yang & Parr

   => LibXC Density Thresholds  <==

    XC_HYB_GGA_XC_B3LYP:  1.00E-15 

   => Molecular Quadrature <=

    Radial Scheme          =       TREUTLER
    Pruning Scheme         =           NONE
    Nuclear Scheme         =       TREUTLER

    Blocking Scheme        =         OCTREE
    BS radius alpha        =              1
    Pruning alpha          =              1
    Radial Points          =             75
    Spherical Points       =            302
    Total Points           =          42407
    Total Blocks           =            381
    Max Points             =            256
    Max Functions          =             32
    Weights Tolerance      =       1.00E-15


  -Total Gradient:
     Atom            X                  Y                   Z
    ------   -----------------  -----------------  -----------------
       1        0.000000000000     0.000000000000    -1.002340751955
       2        0.000000000000     0.000000000000     1.002298683073


*** tstop() called on Joses-MacBook-Pro-2.local at Thu Jul 17 10:54:33 2025
Module time:
	user time   =       0.89 seconds =       0.01 minutes
	system time =       1.45 seconds =       0.02 minutes
	total time  =          0 seconds =       0.00 minutes
Total time:
	user time   =       5.27 seconds =       0.09 minutes
	system time =       6.35 seconds =       0.11 minutes
	total time  =          1 seconds =       0.02 minutes

    			-----------------------------------------

    			 OPTKING 3.0: for geometry optimizations 

    			     By R.A. King, Bethel University     

    			        with contributions from          

    			    A.V. Copan, J. Cayton, A. Heide      

    			-----------------------------------------

    
	                            ===> Fragment 1 <== 

	 Z (Atomic Numbers)          Masses                          Geom                  
	       9.000000            18.998403          0.00000000  0.00000000  1.40554872   
	      15.000000            30.973762          0.00000000  0.00000000 -0.86212263   

	 - Coordinate -           - BOHR/RAD -       - ANG/DEG -
	 R(1,2)           =         2.267671           1.200000


	        --- Internal Coordinate Step in ANG or DEG, aJ/ANG or AJ/DEG ---
	-------------------------------------------------------------------------------
	           Coordinate      Previous         Force          Change          New 
	           ----------      --------        ------          ------        ------
	               R(1,2)       1.20000        8.25783        0.12027       1.32027
	-------------------------------------------------------------------------------

	                                 ==> Convergence Check <==                                  
    
	Measures of convergence in internal coordinates in au.
    
	Criteria marked as inactive (o), active & met (*), and active & unmet ( ).

	----------------------------------------------------------------------------------------------
	   Step    Total Energy     Delta E     Max Force     RMS Force      Max Disp      RMS Disp   
	----------------------------------------------------------------------------------------------
	  Convergence Criteria     1.00e-06 *    3.00e-04 *             o    1.20e-03 *             o
	----------------------------------------------------------------------------------------------
	     1    -440.14532569   -4.40e+02      1.00e+00      1.00e+00 o    2.27e-01      2.27e-01 o  ~
	----------------------------------------------------------------------------------------------

Next Geometry in Ang 
	Fragment 1 (Ang)

	    F   0.0000000000   0.0000000000   0.8039205657
	    P   0.0000000000   0.0000000000  -0.5163518651


    Structure for next step:
    Molecular point group: c2v
    Full point group: C_inf_v

    Geometry (in Angstrom), charge = -1, multiplicity = 6:

    F            0.000000000000     0.000000000000     0.818331643511
    P            0.000000000000     0.000000000000    -0.501940787336


Scratch directory: /tmp/
gradient() will perform analytic gradient computation.
   => Libint2 <=

    Primary   basis highest AM E, G, H:  6, 6, 3
    Auxiliary basis highest AM E, G, H:  7, 7, 4
    Onebody   basis highest AM E, G, H:  -, -, -
    Solid Harmonics ordering:            Gaussian

*** tstart() called on Joses-MacBook-Pro-2.local
*** at Thu Jul 17 10:54:33 2025

   => Loading Basis Set <=

    Name: CC-PVDZ
    Role: ORBITAL
    Keyword: BASIS
    atoms 1 entry F          line   228 file /Users/joseantoniorodriguesromero/anaconda3/share/psi4/basis/cc-pvdz.gbs 
    atoms 2 entry P          line   538 file /Users/joseantoniorodriguesromero/anaconda3/share/psi4/basis/cc-pvdz.gbs 


         ---------------------------------------------------------
                                   SCF
               by Justin Turney, Rob Parrish, Andy Simmonett
                          and Daniel G. A. Smith
                              UKS Reference
                        1 Threads,    500 MiB Core
         ---------------------------------------------------------

  ==> Geometry <==

    Molecular point group: c2v
    Full point group: C_inf_v

    Geometry (in Angstrom), charge = -1, multiplicity = 6:

       Center              X                  Y                   Z               Mass       
    ------------   -----------------  -----------------  -----------------  -----------------
         F            0.000000000000     0.000000000000     0.818331643511    18.998403162730
         P            0.000000000000     0.000000000000    -0.501940787336    30.973761998420

  Running in c2v symmetry.

  Rotational constants: A = ************  B =      0.82127  C =      0.82127 [cm^-1]
  Rotational constants: A = ************  B =  24621.08572  C =  24621.08572 [MHz]
  Nuclear repulsion =   54.109229104036594

  Charge       = -1
  Multiplicity = 6
  Electrons    = 25
  Nalpha       = 15
  Nbeta        = 10

  ==> Algorithm <==

  SCF Algorithm Type is DF.
  DIIS enabled.
  MOM disabled.
  Fractional occupation disabled.
  Guess Type is READ.
  Energy threshold   = 1.00e-08
  Density threshold  = 1.00e-08
  Integral threshold = 1.00e-12

  ==> Primary Basis <==

  Basis Set: CC-PVDZ
    Blend: CC-PVDZ
    Number of shells: 14
    Number of basis functions: 32
    Number of Cartesian functions: 34
    Spherical Harmonics?: true
    Max angular momentum: 2

  ==> DFT Potential <==

   => LibXC <=

    Version 6.2.2
    S. Lehtola, C. Steigemann, M. J.T. Oliveira, and M. A.L. Marques.,  SoftwareX 7, 1–5 (2018) (10.1016/j.softx.2017.11.002)

   => Composite Functional: B3LYP <= 

    B3LYP Hyb-GGA Exchange-Correlation Functional

    P. J. Stephens, F. J. Devlin, C. F. Chabalowski, and M. J. Frisch.,  J. Phys. Chem. 98, 11623 (1994) (10.1021/j100096a001)

    Deriv               =              1
    GGA                 =           TRUE
    Meta                =          FALSE

    Exchange Hybrid     =           TRUE
    MP2 Hybrid          =          FALSE

   => Exchange Functionals <=

    0.0800   Slater exchange
    0.7200         Becke 88

   => Exact (HF) Exchange <=

    0.2000               HF 

   => Correlation Functionals <=

    0.1900   Vosko, Wilk & Nusair (VWN5_RPA)
    0.8100   Lee, Yang & Parr

   => LibXC Density Thresholds  <==

    XC_HYB_GGA_XC_B3LYP:  1.00E-15 

   => Molecular Quadrature <=

    Radial Scheme          =       TREUTLER
    Pruning Scheme         =           NONE
    Nuclear Scheme         =       TREUTLER

    Blocking Scheme        =         OCTREE
    BS radius alpha        =              1
    Pruning alpha          =              1
    Radial Points          =             75
    Spherical Points       =            302
    Total Points           =          42429
    Total Blocks           =            382
    Max Points             =            255
    Max Functions          =             32
    Weights Tolerance      =       1.00E-15

   => Loading Basis Set <=

    Name: (CC-PVDZ AUX)
    Role: JKFIT
    Keyword: DF_BASIS_SCF
    atoms 1 entry F          line   271 file /Users/joseantoniorodriguesromero/anaconda3/share/psi4/basis/cc-pvdz-jkfit.gbs 
    atoms 2 entry P          line   519 file /Users/joseantoniorodriguesromero/anaconda3/share/psi4/basis/cc-pvdz-jkfit.gbs 

   => Loading Basis Set <=

    Name: CC-PVDZ
    Role: ORBITAL
    Keyword: BASIS
    atoms 1 entry F          line   228 file /Users/joseantoniorodriguesromero/anaconda3/share/psi4/basis/cc-pvdz.gbs 
    atoms 2 entry P          line   538 file /Users/joseantoniorodriguesromero/anaconda3/share/psi4/basis/cc-pvdz.gbs 

  Reading orbitals from file /tmp/sextet_FP.default.72861.180.npy, no projection.

  ==> Integral Setup <==

  DFHelper Memory: AOs need 0.002 GiB; user supplied 0.328 GiB. 
  Using in-core AOs.

  ==> MemDFJK: Density-Fitted J/K Matrices <==

    J tasked:                   Yes
    K tasked:                   Yes
    wK tasked:                   No
    OpenMP threads:               1
    Memory [MiB]:               335
    Algorithm:                 Core
    Schwarz Cutoff:           1E-12
    Mask sparsity (%):       0.0000
    Fitting Condition:        1E-10

   => Auxiliary Basis Set <=

  Basis Set: (CC-PVDZ AUX)
    Blend: CC-PVDZ-JKFIT
    Number of shells: 60
    Number of basis functions: 182
    Number of Cartesian functions: 211
    Spherical Harmonics?: true
    Max angular momentum: 3

  Cached 100.0% of DFT collocation blocks in 0.038 [GiB].

  Minimum eigenvalue in the overlap matrix is 2.8614949273E-02.
  Reciprocal condition number of the overlap matrix is 9.8365963977E-03.
    Using symmetric orthogonalization.

  ==> Pre-Iterations <==

  SCF Guess: Orbitals guess was supplied from a previous computation.

   -------------------------------------------------------
    Irrep   Nso     Nmo     Nalpha   Nbeta   Ndocc  Nsocc
   -------------------------------------------------------
     A1        16      16       9       6       6       3
     A2         2       2       0       0       0       0
     B1         7       7       3       2       2       1
     B2         7       7       3       2       2       1
   -------------------------------------------------------
    Total      32      32      15      10      10       5
   -------------------------------------------------------

  ==> Iterations <==

                           Total Energy        Delta E     RMS |[F,P]|

   @DF-UKS iter   0:  -440.28549837960912   -4.40285e+02   4.25963e-02 
   @DF-UKS iter   1:  -440.31350887200500   -2.80105e-02   2.46294e-03 ADIIS/DIIS
   @DF-UKS iter   2:  -440.31399432000364   -4.85448e-04   2.02537e-03 ADIIS/DIIS/DAMP=1%
   @DF-UKS iter   3:  -440.31574951903747   -1.75520e-03   6.17131e-04 ADIIS/DIIS/DAMP=1%
   @DF-UKS iter   4:  -440.31435605356359    1.39347e-03   5.29962e-05 DIIS/DAMP=1%
   @DF-UKS iter   5:  -440.31441584438392   -5.97908e-05   1.64612e-05 DIIS/DAMP=1%
   @DF-UKS iter   6:  -440.31444768844278   -3.18441e-05   2.12208e-06 DIIS/DAMP=1%
   @DF-UKS iter   7:  -440.31444374838742    3.94006e-06   3.57639e-07 DIIS/DAMP=1%
   @DF-UKS iter   8:  -440.31444411517043   -3.66783e-07   4.17584e-08 DIIS/DAMP=1%
   @DF-UKS iter   9:  -440.31444409955390    1.56165e-08   1.32530e-08 DIIS/DAMP=1%
   @DF-UKS iter  10:  -440.31444412280371   -2.32498e-08   2.03781e-09 DIIS/DAMP=1%
   @DF-UKS iter  11:  -440.31444411885701    3.94670e-09   4.68131e-10 DIIS/DAMP=1%
  Energy and wave function converged.


  ==> Post-Iterations <==

   Electrons on quadrature grid:
      Nalpha   =   15.0000033186 ; deviation = 3.319e-06
      Nbeta    =   10.0000027049 ; deviation = 2.705e-06
      Ntotal   =   25.0000060235 ; deviation = 6.023e-06 

   @Spin Contamination Metric:   8.879073723E-04
   @S^2 Expected:                8.750000000E+00
   @S^2 Observed:                8.750887907E+00
   @S   Expected:                2.500000000E+00
   @S   Observed:                2.500000000E+00

    Orbital Energies [Eh]
    ---------------------

    Alpha Occupied:                                                       

       1A1   -76.871713     2A1   -24.511997     3A1    -6.352393  
       4A1    -4.516926     1B2    -4.509888     1B1    -4.509888  
       5A1    -1.123730     6A1    -0.437763     2B2    -0.327917  
       2B1    -0.327917     7A1    -0.238381     3B2     0.030314  
       3B1     0.030314     8A1     0.199463     9A1     0.497069  

    Alpha Virtual:                                                        

       4B1     0.594096     4B2     0.594096     1A2     0.665478  
      10A1     0.665479    11A1     0.676654     5B2     0.787286  
       5B1     0.787286    12A1     1.092240     6B2     1.411449  
       6B1     1.411449    13A1     1.468736    14A1     2.348115  
      15A1     3.702610     2A2     3.702637     7B2     3.842189  
       7B1     3.842189    16A1     4.304730  

    Beta Occupied:                                                        

       1A1   -76.852070     2A1   -24.494064     3A1    -6.328170  
       4A1    -4.493398     1B2    -4.484260     1B1    -4.484260  
       5A1    -1.083429     6A1    -0.383368     2B2    -0.286560  
       2B1    -0.286560  

    Beta Virtual:                                                         

       7A1     0.000385     3B2     0.217308     3B1     0.217308  
       8A1     0.348921     9A1     0.660560     4B1     0.688409  
       4B2     0.688409    10A1     0.786049    11A1     0.798845  
       1A2     0.798845     5B2     0.900287     5B1     0.900287  
      12A1     1.132223     6B2     1.439705     6B1     1.439705  
      13A1     1.530412    14A1     2.372717    15A1     3.727861  
       2A2     3.727892     7B2     3.874841     7B1     3.874841  
      16A1     4.338305  

    Final Occupation by Irrep:
             A1    A2    B1    B2 
    DOCC [     6,    0,    2,    2 ]
    SOCC [     3,    0,    1,    1 ]
    NA   [     9,    0,    3,    3 ]
    NB   [     6,    0,    2,    2 ]

  @DF-UKS Final Energy:  -440.31444411885701

   => Energetics <=

    Nuclear Repulsion Energy =             54.1092291040365936
    One-Electron Energy =                -723.0754253512911873
    Two-Electron Energy =                 256.1817134459573140
    DFT Exchange-Correlation Energy =     -27.5299613175597173
    Empirical Dispersion Energy =           0.0000000000000000
    VV10 Nonlocal Energy =                  0.0000000000000000
    Total Energy =                       -440.3144441188570113

  UHF NO Occupations:
  HONO-2 :    8 A1 1.0000000
  HONO-1 :    3 B1 1.0000000
  HONO-0 :    9 A1 1.0000000
  LUNO+0 :   10 A1 0.0001482
  LUNO+1 :    4 B2 0.0001406
  LUNO+2 :    4 B1 0.0001406
  LUNO+3 :   11 A1 0.0000131


Computation Completed


Properties will be evaluated at   0.000000,   0.000000,   0.000000 [a0]

Properties computed using the SCF density matrix


 Multipole Moments:

 ------------------------------------------------------------------------------------
     Multipole            Electronic (a.u.)      Nuclear  (a.u.)        Total (a.u.)
 ------------------------------------------------------------------------------------

 L = 1.  Multiply by 2.5417464519 to convert [e a0] to [Debye]
 Dipole X            :          0.0000000            0.0000000            0.0000000
 Dipole Y            :          0.0000000            0.0000000            0.0000000
 Dipole Z            :          1.6471338           -0.3101551            1.3369787
 Magnitude           :                                                    1.3369787

 ------------------------------------------------------------------------------------

*** tstop() called on Joses-MacBook-Pro-2.local at Thu Jul 17 10:54:34 2025
Module time:
	user time   =       3.99 seconds =       0.07 minutes
	system time =       4.51 seconds =       0.08 minutes
	total time  =          1 seconds =       0.02 minutes
Total time:
	user time   =       9.29 seconds =       0.15 minutes
	system time =      11.06 seconds =       0.18 minutes
	total time  =          2 seconds =       0.03 minutes

*** tstart() called on Joses-MacBook-Pro-2.local
*** at Thu Jul 17 10:54:34 2025


         ------------------------------------------------------------
                                   SCF GRAD                          
                          Rob Parrish, Justin Turney,                
                       Andy Simmonett, and Alex Sokolov              
         ------------------------------------------------------------

  ==> Geometry <==

    Molecular point group: c2v
    Full point group: C_inf_v

    Geometry (in Angstrom), charge = -1, multiplicity = 6:

       Center              X                  Y                   Z               Mass       
    ------------   -----------------  -----------------  -----------------  -----------------
         F            0.000000000000     0.000000000000     0.818331643511    18.998403162730
         P            0.000000000000     0.000000000000    -0.501940787336    30.973761998420

  Nuclear repulsion =   54.109229104036594

  ==> Basis Set <==

  Basis Set: CC-PVDZ
    Blend: CC-PVDZ
    Number of shells: 14
    Number of basis functions: 32
    Number of Cartesian functions: 34
    Spherical Harmonics?: true
    Max angular momentum: 2

  ==> DFJKGrad: Density-Fitted SCF Gradients <==

    Gradient:                    1
    J tasked:                  Yes
    K tasked:                  Yes
    wK tasked:                  No
    OpenMP threads:              1
    Integrals threads:           1
    Memory [MiB]:              375
    Schwarz Cutoff:          1E-12
    Fitting Condition:       1E-10

   => Auxiliary Basis Set <=

  Basis Set: (CC-PVDZ AUX)
    Blend: CC-PVDZ-JKFIT
    Number of shells: 60
    Number of basis functions: 182
    Number of Cartesian functions: 211
    Spherical Harmonics?: true
    Max angular momentum: 3

  ==> DFT Potential <==

   => LibXC <=

    Version 6.2.2
    S. Lehtola, C. Steigemann, M. J.T. Oliveira, and M. A.L. Marques.,  SoftwareX 7, 1–5 (2018) (10.1016/j.softx.2017.11.002)

   => Composite Functional: B3LYP <= 

    B3LYP Hyb-GGA Exchange-Correlation Functional

    P. J. Stephens, F. J. Devlin, C. F. Chabalowski, and M. J. Frisch.,  J. Phys. Chem. 98, 11623 (1994) (10.1021/j100096a001)

    Deriv               =              1
    GGA                 =           TRUE
    Meta                =          FALSE

    Exchange Hybrid     =           TRUE
    MP2 Hybrid          =          FALSE

   => Exchange Functionals <=

    0.0800   Slater exchange
    0.7200         Becke 88

   => Exact (HF) Exchange <=

    0.2000               HF 

   => Correlation Functionals <=

    0.1900   Vosko, Wilk & Nusair (VWN5_RPA)
    0.8100   Lee, Yang & Parr

   => LibXC Density Thresholds  <==

    XC_HYB_GGA_XC_B3LYP:  1.00E-15 

   => Molecular Quadrature <=

    Radial Scheme          =       TREUTLER
    Pruning Scheme         =           NONE
    Nuclear Scheme         =       TREUTLER

    Blocking Scheme        =         OCTREE
    BS radius alpha        =              1
    Pruning alpha          =              1
    Radial Points          =             75
    Spherical Points       =            302
    Total Points           =          42429
    Total Blocks           =            382
    Max Points             =            255
    Max Functions          =             32
    Weights Tolerance      =       1.00E-15


  -Total Gradient:
     Atom            X                  Y                   Z
    ------   -----------------  -----------------  -----------------
       1       -0.000000000000     0.000000000000    -0.536441738631
       2        0.000000000000    -0.000000000000     0.536420319750


*** tstop() called on Joses-MacBook-Pro-2.local at Thu Jul 17 10:54:34 2025
Module time:
	user time   =       0.77 seconds =       0.01 minutes
	system time =       1.91 seconds =       0.03 minutes
	total time  =          0 seconds =       0.00 minutes
Total time:
	user time   =      10.06 seconds =       0.17 minutes
	system time =      12.97 seconds =       0.22 minutes
	total time  =          2 seconds =       0.03 minutes

    			-----------------------------------------

    			 OPTKING 3.0: for geometry optimizations 

    			     By R.A. King, Bethel University     

    			        with contributions from          

    			    A.V. Copan, J. Cayton, A. Heide      

    			-----------------------------------------

    
	                            ===> Fragment 1 <== 

	 Z (Atomic Numbers)          Masses                          Geom                  
	       9.000000            18.998403          0.00000000  0.00000000  1.54642269   
	      15.000000            30.973762          0.00000000  0.00000000 -0.94853062   

	 - Coordinate -           - BOHR/RAD -       - ANG/DEG -
	 R(1,2)           =         2.494953           1.320272


	        --- Internal Coordinate Step in ANG or DEG, aJ/ANG or AJ/DEG ---
	-------------------------------------------------------------------------------
	           Coordinate      Previous         Force          Change          New 
	           ----------      --------        ------          ------        ------
	               R(1,2)       1.32027        4.41951        0.12783       1.44810
	-------------------------------------------------------------------------------

	                                 ==> Convergence Check <==                                  
    
	Measures of convergence in internal coordinates in au.
    
	Criteria marked as inactive (o), active & met (*), and active & unmet ( ).

	----------------------------------------------------------------------------------------------
	   Step    Total Energy     Delta E     Max Force     RMS Force      Max Disp      RMS Disp   
	----------------------------------------------------------------------------------------------
	  Convergence Criteria     1.00e-06 *    3.00e-04 *             o    1.20e-03 *             o
	----------------------------------------------------------------------------------------------
	     2    -440.31444412   -1.69e-01      5.36e-01      5.36e-01 o    2.42e-01      2.42e-01 o  ~
	----------------------------------------------------------------------------------------------

Next Geometry in Ang 
	Fragment 1 (Ang)

	    F   0.0000000000   0.0000000000   0.8822458093
	    P   0.0000000000   0.0000000000  -0.5658549531


    Structure for next step:
    Molecular point group: c2v
    Full point group: C_inf_v

    Geometry (in Angstrom), charge = -1, multiplicity = 6:

    F            0.000000000000     0.000000000000     0.897562237307
    P            0.000000000000     0.000000000000    -0.550538525119


Scratch directory: /tmp/
gradient() will perform analytic gradient computation.
   => Libint2 <=

    Primary   basis highest AM E, G, H:  6, 6, 3
    Auxiliary basis highest AM E, G, H:  7, 7, 4
    Onebody   basis highest AM E, G, H:  -, -, -
    Solid Harmonics ordering:            Gaussian

*** tstart() called on Joses-MacBook-Pro-2.local
*** at Thu Jul 17 10:54:34 2025

   => Loading Basis Set <=

    Name: CC-PVDZ
    Role: ORBITAL
    Keyword: BASIS
    atoms 1 entry F          line   228 file /Users/joseantoniorodriguesromero/anaconda3/share/psi4/basis/cc-pvdz.gbs 
    atoms 2 entry P          line   538 file /Users/joseantoniorodriguesromero/anaconda3/share/psi4/basis/cc-pvdz.gbs 


         ---------------------------------------------------------
                                   SCF
               by Justin Turney, Rob Parrish, Andy Simmonett
                          and Daniel G. A. Smith
                              UKS Reference
                        1 Threads,    500 MiB Core
         ---------------------------------------------------------

  ==> Geometry <==

    Molecular point group: c2v
    Full point group: C_inf_v

    Geometry (in Angstrom), charge = -1, multiplicity = 6:

       Center              X                  Y                   Z               Mass       
    ------------   -----------------  -----------------  -----------------  -----------------
         F            0.000000000000     0.000000000000     0.897562237307    18.998403162730
         P            0.000000000000     0.000000000000    -0.550538525119    30.973761998420

  Running in c2v symmetry.

  Rotational constants: A = ************  B =      0.68268  C =      0.68268 [cm^-1]
  Rotational constants: A = ************  B =  20466.17791  C =  20466.17791 [MHz]
  Nuclear repulsion =   49.332840154531389

  Charge       = -1
  Multiplicity = 6
  Electrons    = 25
  Nalpha       = 15
  Nbeta        = 10

  ==> Algorithm <==

  SCF Algorithm Type is DF.
  DIIS enabled.
  MOM disabled.
  Fractional occupation disabled.
  Guess Type is READ.
  Energy threshold   = 1.00e-08
  Density threshold  = 1.00e-08
  Integral threshold = 1.00e-12

  ==> Primary Basis <==

  Basis Set: CC-PVDZ
    Blend: CC-PVDZ
    Number of shells: 14
    Number of basis functions: 32
    Number of Cartesian functions: 34
    Spherical Harmonics?: true
    Max angular momentum: 2

  ==> DFT Potential <==

   => LibXC <=

    Version 6.2.2
    S. Lehtola, C. Steigemann, M. J.T. Oliveira, and M. A.L. Marques.,  SoftwareX 7, 1–5 (2018) (10.1016/j.softx.2017.11.002)

   => Composite Functional: B3LYP <= 

    B3LYP Hyb-GGA Exchange-Correlation Functional

    P. J. Stephens, F. J. Devlin, C. F. Chabalowski, and M. J. Frisch.,  J. Phys. Chem. 98, 11623 (1994) (10.1021/j100096a001)

    Deriv               =              1
    GGA                 =           TRUE
    Meta                =          FALSE

    Exchange Hybrid     =           TRUE
    MP2 Hybrid          =          FALSE

   => Exchange Functionals <=

    0.0800   Slater exchange
    0.7200         Becke 88

   => Exact (HF) Exchange <=

    0.2000               HF 

   => Correlation Functionals <=

    0.1900   Vosko, Wilk & Nusair (VWN5_RPA)
    0.8100   Lee, Yang & Parr

   => LibXC Density Thresholds  <==

    XC_HYB_GGA_XC_B3LYP:  1.00E-15 

   => Molecular Quadrature <=

    Radial Scheme          =       TREUTLER
    Pruning Scheme         =           NONE
    Nuclear Scheme         =       TREUTLER

    Blocking Scheme        =         OCTREE
    BS radius alpha        =              1
    Pruning alpha          =              1
    Radial Points          =             75
    Spherical Points       =            302
    Total Points           =          42448
    Total Blocks           =            379
    Max Points             =            256
    Max Functions          =             32
    Weights Tolerance      =       1.00E-15

   => Loading Basis Set <=

    Name: (CC-PVDZ AUX)
    Role: JKFIT
    Keyword: DF_BASIS_SCF
    atoms 1 entry F          line   271 file /Users/joseantoniorodriguesromero/anaconda3/share/psi4/basis/cc-pvdz-jkfit.gbs 
    atoms 2 entry P          line   519 file /Users/joseantoniorodriguesromero/anaconda3/share/psi4/basis/cc-pvdz-jkfit.gbs 

   => Loading Basis Set <=

    Name: CC-PVDZ
    Role: ORBITAL
    Keyword: BASIS
    atoms 1 entry F          line   228 file /Users/joseantoniorodriguesromero/anaconda3/share/psi4/basis/cc-pvdz.gbs 
    atoms 2 entry P          line   538 file /Users/joseantoniorodriguesromero/anaconda3/share/psi4/basis/cc-pvdz.gbs 

  Reading orbitals from file /tmp/sextet_FP.default.72861.180.npy, no projection.

  ==> Integral Setup <==

  DFHelper Memory: AOs need 0.002 GiB; user supplied 0.328 GiB. 
  Using in-core AOs.

  ==> MemDFJK: Density-Fitted J/K Matrices <==

    J tasked:                   Yes
    K tasked:                   Yes
    wK tasked:                   No
    OpenMP threads:               1
    Memory [MiB]:               335
    Algorithm:                 Core
    Schwarz Cutoff:           1E-12
    Mask sparsity (%):       0.0000
    Fitting Condition:        1E-10

   => Auxiliary Basis Set <=

  Basis Set: (CC-PVDZ AUX)
    Blend: CC-PVDZ-JKFIT
    Number of shells: 60
    Number of basis functions: 182
    Number of Cartesian functions: 211
    Spherical Harmonics?: true
    Max angular momentum: 3

  Cached 100.0% of DFT collocation blocks in 0.038 [GiB].

  Minimum eigenvalue in the overlap matrix is 4.0675756280E-02.
  Reciprocal condition number of the overlap matrix is 1.4404289826E-02.
    Using symmetric orthogonalization.

  ==> Pre-Iterations <==

  SCF Guess: Orbitals guess was supplied from a previous computation.

   -------------------------------------------------------
    Irrep   Nso     Nmo     Nalpha   Nbeta   Ndocc  Nsocc
   -------------------------------------------------------
     A1        16      16       9       6       6       3
     A2         2       2       0       0       0       0
     B1         7       7       3       2       2       1
     B2         7       7       3       2       2       1
   -------------------------------------------------------
    Total      32      32      15      10      10       5
   -------------------------------------------------------

  ==> Iterations <==

                           Total Energy        Delta E     RMS |[F,P]|

   @DF-UKS iter   0:  -440.36011186506130   -4.40360e+02   3.50737e-02 
   @DF-UKS iter   1:  -440.40856284323695   -4.84510e-02   2.26878e-03 ADIIS/DIIS
   @DF-UKS iter   2:  -440.40802820627096    5.34637e-04   3.87475e-03 ADIIS/DIIS/DAMP=1%
   @DF-UKS iter   3:  -440.40882146174550   -7.93255e-04   3.40025e-04 ADIIS/DIIS/DAMP=1%
   @DF-UKS iter   4:  -440.41022688329690   -1.40542e-03   1.16564e-04 ADIIS/DIIS/DAMP=1%
   @DF-UKS iter   5:  -440.41007557537722    1.51308e-04   1.63861e-05 DIIS/DAMP=1%
   @DF-UKS iter   6:  -440.41012960441645   -5.40290e-05   5.70055e-06 DIIS/DAMP=1%
   @DF-UKS iter   7:  -440.41012081027571    8.79414e-06   9.54855e-07 DIIS/DAMP=1%
   @DF-UKS iter   8:  -440.41012226682960   -1.45655e-06   1.71518e-07 DIIS/DAMP=1%
   @DF-UKS iter   9:  -440.41012198817373    2.78656e-07   5.38967e-08 DIIS/DAMP=1%
   @DF-UKS iter  10:  -440.41012215392726   -1.65754e-07   4.64559e-09 DIIS/DAMP=1%
   @DF-UKS iter  11:  -440.41012213480030    1.91270e-08   7.93436e-10 DIIS/DAMP=1%
   @DF-UKS iter  12:  -440.41012213525482   -4.54520e-10   6.46282e-11 DIIS/DAMP=1%
  Energy and wave function converged.


  ==> Post-Iterations <==

   Electrons on quadrature grid:
      Nalpha   =   15.0000045466 ; deviation = 4.547e-06
      Nbeta    =   10.0000040367 ; deviation = 4.037e-06
      Ntotal   =   25.0000085833 ; deviation = 8.583e-06 

   @Spin Contamination Metric:   1.248273711E-03
   @S^2 Expected:                8.750000000E+00
   @S^2 Observed:                8.751248274E+00
   @S   Expected:                2.500000000E+00
   @S   Observed:                2.500000000E+00

    Orbital Energies [Eh]
    ---------------------

    Alpha Occupied:                                                       

       1A1   -76.864364     2A1   -24.492889     3A1    -6.339330  
       4A1    -4.501763     1B2    -4.498553     1B1    -4.498553  
       5A1    -1.050139     6A1    -0.414970     2B2    -0.273305  
       2B1    -0.273305     7A1    -0.234942     3B1     0.020644  
       3B2     0.020644     8A1     0.183226     9A1     0.495204  

    Alpha Virtual:                                                        

       4B1     0.600767     4B2     0.600767    10A1     0.660001  
      11A1     0.673209     1A2     0.673212     5B2     0.756329  
       5B1     0.756329    12A1     1.012416    13A1     1.424697  
       6B1     1.433012     6B2     1.433012    14A1     2.366864  
      15A1     3.742930     2A2     3.742969     7B1     3.829432  
       7B2     3.829432    16A1     4.211197  

    Beta Occupied:                                                        

       1A1   -76.844088     2A1   -24.473694     3A1    -6.314210  
       4A1    -4.477872     1B2    -4.472150     1B1    -4.472150  
       5A1    -1.005167     6A1    -0.341002     2B2    -0.232542  
       2B1    -0.232542  

    Beta Virtual:                                                         

       7A1    -0.007356     3B1     0.205111     3B2     0.205111  
       8A1     0.339578     9A1     0.648489     4B1     0.693650  
       4B2     0.693650    10A1     0.763751    11A1     0.805703  
       1A2     0.805704     5B2     0.868071     5B1     0.868071  
      12A1     1.080700     6B1     1.460752     6B2     1.460752  
      13A1     1.476391    14A1     2.396399    15A1     3.767350  
       2A2     3.767388     7B1     3.866495     7B2     3.866495  
      16A1     4.251118  

    Final Occupation by Irrep:
             A1    A2    B1    B2 
    DOCC [     6,    0,    2,    2 ]
    SOCC [     3,    0,    1,    1 ]
    NA   [     9,    0,    3,    3 ]
    NB   [     6,    0,    2,    2 ]

  @DF-UKS Final Energy:  -440.41012213525482

   => Energetics <=

    Nuclear Repulsion Energy =             49.3328401545313895
    One-Electron Energy =                -714.3142637992947357
    Two-Electron Energy =                 252.0409918939186014
    DFT Exchange-Correlation Energy =     -27.4696903844100291
    Empirical Dispersion Energy =           0.0000000000000000
    VV10 Nonlocal Energy =                  0.0000000000000000
    Total Energy =                       -440.4101221352548237

  UHF NO Occupations:
  HONO-2 :    3 B1 1.0000000
  HONO-1 :    8 A1 1.0000000
  HONO-0 :    9 A1 1.0000000
  LUNO+0 :   10 A1 0.0002963
  LUNO+1 :    4 B2 0.0001538
  LUNO+2 :    4 B1 0.0001538
  LUNO+3 :   11 A1 0.0000190


Computation Completed


Properties will be evaluated at   0.000000,   0.000000,   0.000000 [a0]

Properties computed using the SCF density matrix


 Multipole Moments:

 ------------------------------------------------------------------------------------
     Multipole            Electronic (a.u.)      Nuclear  (a.u.)        Total (a.u.)
 ------------------------------------------------------------------------------------

 L = 1.  Multiply by 2.5417464519 to convert [e a0] to [Debye]
 Dipole X            :          0.0000000            0.0000000            0.0000000
 Dipole Y            :          0.0000000            0.0000000            0.0000000
 Dipole Z            :          1.4777410           -0.3401842            1.1375567
 Magnitude           :                                                    1.1375567

 ------------------------------------------------------------------------------------

*** tstop() called on Joses-MacBook-Pro-2.local at Thu Jul 17 10:54:35 2025
Module time:
	user time   =       4.84 seconds =       0.08 minutes
	system time =       3.58 seconds =       0.06 minutes
	total time  =          1 seconds =       0.02 minutes
Total time:
	user time   =      14.95 seconds =       0.25 minutes
	system time =      16.81 seconds =       0.28 minutes
	total time  =          3 seconds =       0.05 minutes

*** tstart() called on Joses-MacBook-Pro-2.local
*** at Thu Jul 17 10:54:35 2025


         ------------------------------------------------------------
                                   SCF GRAD                          
                          Rob Parrish, Justin Turney,                
                       Andy Simmonett, and Alex Sokolov              
         ------------------------------------------------------------

  ==> Geometry <==

    Molecular point group: c2v
    Full point group: C_inf_v

    Geometry (in Angstrom), charge = -1, multiplicity = 6:

       Center              X                  Y                   Z               Mass       
    ------------   -----------------  -----------------  -----------------  -----------------
         F            0.000000000000     0.000000000000     0.897562237307    18.998403162730
         P            0.000000000000     0.000000000000    -0.550538525119    30.973761998420

  Nuclear repulsion =   49.332840154531389

  ==> Basis Set <==

  Basis Set: CC-PVDZ
    Blend: CC-PVDZ
    Number of shells: 14
    Number of basis functions: 32
    Number of Cartesian functions: 34
    Spherical Harmonics?: true
    Max angular momentum: 2

  ==> DFJKGrad: Density-Fitted SCF Gradients <==

    Gradient:                    1
    J tasked:                  Yes
    K tasked:                  Yes
    wK tasked:                  No
    OpenMP threads:              1
    Integrals threads:           1
    Memory [MiB]:              375
    Schwarz Cutoff:          1E-12
    Fitting Condition:       1E-10

   => Auxiliary Basis Set <=

  Basis Set: (CC-PVDZ AUX)
    Blend: CC-PVDZ-JKFIT
    Number of shells: 60
    Number of basis functions: 182
    Number of Cartesian functions: 211
    Spherical Harmonics?: true
    Max angular momentum: 3

  ==> DFT Potential <==

   => LibXC <=

    Version 6.2.2
    S. Lehtola, C. Steigemann, M. J.T. Oliveira, and M. A.L. Marques.,  SoftwareX 7, 1–5 (2018) (10.1016/j.softx.2017.11.002)

   => Composite Functional: B3LYP <= 

    B3LYP Hyb-GGA Exchange-Correlation Functional

    P. J. Stephens, F. J. Devlin, C. F. Chabalowski, and M. J. Frisch.,  J. Phys. Chem. 98, 11623 (1994) (10.1021/j100096a001)

    Deriv               =              1
    GGA                 =           TRUE
    Meta                =          FALSE

    Exchange Hybrid     =           TRUE
    MP2 Hybrid          =          FALSE

   => Exchange Functionals <=

    0.0800   Slater exchange
    0.7200         Becke 88

   => Exact (HF) Exchange <=

    0.2000               HF 

   => Correlation Functionals <=

    0.1900   Vosko, Wilk & Nusair (VWN5_RPA)
    0.8100   Lee, Yang & Parr

   => LibXC Density Thresholds  <==

    XC_HYB_GGA_XC_B3LYP:  1.00E-15 

   => Molecular Quadrature <=

    Radial Scheme          =       TREUTLER
    Pruning Scheme         =           NONE
    Nuclear Scheme         =       TREUTLER

    Blocking Scheme        =         OCTREE
    BS radius alpha        =              1
    Pruning alpha          =              1
    Radial Points          =             75
    Spherical Points       =            302
    Total Points           =          42448
    Total Blocks           =            379
    Max Points             =            256
    Max Functions          =             32
    Weights Tolerance      =       1.00E-15


  -Total Gradient:
     Atom            X                  Y                   Z
    ------   -----------------  -----------------  -----------------
       1        0.000000000000     0.000000000000    -0.285285974668
       2        0.000000000000     0.000000000000     0.285223159601


*** tstop() called on Joses-MacBook-Pro-2.local at Thu Jul 17 10:54:35 2025
Module time:
	user time   =       0.89 seconds =       0.01 minutes
	system time =       1.38 seconds =       0.02 minutes
	total time  =          0 seconds =       0.00 minutes
Total time:
	user time   =      15.85 seconds =       0.26 minutes
	system time =      18.19 seconds =       0.30 minutes
	total time  =          3 seconds =       0.05 minutes

    			-----------------------------------------

    			 OPTKING 3.0: for geometry optimizations 

    			     By R.A. King, Bethel University     

    			        with contributions from          

    			    A.V. Copan, J. Cayton, A. Heide      

    			-----------------------------------------

    
	                            ===> Fragment 1 <== 

	 Z (Atomic Numbers)          Masses                          Geom                  
	       9.000000            18.998403          0.00000000  0.00000000  1.69614681   
	      15.000000            30.973762          0.00000000  0.00000000 -1.04036703   

	 - Coordinate -           - BOHR/RAD -       - ANG/DEG -
	 R(1,2)           =         2.736514           1.448101


	        --- Internal Coordinate Step in ANG or DEG, aJ/ANG or AJ/DEG ---
	-------------------------------------------------------------------------------
	           Coordinate      Previous         Force          Change          New 
	           ----------      --------        ------          ------        ------
	               R(1,2)       1.44810        2.35013        0.09548       1.54358
	-------------------------------------------------------------------------------

	                                 ==> Convergence Check <==                                  
    
	Measures of convergence in internal coordinates in au.
    
	Criteria marked as inactive (o), active & met (*), and active & unmet ( ).

	----------------------------------------------------------------------------------------------
	   Step    Total Energy     Delta E     Max Force     RMS Force      Max Disp      RMS Disp   
	----------------------------------------------------------------------------------------------
	  Convergence Criteria     1.00e-06 *    3.00e-04 *             o    1.20e-03 *             o
	----------------------------------------------------------------------------------------------
	     3    -440.41012214   -9.57e-02      2.85e-01      2.85e-01 o    1.80e-01      1.80e-01 o  ~
	----------------------------------------------------------------------------------------------

Next Geometry in Ang 
	Fragment 1 (Ang)

	    F   0.0000000000   0.0000000000   0.9453038646
	    P   0.0000000000   0.0000000000  -0.5982801524


    Structure for next step:
    Molecular point group: c2v
    Full point group: C_inf_v

    Geometry (in Angstrom), charge = -1, multiplicity = 6:

    F            0.000000000000     0.000000000000     0.956744696072
    P            0.000000000000     0.000000000000    -0.586839320994


Scratch directory: /tmp/
gradient() will perform analytic gradient computation.
   => Libint2 <=

    Primary   basis highest AM E, G, H:  6, 6, 3
    Auxiliary basis highest AM E, G, H:  7, 7, 4
    Onebody   basis highest AM E, G, H:  -, -, -
    Solid Harmonics ordering:            Gaussian

*** tstart() called on Joses-MacBook-Pro-2.local
*** at Thu Jul 17 10:54:35 2025

   => Loading Basis Set <=

    Name: CC-PVDZ
    Role: ORBITAL
    Keyword: BASIS
    atoms 1 entry F          line   228 file /Users/joseantoniorodriguesromero/anaconda3/share/psi4/basis/cc-pvdz.gbs 
    atoms 2 entry P          line   538 file /Users/joseantoniorodriguesromero/anaconda3/share/psi4/basis/cc-pvdz.gbs 


         ---------------------------------------------------------
                                   SCF
               by Justin Turney, Rob Parrish, Andy Simmonett
                          and Daniel G. A. Smith
                              UKS Reference
                        1 Threads,    500 MiB Core
         ---------------------------------------------------------

  ==> Geometry <==

    Molecular point group: c2v
    Full point group: C_inf_v

    Geometry (in Angstrom), charge = -1, multiplicity = 6:

       Center              X                  Y                   Z               Mass       
    ------------   -----------------  -----------------  -----------------  -----------------
         F            0.000000000000     0.000000000000     0.956744696072    18.998403162730
         P            0.000000000000     0.000000000000    -0.586839320994    30.973761998420

  Running in c2v symmetry.

  Rotational constants: A = ************  B =      0.60083  C =      0.60083 [cm^-1]
  Rotational constants: A = ************  B =  18012.49045  C =  18012.49045 [MHz]
  Nuclear repulsion =   46.281201833280790

  Charge       = -1
  Multiplicity = 6
  Electrons    = 25
  Nalpha       = 15
  Nbeta        = 10

  ==> Algorithm <==

  SCF Algorithm Type is DF.
  DIIS enabled.
  MOM disabled.
  Fractional occupation disabled.
  Guess Type is READ.
  Energy threshold   = 1.00e-08
  Density threshold  = 1.00e-08
  Integral threshold = 1.00e-12

  ==> Primary Basis <==

  Basis Set: CC-PVDZ
    Blend: CC-PVDZ
    Number of shells: 14
    Number of basis functions: 32
    Number of Cartesian functions: 34
    Spherical Harmonics?: true
    Max angular momentum: 2

  ==> DFT Potential <==

   => LibXC <=

    Version 6.2.2
    S. Lehtola, C. Steigemann, M. J.T. Oliveira, and M. A.L. Marques.,  SoftwareX 7, 1–5 (2018) (10.1016/j.softx.2017.11.002)

   => Composite Functional: B3LYP <= 

    B3LYP Hyb-GGA Exchange-Correlation Functional

    P. J. Stephens, F. J. Devlin, C. F. Chabalowski, and M. J. Frisch.,  J. Phys. Chem. 98, 11623 (1994) (10.1021/j100096a001)

    Deriv               =              1
    GGA                 =           TRUE
    Meta                =          FALSE

    Exchange Hybrid     =           TRUE
    MP2 Hybrid          =          FALSE

   => Exchange Functionals <=

    0.0800   Slater exchange
    0.7200         Becke 88

   => Exact (HF) Exchange <=

    0.2000               HF 

   => Correlation Functionals <=

    0.1900   Vosko, Wilk & Nusair (VWN5_RPA)
    0.8100   Lee, Yang & Parr

   => LibXC Density Thresholds  <==

    XC_HYB_GGA_XC_B3LYP:  1.00E-15 

   => Molecular Quadrature <=

    Radial Scheme          =       TREUTLER
    Pruning Scheme         =           NONE
    Nuclear Scheme         =       TREUTLER

    Blocking Scheme        =         OCTREE
    BS radius alpha        =              1
    Pruning alpha          =              1
    Radial Points          =             75
    Spherical Points       =            302
    Total Points           =          42470
    Total Blocks           =            380
    Max Points             =            256
    Max Functions          =             32
    Weights Tolerance      =       1.00E-15

   => Loading Basis Set <=

    Name: (CC-PVDZ AUX)
    Role: JKFIT
    Keyword: DF_BASIS_SCF
    atoms 1 entry F          line   271 file /Users/joseantoniorodriguesromero/anaconda3/share/psi4/basis/cc-pvdz-jkfit.gbs 
    atoms 2 entry P          line   519 file /Users/joseantoniorodriguesromero/anaconda3/share/psi4/basis/cc-pvdz-jkfit.gbs 

   => Loading Basis Set <=

    Name: CC-PVDZ
    Role: ORBITAL
    Keyword: BASIS
    atoms 1 entry F          line   228 file /Users/joseantoniorodriguesromero/anaconda3/share/psi4/basis/cc-pvdz.gbs 
    atoms 2 entry P          line   538 file /Users/joseantoniorodriguesromero/anaconda3/share/psi4/basis/cc-pvdz.gbs 

  Reading orbitals from file /tmp/sextet_FP.default.72861.180.npy, no projection.

  ==> Integral Setup <==

  DFHelper Memory: AOs need 0.002 GiB; user supplied 0.328 GiB. 
  Using in-core AOs.

  ==> MemDFJK: Density-Fitted J/K Matrices <==

    J tasked:                   Yes
    K tasked:                   Yes
    wK tasked:                   No
    OpenMP threads:               1
    Memory [MiB]:               335
    Algorithm:                 Core
    Schwarz Cutoff:           1E-12
    Mask sparsity (%):       0.0000
    Fitting Condition:        1E-10

   => Auxiliary Basis Set <=

  Basis Set: (CC-PVDZ AUX)
    Blend: CC-PVDZ-JKFIT
    Number of shells: 60
    Number of basis functions: 182
    Number of Cartesian functions: 211
    Spherical Harmonics?: true
    Max angular momentum: 3

  Cached 100.0% of DFT collocation blocks in 0.038 [GiB].

  Minimum eigenvalue in the overlap matrix is 4.9229312346E-02.
  Reciprocal condition number of the overlap matrix is 1.7891193682E-02.
    Using symmetric orthogonalization.

  ==> Pre-Iterations <==

  SCF Guess: Orbitals guess was supplied from a previous computation.

   -------------------------------------------------------
    Irrep   Nso     Nmo     Nalpha   Nbeta   Ndocc  Nsocc
   -------------------------------------------------------
     A1        16      16       9       6       6       3
     A2         2       2       0       0       0       0
     B1         7       7       3       2       2       1
     B2         7       7       3       2       2       1
   -------------------------------------------------------
    Total      32      32      15      10      10       5
   -------------------------------------------------------

  ==> Iterations <==

                           Total Energy        Delta E     RMS |[F,P]|

   @DF-UKS iter   0:  -440.40865863165715   -4.40409e+02   2.12966e-02 
   @DF-UKS iter   1:  -440.45046875065418   -4.18101e-02   2.23986e-03 ADIIS/DIIS
   @DF-UKS iter   2:  -440.44899886285191    1.46989e-03   4.50989e-03 ADIIS/DIIS/DAMP=1%
   @DF-UKS iter   3:  -440.45024564826394   -1.24679e-03   3.40898e-04 ADIIS/DIIS/DAMP=1%
   @DF-UKS iter   4:  -440.45175508533595   -1.50944e-03   1.46436e-04 ADIIS/DIIS/DAMP=1%
   @DF-UKS iter   5:  -440.45178327870377   -2.81934e-05   1.04397e-05 DIIS/DAMP=1%
   @DF-UKS iter   6:  -440.45181782789558   -3.45492e-05   4.54010e-06 DIIS/DAMP=1%
   @DF-UKS iter   7:  -440.45181716415482    6.63741e-07   1.51022e-06 DIIS/DAMP=1%
   @DF-UKS iter   8:  -440.45181698387375    1.80281e-07   3.00810e-07 DIIS/DAMP=1%
   @DF-UKS iter   9:  -440.45181675813609    2.25738e-07   7.35998e-08 DIIS/DAMP=1%
   @DF-UKS iter  10:  -440.45181694009176   -1.81956e-07   7.02100e-09 DIIS/DAMP=1%
   @DF-UKS iter  11:  -440.45181690223393    3.78578e-08   9.51177e-10 DIIS/DAMP=1%
   @DF-UKS iter  12:  -440.45181690171529    5.18639e-10   7.15905e-11 DIIS/DAMP=1%
  Energy and wave function converged.


  ==> Post-Iterations <==

   Electrons on quadrature grid:
      Nalpha   =   15.0000012723 ; deviation = 1.272e-06
      Nbeta    =   10.0000015203 ; deviation = 1.520e-06
      Ntotal   =   25.0000027926 ; deviation = 2.793e-06 

   @Spin Contamination Metric:   1.618342579E-03
   @S^2 Expected:                8.750000000E+00
   @S^2 Observed:                8.751618343E+00
   @S   Expected:                2.500000000E+00
   @S   Observed:                2.500000000E+00

    Orbital Energies [Eh]
    ---------------------

    Alpha Occupied:                                                       

       1A1   -76.855120     2A1   -24.480080     3A1    -6.329105  
       4A1    -4.490415     1B1    -4.489008     1B2    -4.489008  
       5A1    -1.006210     6A1    -0.400577     2B2    -0.240482  
       2B1    -0.240482     7A1    -0.231460     3B2     0.015371  
       3B1     0.015371     8A1     0.166909     9A1     0.494876  

    Alpha Virtual:                                                        

       4B1     0.606359     4B2     0.606359    10A1     0.646159  
      11A1     0.678574     1A2     0.678576     5B2     0.739465  
       5B1     0.739465    12A1     0.955877    13A1     1.424330  
       6B2     1.442197     6B1     1.442197    14A1     2.364776  
      15A1     3.767710     2A2     3.767716     7B1     3.820012  
       7B2     3.820012    16A1     4.122906  

    Beta Occupied:                                                        

       1A1   -76.834546     2A1   -24.459547     3A1    -6.303628  
       4A1    -4.465922     1B1    -4.462360     1B2    -4.462360  
       5A1    -0.957082     6A1    -0.309010     2B2    -0.200637  
       2B1    -0.200637  

    Beta Virtual:                                                         

       7A1    -0.012411     3B2     0.197127     3B1     0.197127  
       8A1     0.328280     9A1     0.640994     4B2     0.698211  
       4B1     0.698211    10A1     0.745362     1A2     0.808839  
      11A1     0.808839     5B2     0.849577     5B1     0.849577  
      12A1     1.041143     6B1     1.469304     6B2     1.469304  
      13A1     1.473897    14A1     2.398987    15A1     3.791281  
       2A2     3.791283     7B1     3.862234     7B2     3.862234  
      16A1     4.169901  

    Final Occupation by Irrep:
             A1    A2    B1    B2 
    DOCC [     6,    0,    2,    2 ]
    SOCC [     3,    0,    1,    1 ]
    NA   [     9,    0,    3,    3 ]
    NB   [     6,    0,    2,    2 ]

  @DF-UKS Final Energy:  -440.45181690171529

   => Energetics <=

    Nuclear Repulsion Energy =             46.2812018332807895
    One-Electron Energy =                -708.6876051536469276
    Two-Electron Energy =                 249.3932290838474160
    DFT Exchange-Correlation Energy =     -27.4386426651965181
    Empirical Dispersion Energy =           0.0000000000000000
    VV10 Nonlocal Energy =                  0.0000000000000000
    Total Energy =                       -440.4518169017152900

  UHF NO Occupations:
  HONO-2 :    8 A1 1.0000000
  HONO-1 :    3 B1 1.0000000
  HONO-0 :    9 A1 1.0000000
  LUNO+0 :   10 A1 0.0004614
  LUNO+1 :    4 B1 0.0001568
  LUNO+2 :    4 B2 0.0001568
  LUNO+3 :   11 A1 0.0000330


Computation Completed


Properties will be evaluated at   0.000000,   0.000000,   0.000000 [a0]

Properties computed using the SCF density matrix


 Multipole Moments:

 ------------------------------------------------------------------------------------
     Multipole            Electronic (a.u.)      Nuclear  (a.u.)        Total (a.u.)
 ------------------------------------------------------------------------------------

 L = 1.  Multiply by 2.5417464519 to convert [e a0] to [Debye]
 Dipole X            :          0.0000000            0.0000000            0.0000000
 Dipole Y            :          0.0000000            0.0000000            0.0000000
 Dipole Z            :          1.3613006           -0.3626149            0.9986857
 Magnitude           :                                                    0.9986857

 ------------------------------------------------------------------------------------

*** tstop() called on Joses-MacBook-Pro-2.local at Thu Jul 17 10:54:36 2025
Module time:
	user time   =       5.39 seconds =       0.09 minutes
	system time =       3.26 seconds =       0.05 minutes
	total time  =          1 seconds =       0.02 minutes
Total time:
	user time   =      21.28 seconds =       0.35 minutes
	system time =      21.67 seconds =       0.36 minutes
	total time  =          4 seconds =       0.07 minutes

*** tstart() called on Joses-MacBook-Pro-2.local
*** at Thu Jul 17 10:54:36 2025


         ------------------------------------------------------------
                                   SCF GRAD                          
                          Rob Parrish, Justin Turney,                
                       Andy Simmonett, and Alex Sokolov              
         ------------------------------------------------------------

  ==> Geometry <==

    Molecular point group: c2v
    Full point group: C_inf_v

    Geometry (in Angstrom), charge = -1, multiplicity = 6:

       Center              X                  Y                   Z               Mass       
    ------------   -----------------  -----------------  -----------------  -----------------
         F            0.000000000000     0.000000000000     0.956744696072    18.998403162730
         P            0.000000000000     0.000000000000    -0.586839320994    30.973761998420

  Nuclear repulsion =   46.281201833280790

  ==> Basis Set <==

  Basis Set: CC-PVDZ
    Blend: CC-PVDZ
    Number of shells: 14
    Number of basis functions: 32
    Number of Cartesian functions: 34
    Spherical Harmonics?: true
    Max angular momentum: 2

  ==> DFJKGrad: Density-Fitted SCF Gradients <==

    Gradient:                    1
    J tasked:                  Yes
    K tasked:                  Yes
    wK tasked:                  No
    OpenMP threads:              1
    Integrals threads:           1
    Memory [MiB]:              375
    Schwarz Cutoff:          1E-12
    Fitting Condition:       1E-10

   => Auxiliary Basis Set <=

  Basis Set: (CC-PVDZ AUX)
    Blend: CC-PVDZ-JKFIT
    Number of shells: 60
    Number of basis functions: 182
    Number of Cartesian functions: 211
    Spherical Harmonics?: true
    Max angular momentum: 3

  ==> DFT Potential <==

   => LibXC <=

    Version 6.2.2
    S. Lehtola, C. Steigemann, M. J.T. Oliveira, and M. A.L. Marques.,  SoftwareX 7, 1–5 (2018) (10.1016/j.softx.2017.11.002)

   => Composite Functional: B3LYP <= 

    B3LYP Hyb-GGA Exchange-Correlation Functional

    P. J. Stephens, F. J. Devlin, C. F. Chabalowski, and M. J. Frisch.,  J. Phys. Chem. 98, 11623 (1994) (10.1021/j100096a001)

    Deriv               =              1
    GGA                 =           TRUE
    Meta                =          FALSE

    Exchange Hybrid     =           TRUE
    MP2 Hybrid          =          FALSE

   => Exchange Functionals <=

    0.0800   Slater exchange
    0.7200         Becke 88

   => Exact (HF) Exchange <=

    0.2000               HF 

   => Correlation Functionals <=

    0.1900   Vosko, Wilk & Nusair (VWN5_RPA)
    0.8100   Lee, Yang & Parr

   => LibXC Density Thresholds  <==

    XC_HYB_GGA_XC_B3LYP:  1.00E-15 

   => Molecular Quadrature <=

    Radial Scheme          =       TREUTLER
    Pruning Scheme         =           NONE
    Nuclear Scheme         =       TREUTLER

    Blocking Scheme        =         OCTREE
    BS radius alpha        =              1
    Pruning alpha          =              1
    Radial Points          =             75
    Spherical Points       =            302
    Total Points           =          42470
    Total Blocks           =            380
    Max Points             =            256
    Max Functions          =             32
    Weights Tolerance      =       1.00E-15


  -Total Gradient:
     Atom            X                  Y                   Z
    ------   -----------------  -----------------  -----------------
       1        0.000000000000    -0.000000000000    -0.185960728498
       2        0.000000000000     0.000000000000     0.185906359178


*** tstop() called on Joses-MacBook-Pro-2.local at Thu Jul 17 10:54:36 2025
Module time:
	user time   =       0.70 seconds =       0.01 minutes
	system time =       1.69 seconds =       0.03 minutes
	total time  =          0 seconds =       0.00 minutes
Total time:
	user time   =      21.98 seconds =       0.37 minutes
	system time =      23.36 seconds =       0.39 minutes
	total time  =          4 seconds =       0.07 minutes

    			-----------------------------------------

    			 OPTKING 3.0: for geometry optimizations 

    			     By R.A. King, Bethel University     

    			        with contributions from          

    			    A.V. Copan, J. Cayton, A. Heide      

    			-----------------------------------------

    
	                            ===> Fragment 1 <== 

	 Z (Atomic Numbers)          Masses                          Geom                  
	       9.000000            18.998403          0.00000000  0.00000000  1.80798545   
	      15.000000            30.973762          0.00000000  0.00000000 -1.10896560   

	 - Coordinate -           - BOHR/RAD -       - ANG/DEG -
	 R(1,2)           =         2.916951           1.543584


	        --- Internal Coordinate Step in ANG or DEG, aJ/ANG or AJ/DEG ---
	-------------------------------------------------------------------------------
	           Coordinate      Previous         Force          Change          New 
	           ----------      --------        ------          ------        ------
	               R(1,2)       1.54358        1.53186        0.11306       1.65664
	-------------------------------------------------------------------------------

	                                 ==> Convergence Check <==                                  
    
	Measures of convergence in internal coordinates in au.
    
	Criteria marked as inactive (o), active & met (*), and active & unmet ( ).

	----------------------------------------------------------------------------------------------
	   Step    Total Energy     Delta E     Max Force     RMS Force      Max Disp      RMS Disp   
	----------------------------------------------------------------------------------------------
	  Convergence Criteria     1.00e-06 *    3.00e-04 *             o    1.20e-03 *             o
	----------------------------------------------------------------------------------------------
	     4    -440.45181690   -4.17e-02      1.86e-01      1.86e-01 o    2.14e-01      2.14e-01 o  ~
	----------------------------------------------------------------------------------------------

Next Geometry in Ang 
	Fragment 1 (Ang)

	    F   0.0000000000   0.0000000000   1.0132727945
	    P   0.0000000000   0.0000000000  -0.6433674194


    Structure for next step:
    Molecular point group: c2v
    Full point group: C_inf_v

    Geometry (in Angstrom), charge = -1, multiplicity = 6:

    F            0.000000000000     0.000000000000     1.026819221028
    P            0.000000000000     0.000000000000    -0.629820992921


Scratch directory: /tmp/
gradient() will perform analytic gradient computation.
   => Libint2 <=

    Primary   basis highest AM E, G, H:  6, 6, 3
    Auxiliary basis highest AM E, G, H:  7, 7, 4
    Onebody   basis highest AM E, G, H:  -, -, -
    Solid Harmonics ordering:            Gaussian

*** tstart() called on Joses-MacBook-Pro-2.local
*** at Thu Jul 17 10:54:36 2025

   => Loading Basis Set <=

    Name: CC-PVDZ
    Role: ORBITAL
    Keyword: BASIS
    atoms 1 entry F          line   228 file /Users/joseantoniorodriguesromero/anaconda3/share/psi4/basis/cc-pvdz.gbs 
    atoms 2 entry P          line   538 file /Users/joseantoniorodriguesromero/anaconda3/share/psi4/basis/cc-pvdz.gbs 


         ---------------------------------------------------------
                                   SCF
               by Justin Turney, Rob Parrish, Andy Simmonett
                          and Daniel G. A. Smith
                              UKS Reference
                        1 Threads,    500 MiB Core
         ---------------------------------------------------------

  ==> Geometry <==

    Molecular point group: c2v
    Full point group: C_inf_v

    Geometry (in Angstrom), charge = -1, multiplicity = 6:

       Center              X                  Y                   Z               Mass       
    ------------   -----------------  -----------------  -----------------  -----------------
         F            0.000000000000     0.000000000000     1.026819221028    18.998403162730
         P            0.000000000000     0.000000000000    -0.629820992921    30.973761998420

  Running in c2v symmetry.

  Rotational constants: A = ************  B =      0.52162  C =      0.52162 [cm^-1]
  Rotational constants: A = ************  B =  15637.88125  C =  15637.88125 [MHz]
  Nuclear repulsion =   43.122775143897869

  Charge       = -1
  Multiplicity = 6
  Electrons    = 25
  Nalpha       = 15
  Nbeta        = 10

  ==> Algorithm <==

  SCF Algorithm Type is DF.
  DIIS enabled.
  MOM disabled.
  Fractional occupation disabled.
  Guess Type is READ.
  Energy threshold   = 1.00e-08
  Density threshold  = 1.00e-08
  Integral threshold = 1.00e-12

  ==> Primary Basis <==

  Basis Set: CC-PVDZ
    Blend: CC-PVDZ
    Number of shells: 14
    Number of basis functions: 32
    Number of Cartesian functions: 34
    Spherical Harmonics?: true
    Max angular momentum: 2

  ==> DFT Potential <==

[...]
    
	Measures of convergence in internal coordinates in au.
    
	Criteria marked as inactive (o), active & met (*), and active & unmet ( ).

	----------------------------------------------------------------------------------------------
	   Step    Total Energy     Delta E     Max Force     RMS Force      Max Disp      RMS Disp   
	----------------------------------------------------------------------------------------------
	  Convergence Criteria     1.00e-06 *    3.00e-04 *             o    1.20e-03 *             o
	----------------------------------------------------------------------------------------------
	    18    -440.57891657   -1.29e-06      4.00e-05 *    4.00e-05 o    4.75e-03      4.75e-03 o  ~
	----------------------------------------------------------------------------------------------

Next Geometry in Ang 
	Fragment 1 (Ang)

	    F   0.0000000000   0.0000000000   2.1743108793
	    P   0.0000000000   0.0000000000  -1.3341450274


    Structure for next step:
    Molecular point group: c2v
    Full point group: C_inf_v

    Geometry (in Angstrom), charge = -1, multiplicity = 6:

    F            0.000000000000     0.000000000000     2.174612164278
    P            0.000000000000     0.000000000000    -1.333843742379


Scratch directory: /tmp/
gradient() will perform analytic gradient computation.
   => Libint2 <=

    Primary   basis highest AM E, G, H:  6, 6, 3
    Auxiliary basis highest AM E, G, H:  7, 7, 4
    Onebody   basis highest AM E, G, H:  -, -, -
    Solid Harmonics ordering:            Gaussian

*** tstart() called on Joses-MacBook-Pro-2.local
*** at Thu Jul 17 10:54:51 2025

   => Loading Basis Set <=

    Name: CC-PVDZ
    Role: ORBITAL
    Keyword: BASIS
    atoms 1 entry F          line   228 file /Users/joseantoniorodriguesromero/anaconda3/share/psi4/basis/cc-pvdz.gbs 
    atoms 2 entry P          line   538 file /Users/joseantoniorodriguesromero/anaconda3/share/psi4/basis/cc-pvdz.gbs 


         ---------------------------------------------------------
                                   SCF
               by Justin Turney, Rob Parrish, Andy Simmonett
                          and Daniel G. A. Smith
                              UKS Reference
                        1 Threads,    500 MiB Core
         ---------------------------------------------------------

  ==> Geometry <==

    Molecular point group: c2v
    Full point group: C_inf_v

    Geometry (in Angstrom), charge = -1, multiplicity = 6:

       Center              X                  Y                   Z               Mass       
    ------------   -----------------  -----------------  -----------------  -----------------
         F            0.000000000000     0.000000000000     2.174612164278    18.998403162730
         P            0.000000000000     0.000000000000    -1.333843742379    30.973761998420

  Running in c2v symmetry.

  Rotational constants: A = ************  B =      0.11630  C =      0.11630 [cm^-1]
  Rotational constants: A = ************  B =   3486.60111  C =   3486.60111 [MHz]
  Nuclear repulsion =   20.361927110132786

  Charge       = -1
  Multiplicity = 6
  Electrons    = 25
  Nalpha       = 15
  Nbeta        = 10

  ==> Algorithm <==

  SCF Algorithm Type is DF.
  DIIS enabled.
  MOM disabled.
  Fractional occupation disabled.
  Guess Type is READ.
  Energy threshold   = 1.00e-08
  Density threshold  = 1.00e-08
  Integral threshold = 1.00e-12

  ==> Primary Basis <==

  Basis Set: CC-PVDZ
    Blend: CC-PVDZ
    Number of shells: 14
    Number of basis functions: 32
    Number of Cartesian functions: 34
    Spherical Harmonics?: true
    Max angular momentum: 2

  ==> DFT Potential <==

   => LibXC <=

    Version 6.2.2
    S. Lehtola, C. Steigemann, M. J.T. Oliveira, and M. A.L. Marques.,  SoftwareX 7, 1–5 (2018) (10.1016/j.softx.2017.11.002)

   => Composite Functional: B3LYP <= 

    B3LYP Hyb-GGA Exchange-Correlation Functional

    P. J. Stephens, F. J. Devlin, C. F. Chabalowski, and M. J. Frisch.,  J. Phys. Chem. 98, 11623 (1994) (10.1021/j100096a001)

    Deriv               =              1
    GGA                 =           TRUE
    Meta                =          FALSE

    Exchange Hybrid     =           TRUE
    MP2 Hybrid          =          FALSE

   => Exchange Functionals <=

    0.0800   Slater exchange
    0.7200         Becke 88

   => Exact (HF) Exchange <=

    0.2000               HF 

   => Correlation Functionals <=

    0.1900   Vosko, Wilk & Nusair (VWN5_RPA)
    0.8100   Lee, Yang & Parr

   => LibXC Density Thresholds  <==

    XC_HYB_GGA_XC_B3LYP:  1.00E-15 

   => Molecular Quadrature <=

    Radial Scheme          =       TREUTLER
    Pruning Scheme         =           NONE
    Nuclear Scheme         =       TREUTLER

    Blocking Scheme        =         OCTREE
    BS radius alpha        =              1
    Pruning alpha          =              1
    Radial Points          =             75
    Spherical Points       =            302
    Total Points           =          42619
    Total Blocks           =            390
    Max Points             =            255
    Max Functions          =             32
    Weights Tolerance      =       1.00E-15

   => Loading Basis Set <=

    Name: (CC-PVDZ AUX)
    Role: JKFIT
    Keyword: DF_BASIS_SCF
    atoms 1 entry F          line   271 file /Users/joseantoniorodriguesromero/anaconda3/share/psi4/basis/cc-pvdz-jkfit.gbs 
    atoms 2 entry P          line   519 file /Users/joseantoniorodriguesromero/anaconda3/share/psi4/basis/cc-pvdz-jkfit.gbs 

   => Loading Basis Set <=

    Name: CC-PVDZ
    Role: ORBITAL
    Keyword: BASIS
    atoms 1 entry F          line   228 file /Users/joseantoniorodriguesromero/anaconda3/share/psi4/basis/cc-pvdz.gbs 
    atoms 2 entry P          line   538 file /Users/joseantoniorodriguesromero/anaconda3/share/psi4/basis/cc-pvdz.gbs 

  Reading orbitals from file /tmp/sextet_FP.default.72861.180.npy, no projection.

  ==> Integral Setup <==

  DFHelper Memory: AOs need 0.002 GiB; user supplied 0.332 GiB. 
  Using in-core AOs.

  ==> MemDFJK: Density-Fitted J/K Matrices <==

    J tasked:                   Yes
    K tasked:                   Yes
    wK tasked:                   No
    OpenMP threads:               1
    Memory [MiB]:               339
    Algorithm:                 Core
    Schwarz Cutoff:           1E-12
    Mask sparsity (%):       0.0000
    Fitting Condition:        1E-10

   => Auxiliary Basis Set <=

  Basis Set: (CC-PVDZ AUX)
    Blend: CC-PVDZ-JKFIT
    Number of shells: 60
    Number of basis functions: 182
    Number of Cartesian functions: 211
    Spherical Harmonics?: true
    Max angular momentum: 3

  Cached 100.0% of DFT collocation blocks in 0.034 [GiB].

  Minimum eigenvalue in the overlap matrix is 1.1474801691E-01.
  Reciprocal condition number of the overlap matrix is 6.6576412898E-02.
    Using symmetric orthogonalization.

  ==> Pre-Iterations <==

  SCF Guess: Orbitals guess was supplied from a previous computation.

   -------------------------------------------------------
    Irrep   Nso     Nmo     Nalpha   Nbeta   Ndocc  Nsocc
   -------------------------------------------------------
     A1        16      16       9       6       6       3
     A2         2       2       0       0       0       0
     B1         7       7       3       2       2       1
     B2         7       7       3       2       2       1
   -------------------------------------------------------
    Total      32      32      15      10      10       5
   -------------------------------------------------------

  ==> Iterations <==

                           Total Energy        Delta E     RMS |[F,P]|

   @DF-UKS iter   0:  -440.57891209726682   -4.40579e+02   2.06691e-05 
   @DF-UKS iter   1:  -440.57891681720645   -4.71994e-06   1.83913e-06 DIIS
   @DF-UKS iter   2:  -440.57891681803267   -8.26219e-10   1.21827e-06 DIIS/DAMP=1%
   @DF-UKS iter   3:  -440.57891709955720   -2.81525e-07   3.51631e-07 DIIS/DAMP=1%
   @DF-UKS iter   4:  -440.57891671101675    3.88540e-07   1.28801e-07 DIIS/DAMP=1%
   @DF-UKS iter   5:  -440.57891680363650   -9.26198e-08   9.35863e-08 DIIS/DAMP=1%
   @DF-UKS iter   6:  -440.57891682596238   -2.23259e-08   2.52640e-08 DIIS/DAMP=1%
   @DF-UKS iter   7:  -440.57891679998937    2.59730e-08   5.03571e-09 DIIS/DAMP=1%
   @DF-UKS iter   8:  -440.57891681889947   -1.89101e-08   9.39223e-10 DIIS/DAMP=1%
   @DF-UKS iter   9:  -440.57891681795115    9.48319e-10   3.03320e-10 DIIS/DAMP=1%
  Energy and wave function converged.


  ==> Post-Iterations <==

   Electrons on quadrature grid:
      Nalpha   =   14.9999883524 ; deviation = -1.165e-05
      Nbeta    =    9.9999863084 ; deviation = -1.369e-05
      Ntotal   =   24.9999746608 ; deviation = -2.534e-05 

   @Spin Contamination Metric:   8.890914581E-04
   @S^2 Expected:                8.750000000E+00
   @S^2 Observed:                8.750889091E+00
   @S   Expected:                2.500000000E+00
   @S   Observed:                2.500000000E+00

    Orbital Energies [Eh]
    ---------------------

    Alpha Occupied:                                                       

       1A1   -76.765853     2A1   -24.621487     3A1    -6.246304  
       4A1    -4.406131     1B1    -4.406008     1B2    -4.406008  
       5A1    -1.052718     6A1    -0.378660     7A1    -0.302671  
       2B2    -0.291939     2B1    -0.291939     3B1     0.024279  
       3B2     0.024279     8A1     0.024395     9A1     0.519225  

    Alpha Virtual:                                                        

      10A1     0.644821     4B2     0.647471     4B1     0.647471  
      11A1     0.728568     5B2     0.729921     5B1     0.729921  
       1A2     0.730179    12A1     0.730179    13A1     1.227963  
       6B2     1.247120     6B1     1.247120    14A1     1.599688  
      15A1     3.600253     7B2     3.620630     7B1     3.620630  
       2A2     3.687870    16A1     3.688049  

    Beta Occupied:                                                        

       1A1   -76.748994     2A1   -24.590563     3A1    -6.226576  
       4A1    -4.384163     1B1    -4.384054     1B2    -4.384054  
       5A1    -0.962331     2B2    -0.260655     2B1    -0.260655  
       6A1    -0.176344  

    Beta Virtual:                                                         

       7A1    -0.086464     3B1     0.173545     3B2     0.173545  
       8A1     0.174549     9A1     0.646975    10A1     0.724186  
       4B1     0.725860     4B2     0.725860    11A1     0.824182  
       5B2     0.825492     5B1     0.825492    12A1     0.825909  
       1A2     0.825909     6B2     1.264680     6B1     1.264680  
      13A1     1.335072    14A1     1.647808     2A2     3.703120  
      15A1     3.703285     7B2     3.715328     7B1     3.715328  
      16A1     3.735851  

    Final Occupation by Irrep:
             A1    A2    B1    B2 
    DOCC [     6,    0,    2,    2 ]
    SOCC [     3,    0,    1,    1 ]
    NA   [     9,    0,    3,    3 ]
    NB   [     6,    0,    2,    2 ]

  @DF-UKS Final Energy:  -440.57891681795115

   => Energetics <=

    Nuclear Repulsion Energy =             20.3619271101327861
    One-Electron Energy =                -657.4521824817634297
    Two-Electron Energy =                 223.8055942947560766
    DFT Exchange-Correlation Energy =     -27.2942557410765971
    Empirical Dispersion Energy =           0.0000000000000000
    VV10 Nonlocal Energy =                  0.0000000000000000
    Total Energy =                       -440.5789168179511535

  UHF NO Occupations:
  HONO-2 :    9 A1 1.0000000
  HONO-1 :    3 B1 1.0000000
  HONO-0 :    3 B2 1.0000000
  LUNO+0 :   10 A1 0.0003064
  LUNO+1 :    4 B2 0.0000596
  LUNO+2 :    4 B1 0.0000596
  LUNO+3 :   11 A1 0.0000184


Computation Completed


Properties will be evaluated at   0.000000,   0.000000,   0.000000 [a0]

Properties computed using the SCF density matrix


 Multipole Moments:

 ------------------------------------------------------------------------------------
     Multipole            Electronic (a.u.)      Nuclear  (a.u.)        Total (a.u.)
 ------------------------------------------------------------------------------------

 L = 1.  Multiply by 2.5417464519 to convert [e a0] to [Debye]
 Dipole X            :          0.0000000            0.0000000            0.0000000
 Dipole Y            :          0.0000000            0.0000000            0.0000000
 Dipole Z            :          3.1768912           -0.8241977            2.3526935
 Magnitude           :                                                    2.3526935

 ------------------------------------------------------------------------------------

*** tstop() called on Joses-MacBook-Pro-2.local at Thu Jul 17 10:54:52 2025
Module time:
	user time   =       2.31 seconds =       0.04 minutes
	system time =       4.38 seconds =       0.07 minutes
	total time  =          1 seconds =       0.02 minutes
Total time:
	user time   =     103.01 seconds =       1.72 minutes
	system time =     100.49 seconds =       1.67 minutes
	total time  =         20 seconds =       0.33 minutes

*** tstart() called on Joses-MacBook-Pro-2.local
*** at Thu Jul 17 10:54:52 2025


         ------------------------------------------------------------
                                   SCF GRAD                          
                          Rob Parrish, Justin Turney,                
                       Andy Simmonett, and Alex Sokolov              
         ------------------------------------------------------------

  ==> Geometry <==

    Molecular point group: c2v
    Full point group: C_inf_v

    Geometry (in Angstrom), charge = -1, multiplicity = 6:

       Center              X                  Y                   Z               Mass       
    ------------   -----------------  -----------------  -----------------  -----------------
         F            0.000000000000     0.000000000000     2.174612164278    18.998403162730
         P            0.000000000000     0.000000000000    -1.333843742379    30.973761998420

  Nuclear repulsion =   20.361927110132786

  ==> Basis Set <==

  Basis Set: CC-PVDZ
    Blend: CC-PVDZ
    Number of shells: 14
    Number of basis functions: 32
    Number of Cartesian functions: 34
    Spherical Harmonics?: true
    Max angular momentum: 2

  ==> DFJKGrad: Density-Fitted SCF Gradients <==

    Gradient:                    1
    J tasked:                  Yes
    K tasked:                  Yes
    wK tasked:                  No
    OpenMP threads:              1
    Integrals threads:           1
    Memory [MiB]:              375
    Schwarz Cutoff:          1E-12
    Fitting Condition:       1E-10

   => Auxiliary Basis Set <=

  Basis Set: (CC-PVDZ AUX)
    Blend: CC-PVDZ-JKFIT
    Number of shells: 60
    Number of basis functions: 182
    Number of Cartesian functions: 211
    Spherical Harmonics?: true
    Max angular momentum: 3

  ==> DFT Potential <==

   => LibXC <=

    Version 6.2.2
    S. Lehtola, C. Steigemann, M. J.T. Oliveira, and M. A.L. Marques.,  SoftwareX 7, 1–5 (2018) (10.1016/j.softx.2017.11.002)

   => Composite Functional: B3LYP <= 

    B3LYP Hyb-GGA Exchange-Correlation Functional

    P. J. Stephens, F. J. Devlin, C. F. Chabalowski, and M. J. Frisch.,  J. Phys. Chem. 98, 11623 (1994) (10.1021/j100096a001)

    Deriv               =              1
    GGA                 =           TRUE
    Meta                =          FALSE

    Exchange Hybrid     =           TRUE
    MP2 Hybrid          =          FALSE

   => Exchange Functionals <=

    0.0800   Slater exchange
    0.7200         Becke 88

   => Exact (HF) Exchange <=

    0.2000               HF 

   => Correlation Functionals <=

    0.1900   Vosko, Wilk & Nusair (VWN5_RPA)
    0.8100   Lee, Yang & Parr

   => LibXC Density Thresholds  <==

    XC_HYB_GGA_XC_B3LYP:  1.00E-15 

   => Molecular Quadrature <=

    Radial Scheme          =       TREUTLER
    Pruning Scheme         =           NONE
    Nuclear Scheme         =       TREUTLER

    Blocking Scheme        =         OCTREE
    BS radius alpha        =              1
    Pruning alpha          =              1
    Radial Points          =             75
    Spherical Points       =            302
    Total Points           =          42619
    Total Blocks           =            390
    Max Points             =            255
    Max Functions          =             32
    Weights Tolerance      =       1.00E-15


  -Total Gradient:
     Atom            X                  Y                   Z
    ------   -----------------  -----------------  -----------------
       1        0.000000000000    -0.000000000000    -0.000013864947
       2       -0.000000000000     0.000000000000     0.000014982788


*** tstop() called on Joses-MacBook-Pro-2.local at Thu Jul 17 10:54:52 2025
Module time:
	user time   =       0.90 seconds =       0.02 minutes
	system time =       1.23 seconds =       0.02 minutes
	total time  =          0 seconds =       0.00 minutes
Total time:
	user time   =     103.91 seconds =       1.73 minutes
	system time =     101.72 seconds =       1.70 minutes
	total time  =         20 seconds =       0.33 minutes

    			-----------------------------------------

    			 OPTKING 3.0: for geometry optimizations 

    			     By R.A. King, Bethel University     

    			        with contributions from          

    			    A.V. Copan, J. Cayton, A. Heide      

    			-----------------------------------------

    
	                            ===> Fragment 1 <== 

	 Z (Atomic Numbers)          Masses                          Geom                  
	       9.000000            18.998403          0.00000000  0.00000000  4.10942142   
	      15.000000            30.973762          0.00000000  0.00000000 -2.52059937   

	 - Coordinate -           - BOHR/RAD -       - ANG/DEG -
	 R(1,2)           =         6.630021           3.508456


	        --- Internal Coordinate Step in ANG or DEG, aJ/ANG or AJ/DEG ---
	-------------------------------------------------------------------------------
	           Coordinate      Previous         Force          Change          New 
	           ----------      --------        ------          ------        ------
	               R(1,2)       3.50846        0.00012        0.00120       3.50965
	-------------------------------------------------------------------------------

	                                 ==> Convergence Check <==                                  
    
	Measures of convergence in internal coordinates in au.
    
	Criteria marked as inactive (o), active & met (*), and active & unmet ( ).

	----------------------------------------------------------------------------------------------
	   Step    Total Energy     Delta E     Max Force     RMS Force      Max Disp      RMS Disp   
	----------------------------------------------------------------------------------------------
	  Convergence Criteria     1.00e-06 *    3.00e-04 *             o    1.20e-03 *             o
	----------------------------------------------------------------------------------------------
	    19    -440.57891682   -2.49e-07 *    1.44e-05 *    1.44e-05 o    2.26e-03      2.26e-03 o  ~
	----------------------------------------------------------------------------------------------

Next Geometry in Ang 
	Fragment 1 (Ang)

	    F   0.0000000000   0.0000000000   2.1752106533
	    P   0.0000000000   0.0000000000  -1.3344422314


    Final optimized geometry and variables:
    Molecular point group: c2v
    Full point group: C_inf_v

    Geometry (in Angstrom), charge = -1, multiplicity = 6:

    F            0.000000000000     0.000000000000     2.174612164278
    P            0.000000000000     0.000000000000    -1.333843742379


    Psi4 stopped on: Thursday, 17 July 2025 10:54AM
    Psi4 wall time for execution: 0:00:20.43

*** Psi4 exiting successfully. Buy a developer a beer!
