
    -----------------------------------------------------------------------
          Psi4: An Open-Source Ab Initio Electronic Structure Package
                               Psi4 1.9.1 release

                         Git: Rev {} zzzzzzz 


    D. G. A. Smith, L. A. Burns, A. C. Simmonett, R. M. Parrish,
    M. C. Schieber, R. Galvelis, P. Kraus, H. Kruse, R. Di Remigio,
    A. Alenaizan, A. M. James, S. Lehtola, J. P. Misiewicz, M. Scheurer,
    R. A. Shaw, J. B. Schriber, Y. Xie, Z. L. Glick, D. A. Sirianni,
    J. S. O'Brien, J. M. Waldrop, A. Kumar, E. G. Hohenstein,
    B. P. Pritchard, B. R. Brooks, H. F. Schaefer III, A. Yu. Sokolov,
    K. Patkowski, A. E. DePrince III, U. Bozkaya, R. A. King,
    F. A. Evangelista, J. M. Turney, T. D. Crawford, C. D. Sherrill,
    J. Chem. Phys. 152(18) 184108 (2020). https://doi.org/10.1063/5.0006002

                            Additional Code Authors
    E. T. Seidl, C. L. Janssen, E. F. Valeev, M. L. Leininger,
    J. F. Gonthier, R. M. Richard, H. R. McAlexander, M. Saitow, X. Wang,
    P. Verma, M. H. Lechner, A. Jiang, S. Behnle, A. G. Heide,
    M. F. Herbst, and D. L. Poole

             Previous Authors, Complete List of Code Contributors,
                       and Citations for Specific Modules
    https://github.com/psi4/psi4/blob/master/codemeta.json
    https://github.com/psi4/psi4/graphs/contributors
    http://psicode.org/psi4manual/master/introduction.html#citing-psifour

    -----------------------------------------------------------------------


    Psi4 started on: Thursday, 17 July 2025 09:27AM

    Process ID: 71919
    Host:       Joses-MacBook-Pro-2.local
    PSIDATADIR: /Users/joseantoniorodriguesromero/anaconda3/share/psi4
    Memory:     500.0 MiB
    Threads:    1
    
  ==> Input File <==

--------------------------------------------------------------------------
molecule { 
-1 6
Li   0.00000        0.60000        0.00000
Li   0.00000       -0.60000        0.00000
}

set { 
basis              cc-pvdz
reference          uks
maxiter            500
geom_maxiter       500
DAMPING_PERCENTAGE 1
guess              SAP
}

optimize('b3lyp')
--------------------------------------------------------------------------

Scratch directory: /tmp/
gradient() will perform analytic gradient computation.
   => Libint2 <=

    Primary   basis highest AM E, G, H:  6, 6, 3
    Auxiliary basis highest AM E, G, H:  7, 7, 4
    Onebody   basis highest AM E, G, H:  -, -, -
    Solid Harmonics ordering:            Gaussian

*** tstart() called on Joses-MacBook-Pro-2.local
*** at Thu Jul 17 09:27:12 2025

   => Loading Basis Set <=

    Name: CC-PVDZ
    Role: ORBITAL
    Keyword: BASIS
    atoms 1-2 entry LI         line    42 file /Users/joseantoniorodriguesromero/anaconda3/share/psi4/basis/cc-pvdz.gbs 


         ---------------------------------------------------------
                                   SCF
               by Justin Turney, Rob Parrish, Andy Simmonett
                          and Daniel G. A. Smith
                              UKS Reference
                        1 Threads,    500 MiB Core
         ---------------------------------------------------------

  ==> Geometry <==

    Molecular point group: d2h
    Full point group: D_inf_h

    Geometry (in Angstrom), charge = -1, multiplicity = 6:

       Center              X                  Y                   Z               Mass       
    ------------   -----------------  -----------------  -----------------  -----------------
         LI          -0.000000000000     0.600000000000     0.000000000000     7.016003436600
         LI           0.000000000000    -0.600000000000     0.000000000000     7.016003436600

  Running in d2h symmetry.

  Rotational constants: A = ************  B =      3.33714  C =      3.33714 [cm^-1]
  Rotational constants: A = ************  B = 100044.88972  C = 100044.88972 [MHz]
  Nuclear repulsion =    3.968829080025001

  Charge       = -1
  Multiplicity = 6
  Electrons    = 7
  Nalpha       = 6
  Nbeta        = 1

  ==> Algorithm <==

  SCF Algorithm Type is DF.
  DIIS enabled.
  MOM disabled.
  Fractional occupation disabled.
  Guess Type is SAP.
  Energy threshold   = 1.00e-08
  Density threshold  = 1.00e-08
  Integral threshold = 1.00e-12

  ==> Primary Basis <==

  Basis Set: CC-PVDZ
    Blend: CC-PVDZ
    Number of shells: 12
    Number of basis functions: 28
    Number of Cartesian functions: 30
    Spherical Harmonics?: true
    Max angular momentum: 2

  ==> DFT Potential <==

   => LibXC <=

    Version 6.2.2
    S. Lehtola, C. Steigemann, M. J.T. Oliveira, and M. A.L. Marques.,  SoftwareX 7, 1–5 (2018) (10.1016/j.softx.2017.11.002)

   => Composite Functional: B3LYP <= 

    B3LYP Hyb-GGA Exchange-Correlation Functional

    P. J. Stephens, F. J. Devlin, C. F. Chabalowski, and M. J. Frisch.,  J. Phys. Chem. 98, 11623 (1994) (10.1021/j100096a001)

    Deriv               =              1
    GGA                 =           TRUE
    Meta                =          FALSE

    Exchange Hybrid     =           TRUE
    MP2 Hybrid          =          FALSE

   => Exchange Functionals <=

    0.0800   Slater exchange
    0.7200         Becke 88

   => Exact (HF) Exchange <=

    0.2000               HF 

   => Correlation Functionals <=

    0.1900   Vosko, Wilk & Nusair (VWN5_RPA)
    0.8100   Lee, Yang & Parr

   => LibXC Density Thresholds  <==

    XC_HYB_GGA_XC_B3LYP:  1.00E-15 

   => Molecular Quadrature <=

    Radial Scheme          =       TREUTLER
    Pruning Scheme         =           NONE
    Nuclear Scheme         =       TREUTLER

    Blocking Scheme        =         OCTREE
    BS radius alpha        =              1
    Pruning alpha          =              1
    Radial Points          =             75
    Spherical Points       =            302
    Total Points           =          44010
    Total Blocks           =            452
    Max Points             =            237
    Max Functions          =             28
    Weights Tolerance      =       1.00E-15

   => Loading Basis Set <=

    Name: (CC-PVDZ AUX)
    Role: JKFIT
    Keyword: DF_BASIS_SCF
    atoms 1-2 entry LI         line    54 file /Users/joseantoniorodriguesromero/anaconda3/share/psi4/basis/def2-universal-jkfit.gbs 

  ==> Integral Setup <==

  DFHelper Memory: AOs need 0.001 GiB; user supplied 0.330 GiB. 
  Using in-core AOs.

  ==> MemDFJK: Density-Fitted J/K Matrices <==

    J tasked:                   Yes
    K tasked:                   Yes
    wK tasked:                   No
    OpenMP threads:               1
    Memory [MiB]:               337
    Algorithm:                 Core
    Schwarz Cutoff:           1E-12
    Mask sparsity (%):       0.0000
    Fitting Condition:        1E-10

   => Auxiliary Basis Set <=

  Basis Set: (CC-PVDZ AUX)
    Blend: DEF2-UNIVERSAL-JKFIT
    Number of shells: 34
    Number of basis functions: 102
    Number of Cartesian functions: 120
    Spherical Harmonics?: true
    Max angular momentum: 3

  Cached 100.0% of DFT collocation blocks in 0.036 [GiB].

  Minimum eigenvalue in the overlap matrix is 2.7012894127E-03.
  Reciprocal condition number of the overlap matrix is 7.4592579692E-04.
    Using symmetric orthogonalization.

  ==> Pre-Iterations <==

  SCF Guess: Superposition of Atomic Potentials (doi:10.1021/acs.jctc.8b01089).

  ==> SAP guess <==

   => Molecular Quadrature <=

    Radial Scheme          =       TREUTLER
    Pruning Scheme         =           NONE
    Nuclear Scheme         =       TREUTLER

    Blocking Scheme        =         OCTREE
    BS radius alpha        =              1
    Pruning alpha          =              1
    Radial Points          =             75
    Spherical Points       =            302
    Total Points           =          44010
    Total Blocks           =            452
    Max Points             =            237
    Max Functions          =             28
    Weights Tolerance      =       1.00E-15

   -------------------------------------------------------
    Irrep   Nso     Nmo     Nalpha   Nbeta   Ndocc  Nsocc
   -------------------------------------------------------
     Ag         7       7       2       1       1       1
     B1g        3       3       0       0       0       0
     B2g        1       1       0       0       0       0
     B3g        3       3       0       0       0       0
     Au         1       1       0       0       0       0
     B1u        3       3       1       0       0       1
     B2u        7       7       2       0       0       2
     B3u        3       3       1       0       0       1
   -------------------------------------------------------
    Total      28      28       6       1       1       5
   -------------------------------------------------------

  ==> Iterations <==

                           Total Energy        Delta E     RMS |[F,P]|

   @DF-UKS iter   1:   -12.74292034990921   -1.27429e+01   3.09618e-02 DIIS/ADIIS
   @DF-UKS iter   2:   -12.78621160174718   -4.32913e-02   1.91755e-03 DIIS/ADIIS/DAMP=1%
   @DF-UKS iter   3:   -12.78722312694084   -1.01153e-03   3.03355e-04 DIIS/ADIIS/DAMP=1%
   @DF-UKS iter   4:   -12.78686749156128    3.55635e-04   7.67905e-05 DIIS/DAMP=1%
   @DF-UKS iter   5:   -12.78695649273977   -8.90012e-05   2.76995e-05 DIIS/DAMP=1%
   @DF-UKS iter   6:   -12.78692435326791    3.21395e-05   1.07974e-06 DIIS/DAMP=1%
   @DF-UKS iter   7:   -12.78692537549995   -1.02223e-06   1.37557e-07 DIIS/DAMP=1%
   @DF-UKS iter   8:   -12.78692504719562    3.28304e-07   1.16475e-08 DIIS/DAMP=1%
   @DF-UKS iter   9:   -12.78692506467149   -1.74759e-08   7.36928e-10 DIIS/DAMP=1%
   @DF-UKS iter  10:   -12.78692506554288   -8.71395e-10   7.94615e-11 DIIS/DAMP=1%
  Energy and wave function converged.


  ==> Post-Iterations <==

   Electrons on quadrature grid:
      Nalpha   =    6.0000001422 ; deviation = 1.422e-07
      Nbeta    =    1.0000000484 ; deviation = 4.844e-08
      Ntotal   =    7.0000001907 ; deviation = 1.907e-07 

   @Spin Contamination Metric:   9.504206033E-04
   @S^2 Expected:                8.750000000E+00
   @S^2 Observed:                8.750950421E+00
   @S   Expected:                2.500000000E+00
   @S   Observed:                2.500000000E+00

    Orbital Energies [Eh]
    ---------------------

    Alpha Occupied:                                                       

       1Ag    -2.593569     1B2u   -2.498780     2Ag    -0.085585  
       1B3u   -0.008545     1B1u   -0.008545     2B2u    0.030512  

    Alpha Virtual:                                                        

       3Ag     0.107198     3B2u    0.119481     1B3g    0.140843  
       1B1g    0.140843     2B3u    0.146066     2B1u    0.146066  
       4Ag     0.170806     5Ag     0.201477     2B1g    0.254078  
       2B3g    0.254078     4B2u    0.266973     1B2g    0.310405  
       6Ag     0.310405     3B1u    0.441819     3B3u    0.441819  
       5B2u    0.443647     6B2u    0.471816     1Au     0.471816  
       7Ag     0.552540     3B1g    0.859129     3B3g    0.859129  
       7B2u    1.855403  

    Beta Occupied:                                                        

       1Ag    -2.307365  

    Beta Virtual:                                                         

       1B2u   -2.101499     2Ag     0.069332     2B2u    0.097235  
       1B3u    0.120726     1B1u    0.120732     3Ag     0.135481  
       1B1g    0.156555     1B3g    0.156556     3B2u    0.162070  
       2B3u    0.171849     2B1u    0.171849     4Ag     0.221160  
       5Ag     0.248955     4B2u    0.301108     2B1g    0.320062  
       2B3g    0.320065     1B2g    0.394092     6Ag     0.398799  
       3B1u    0.506402     3B3u    0.506402     5B2u    0.508159  
       1Au     0.522752     6B2u    0.529518     7Ag     0.627431  
       3B1g    0.908185     3B3g    0.908185     7B2u    1.959659  

    Final Occupation by Irrep:
             Ag   B1g   B2g   B3g    Au   B1u   B2u   B3u 
    DOCC [     1,    0,    0,    0,    0,    0,    0,    0 ]
    SOCC [     1,    0,    0,    0,    0,    1,    2,    1 ]
    NA   [     2,    0,    0,    0,    0,    1,    2,    1 ]
    NB   [     1,    0,    0,    0,    0,    0,    0,    0 ]

  @DF-UKS Final Energy:   -12.78692506554288

   => Energetics <=

    Nuclear Repulsion Energy =              3.9688290800250008
    One-Electron Energy =                 -24.1224244807612713
    Two-Electron Energy =                  10.0216472868439155
    DFT Exchange-Correlation Energy =      -2.6549769516505251
    Empirical Dispersion Energy =           0.0000000000000000
    VV10 Nonlocal Energy =                  0.0000000000000000
    Total Energy =                        -12.7869250655428814

  UHF NO Occupations:
  HONO-2 :    1B3u 1.0000000
  HONO-1 :    2B2u 1.0000000
  HONO-0 :    2 Ag 1.0000000
  LUNO+0 :    3 Ag 0.0004753
  LUNO+1 :    3B2u 0.0000000
  LUNO+2 :    2B3u 0.0000000
  LUNO+3 :    2B1u 0.0000000


Computation Completed


Properties will be evaluated at   0.000000,   0.000000,   0.000000 [a0]

Properties computed using the SCF density matrix


 Multipole Moments:

 ------------------------------------------------------------------------------------
     Multipole            Electronic (a.u.)      Nuclear  (a.u.)        Total (a.u.)
 ------------------------------------------------------------------------------------

 L = 1.  Multiply by 2.5417464519 to convert [e a0] to [Debye]
 Dipole X            :          0.0000000            0.0000000            0.0000000
 Dipole Y            :          0.0000000            0.0000000            0.0000000
 Dipole Z            :          0.0000000            0.0000000            0.0000000
 Magnitude           :                                                    0.0000000

 ------------------------------------------------------------------------------------

*** tstop() called on Joses-MacBook-Pro-2.local at Thu Jul 17 09:27:12 2025
Module time:
	user time   =       3.58 seconds =       0.06 minutes
	system time =       4.19 seconds =       0.07 minutes
	total time  =          0 seconds =       0.00 minutes
Total time:
	user time   =       3.58 seconds =       0.06 minutes
	system time =       4.19 seconds =       0.07 minutes
	total time  =          0 seconds =       0.00 minutes

*** tstart() called on Joses-MacBook-Pro-2.local
*** at Thu Jul 17 09:27:12 2025


         ------------------------------------------------------------
                                   SCF GRAD                          
                          Rob Parrish, Justin Turney,                
                       Andy Simmonett, and Alex Sokolov              
         ------------------------------------------------------------

  ==> Geometry <==

    Molecular point group: d2h
    Full point group: D_inf_h

    Geometry (in Angstrom), charge = -1, multiplicity = 6:

       Center              X                  Y                   Z               Mass       
    ------------   -----------------  -----------------  -----------------  -----------------
         LI          -0.000000000000     0.600000000000     0.000000000000     7.016003436600
         LI           0.000000000000    -0.600000000000     0.000000000000     7.016003436600

  Nuclear repulsion =    3.968829080025001

  ==> Basis Set <==

  Basis Set: CC-PVDZ
    Blend: CC-PVDZ
    Number of shells: 12
    Number of basis functions: 28
    Number of Cartesian functions: 30
    Spherical Harmonics?: true
    Max angular momentum: 2

  ==> DFJKGrad: Density-Fitted SCF Gradients <==

    Gradient:                    1
    J tasked:                  Yes
    K tasked:                  Yes
    wK tasked:                  No
    OpenMP threads:              1
    Integrals threads:           1
    Memory [MiB]:              375
    Schwarz Cutoff:          1E-12
    Fitting Condition:       1E-10

   => Auxiliary Basis Set <=

  Basis Set: (CC-PVDZ AUX)
    Blend: DEF2-UNIVERSAL-JKFIT
    Number of shells: 34
    Number of basis functions: 102
    Number of Cartesian functions: 120
    Spherical Harmonics?: true
    Max angular momentum: 3

  ==> DFT Potential <==

   => LibXC <=

    Version 6.2.2
    S. Lehtola, C. Steigemann, M. J.T. Oliveira, and M. A.L. Marques.,  SoftwareX 7, 1–5 (2018) (10.1016/j.softx.2017.11.002)

   => Composite Functional: B3LYP <= 

    B3LYP Hyb-GGA Exchange-Correlation Functional

    P. J. Stephens, F. J. Devlin, C. F. Chabalowski, and M. J. Frisch.,  J. Phys. Chem. 98, 11623 (1994) (10.1021/j100096a001)

    Deriv               =              1
    GGA                 =           TRUE
    Meta                =          FALSE

    Exchange Hybrid     =           TRUE
    MP2 Hybrid          =          FALSE

   => Exchange Functionals <=

    0.0800   Slater exchange
    0.7200         Becke 88

   => Exact (HF) Exchange <=

    0.2000               HF 

   => Correlation Functionals <=

    0.1900   Vosko, Wilk & Nusair (VWN5_RPA)
    0.8100   Lee, Yang & Parr

   => LibXC Density Thresholds  <==

    XC_HYB_GGA_XC_B3LYP:  1.00E-15 

   => Molecular Quadrature <=

    Radial Scheme          =       TREUTLER
    Pruning Scheme         =           NONE
    Nuclear Scheme         =       TREUTLER

    Blocking Scheme        =         OCTREE
    BS radius alpha        =              1
    Pruning alpha          =              1
    Radial Points          =             75
    Spherical Points       =            302
    Total Points           =          44010
    Total Blocks           =            452
    Max Points             =            237
    Max Functions          =             28
    Weights Tolerance      =       1.00E-15


  -Total Gradient:
     Atom            X                  Y                   Z
    ------   -----------------  -----------------  -----------------
       1        0.000000000000    -0.201654521043     0.000000000000
       2       -0.000000000000     0.201654521043     0.000000000000


*** tstop() called on Joses-MacBook-Pro-2.local at Thu Jul 17 09:27:13 2025
Module time:
	user time   =       0.52 seconds =       0.01 minutes
	system time =       1.05 seconds =       0.02 minutes
	total time  =          1 seconds =       0.02 minutes
Total time:
	user time   =       4.12 seconds =       0.07 minutes
	system time =       5.24 seconds =       0.09 minutes
	total time  =          1 seconds =       0.02 minutes

    			-----------------------------------------

    			 OPTKING 3.0: for geometry optimizations 

    			     By R.A. King, Bethel University     

    			        with contributions from          

    			    A.V. Copan, J. Cayton, A. Heide      

    			-----------------------------------------

    
	                            ===> Fragment 1 <== 

	 Z (Atomic Numbers)          Masses                          Geom                  
	       3.000000             7.016003         -0.00000000  1.13383568  0.00000000   
	       3.000000             7.016003          0.00000000 -1.13383568  0.00000000   

	 - Coordinate -           - BOHR/RAD -       - ANG/DEG -
	 R(1,2)           =         2.267671           1.200000


	        --- Internal Coordinate Step in ANG or DEG, aJ/ANG or AJ/DEG ---
	-------------------------------------------------------------------------------
	           Coordinate      Previous         Force          Change          New 
	           ----------      --------        ------          ------        ------
	               R(1,2)       1.20000        1.66138        0.09829       1.29829
	-------------------------------------------------------------------------------

	                                 ==> Convergence Check <==                                  
    
	Measures of convergence in internal coordinates in au.
    
	Criteria marked as inactive (o), active & met (*), and active & unmet ( ).

	----------------------------------------------------------------------------------------------
	   Step    Total Energy     Delta E     Max Force     RMS Force      Max Disp      RMS Disp   
	----------------------------------------------------------------------------------------------
	  Convergence Criteria     1.00e-06 *    3.00e-04 *             o    1.20e-03 *             o
	----------------------------------------------------------------------------------------------
	     1     -12.78692507   -1.28e+01      2.02e-01      2.02e-01 o    1.86e-01      1.86e-01 o  ~
	----------------------------------------------------------------------------------------------

Next Geometry in Ang 
	Fragment 1 (Ang)

	   Li  -0.0000000000   0.6491445006   0.0000000000
	   Li   0.0000000000  -0.6491445006   0.0000000000


    Structure for next step:
    Molecular point group: d2h
    Full point group: D_inf_h

    Geometry (in Angstrom), charge = -1, multiplicity = 6:

    LI          -0.000000000000     0.649144500595     0.000000000000
    LI           0.000000000000    -0.649144500595     0.000000000000


Scratch directory: /tmp/
gradient() will perform analytic gradient computation.
   => Libint2 <=

    Primary   basis highest AM E, G, H:  6, 6, 3
    Auxiliary basis highest AM E, G, H:  7, 7, 4
    Onebody   basis highest AM E, G, H:  -, -, -
    Solid Harmonics ordering:            Gaussian

*** tstart() called on Joses-MacBook-Pro-2.local
*** at Thu Jul 17 09:27:13 2025

   => Loading Basis Set <=

    Name: CC-PVDZ
    Role: ORBITAL
    Keyword: BASIS
    atoms 1-2 entry LI         line    42 file /Users/joseantoniorodriguesromero/anaconda3/share/psi4/basis/cc-pvdz.gbs 


         ---------------------------------------------------------
                                   SCF
               by Justin Turney, Rob Parrish, Andy Simmonett
                          and Daniel G. A. Smith
                              UKS Reference
                        1 Threads,    500 MiB Core
         ---------------------------------------------------------

  ==> Geometry <==

    Molecular point group: d2h
    Full point group: D_inf_h

    Geometry (in Angstrom), charge = -1, multiplicity = 6:

       Center              X                  Y                   Z               Mass       
    ------------   -----------------  -----------------  -----------------  -----------------
         LI          -0.000000000000     0.649144500595     0.000000000000     7.016003436600
         LI           0.000000000000    -0.649144500595     0.000000000000     7.016003436600

  Running in d2h symmetry.

  Rotational constants: A = ************  B =      2.85098  C =      2.85098 [cm^-1]
  Rotational constants: A = ************  B =  85470.18543  C =  85470.18543 [MHz]
  Nuclear repulsion =    3.668362661676321

  Charge       = -1
  Multiplicity = 6
  Electrons    = 7
  Nalpha       = 6
  Nbeta        = 1

  ==> Algorithm <==

  SCF Algorithm Type is DF.
  DIIS enabled.
  MOM disabled.
  Fractional occupation disabled.
  Guess Type is READ.
  Energy threshold   = 1.00e-08
  Density threshold  = 1.00e-08
  Integral threshold = 1.00e-12

  ==> Primary Basis <==

  Basis Set: CC-PVDZ
    Blend: CC-PVDZ
    Number of shells: 12
    Number of basis functions: 28
    Number of Cartesian functions: 30
    Spherical Harmonics?: true
    Max angular momentum: 2

  ==> DFT Potential <==

   => LibXC <=

    Version 6.2.2
    S. Lehtola, C. Steigemann, M. J.T. Oliveira, and M. A.L. Marques.,  SoftwareX 7, 1–5 (2018) (10.1016/j.softx.2017.11.002)

   => Composite Functional: B3LYP <= 

    B3LYP Hyb-GGA Exchange-Correlation Functional

    P. J. Stephens, F. J. Devlin, C. F. Chabalowski, and M. J. Frisch.,  J. Phys. Chem. 98, 11623 (1994) (10.1021/j100096a001)

    Deriv               =              1
    GGA                 =           TRUE
    Meta                =          FALSE

    Exchange Hybrid     =           TRUE
    MP2 Hybrid          =          FALSE

   => Exchange Functionals <=

    0.0800   Slater exchange
    0.7200         Becke 88

   => Exact (HF) Exchange <=

    0.2000               HF 

   => Correlation Functionals <=

    0.1900   Vosko, Wilk & Nusair (VWN5_RPA)
    0.8100   Lee, Yang & Parr

   => LibXC Density Thresholds  <==

    XC_HYB_GGA_XC_B3LYP:  1.00E-15 

   => Molecular Quadrature <=

    Radial Scheme          =       TREUTLER
    Pruning Scheme         =           NONE
    Nuclear Scheme         =       TREUTLER

    Blocking Scheme        =         OCTREE
    BS radius alpha        =              1
    Pruning alpha          =              1
    Radial Points          =             75
    Spherical Points       =            302
    Total Points           =          44006
    Total Blocks           =            450
    Max Points             =            256
    Max Functions          =             28
    Weights Tolerance      =       1.00E-15

   => Loading Basis Set <=

    Name: (CC-PVDZ AUX)
    Role: JKFIT
    Keyword: DF_BASIS_SCF
    atoms 1-2 entry LI         line    54 file /Users/joseantoniorodriguesromero/anaconda3/share/psi4/basis/def2-universal-jkfit.gbs 

   => Loading Basis Set <=

    Name: CC-PVDZ
    Role: ORBITAL
    Keyword: BASIS
    atoms 1-2 entry LI         line    42 file /Users/joseantoniorodriguesromero/anaconda3/share/psi4/basis/cc-pvdz.gbs 

  Reading orbitals from file /tmp/sextet_LiLi.default.71919.180.npy, no projection.

  ==> Integral Setup <==

  DFHelper Memory: AOs need 0.001 GiB; user supplied 0.330 GiB. 
  Using in-core AOs.

  ==> MemDFJK: Density-Fitted J/K Matrices <==

    J tasked:                   Yes
    K tasked:                   Yes
    wK tasked:                   No
    OpenMP threads:               1
    Memory [MiB]:               337
    Algorithm:                 Core
    Schwarz Cutoff:           1E-12
    Mask sparsity (%):       0.0000
    Fitting Condition:        1E-10

   => Auxiliary Basis Set <=

  Basis Set: (CC-PVDZ AUX)
    Blend: DEF2-UNIVERSAL-JKFIT
    Number of shells: 34
    Number of basis functions: 102
    Number of Cartesian functions: 120
    Spherical Harmonics?: true
    Max angular momentum: 3

  Cached 100.0% of DFT collocation blocks in 0.036 [GiB].

  Minimum eigenvalue in the overlap matrix is 2.7050227016E-03.
  Reciprocal condition number of the overlap matrix is 7.4096267487E-04.
    Using symmetric orthogonalization.

  ==> Pre-Iterations <==

  SCF Guess: Orbitals guess was supplied from a previous computation.

   -------------------------------------------------------
    Irrep   Nso     Nmo     Nalpha   Nbeta   Ndocc  Nsocc
   -------------------------------------------------------
     Ag         7       7       2       1       1       1
     B1g        3       3       0       0       0       0
     B2g        1       1       0       0       0       0
     B3g        3       3       0       0       0       0
     Au         1       1       0       0       0       0
     B1u        3       3       1       0       0       1
     B2u        7       7       2       0       0       2
     B3u        3       3       1       0       0       1
   -------------------------------------------------------
    Total      28      28       6       1       1       5
   -------------------------------------------------------

  ==> Iterations <==

                           Total Energy        Delta E     RMS |[F,P]|

   @DF-UKS iter   0:   -12.81215718066110   -1.28122e+01   3.17302e-03 
   @DF-UKS iter   1:   -12.82002898007522   -7.87180e-03   1.54113e-03 DIIS/ADIIS
   @DF-UKS iter   2:   -12.82126184219367   -1.23286e-03   6.59956e-04 DIIS/ADIIS/DAMP=1%
   @DF-UKS iter   3:   -12.82120270772547    5.91345e-05   6.23710e-05 DIIS/DAMP=1%
   @DF-UKS iter   4:   -12.82141414926404   -2.11442e-04   1.42124e-05 DIIS/DAMP=1%
   @DF-UKS iter   5:   -12.82141589808012   -1.74882e-06   1.43936e-06 DIIS/DAMP=1%
   @DF-UKS iter   6:   -12.82141676151029   -8.63430e-07   2.79184e-07 DIIS/DAMP=1%
   @DF-UKS iter   7:   -12.82141603292256    7.28588e-07   2.31759e-08 DIIS/DAMP=1%
   @DF-UKS iter   8:   -12.82141612863412   -9.57116e-08   9.81253e-10 DIIS/DAMP=1%
   @DF-UKS iter   9:   -12.82141611838474    1.02494e-08   1.47824e-10 DIIS/DAMP=1%
   @DF-UKS iter  10:   -12.82141611814324    2.41496e-10   2.07536e-11 DIIS/DAMP=1%
  Energy and wave function converged.


  ==> Post-Iterations <==

   Electrons on quadrature grid:
      Nalpha   =    6.0000002535 ; deviation = 2.535e-07
      Nbeta    =    1.0000001044 ; deviation = 1.044e-07
      Ntotal   =    7.0000003579 ; deviation = 3.579e-07 

   @Spin Contamination Metric:   8.359923133E-04
   @S^2 Expected:                8.750000000E+00
   @S^2 Observed:                8.750835992E+00
   @S   Expected:                2.500000000E+00
   @S   Observed:                2.500000000E+00

    Orbital Energies [Eh]
    ---------------------

    Alpha Occupied:                                                       

       1Ag    -2.539247     1B2u   -2.479045     2Ag    -0.087464  
       1B3u   -0.002777     1B1u   -0.002777     2B2u    0.029660  

    Alpha Virtual:                                                        

       3Ag     0.101258     3B2u    0.119296     1B3g    0.139272  
       1B1g    0.139272     2B3u    0.146598     2B1u    0.146598  
       4Ag     0.161138     5Ag     0.200734     2B3g    0.247871  
       2B1g    0.247871     4B2u    0.267709     6Ag     0.310964  
       1B2g    0.310964     5B2u    0.433998     3B3u    0.435383  
       3B1u    0.435383     6B2u    0.467274     1Au     0.467274  
       7Ag     0.528254     3B3g    0.817586     3B1g    0.817586  
       7B2u    1.853574  

    Beta Occupied:                                                        

       1Ag    -2.249745  

    Beta Virtual:                                                         

       1B2u   -2.089190     2Ag     0.067156     2B2u    0.098710  
       1B3u    0.121711     1B1u    0.121726     3Ag     0.139520  
       3B2u    0.157309     1B1g    0.158247     1B3g    0.158249  
       2B3u    0.174211     2B1u    0.174213     4Ag     0.212542  
       5Ag     0.244376     4B2u    0.304356     2B1g    0.306392  
       2B3g    0.306408     6Ag     0.380755     1B2g    0.401783  
       5B2u    0.491133     6B2u    0.493535     3B3u    0.500919  
       3B1u    0.500921     1Au     0.527386     7Ag     0.594669  
       3B1g    0.864965     3B3g    0.864968     7B2u    1.954977  

    Final Occupation by Irrep:
             Ag   B1g   B2g   B3g    Au   B1u   B2u   B3u 
    DOCC [     1,    0,    0,    0,    0,    0,    0,    0 ]
    SOCC [     1,    0,    0,    0,    0,    1,    2,    1 ]
    NA   [     2,    0,    0,    0,    0,    1,    2,    1 ]
    NB   [     1,    0,    0,    0,    0,    0,    0,    0 ]

  @DF-UKS Final Energy:   -12.82141611814324

   => Energetics <=

    Nuclear Repulsion Energy =              3.6683626616763210
    One-Electron Energy =                 -23.7341174587267538
    Two-Electron Energy =                   9.8948696750789153
    DFT Exchange-Correlation Energy =      -2.6505309961717254
    Empirical Dispersion Energy =           0.0000000000000000
    VV10 Nonlocal Energy =                  0.0000000000000000
    Total Energy =                        -12.8214161181432402

  UHF NO Occupations:
  HONO-2 :    1B2u 1.0000000
  HONO-1 :    2 Ag 1.0000000
  HONO-0 :    2B2u 1.0000000
  LUNO+0 :    3 Ag 0.0004181
  LUNO+1 :    3B2u 0.0000000
  LUNO+2 :    4 Ag 0.0000000
  LUNO+3 :    2B3u 0.0000000


Computation Completed


Properties will be evaluated at   0.000000,   0.000000,   0.000000 [a0]

Properties computed using the SCF density matrix


 Multipole Moments:

 ------------------------------------------------------------------------------------
     Multipole            Electronic (a.u.)      Nuclear  (a.u.)        Total (a.u.)
 ------------------------------------------------------------------------------------

 L = 1.  Multiply by 2.5417464519 to convert [e a0] to [Debye]
 Dipole X            :          0.0000000            0.0000000            0.0000000
 Dipole Y            :          0.0000000            0.0000000            0.0000000
 Dipole Z            :          0.0000000            0.0000000            0.0000000
 Magnitude           :                                                    0.0000000

 ------------------------------------------------------------------------------------

*** tstop() called on Joses-MacBook-Pro-2.local at Thu Jul 17 09:27:13 2025
Module time:
	user time   =       4.11 seconds =       0.07 minutes
	system time =       3.31 seconds =       0.06 minutes
	total time  =          0 seconds =       0.00 minutes
Total time:
	user time   =       8.27 seconds =       0.14 minutes
	system time =       8.83 seconds =       0.15 minutes
	total time  =          1 seconds =       0.02 minutes

*** tstart() called on Joses-MacBook-Pro-2.local
*** at Thu Jul 17 09:27:13 2025


         ------------------------------------------------------------
                                   SCF GRAD                          
                          Rob Parrish, Justin Turney,                
                       Andy Simmonett, and Alex Sokolov              
         ------------------------------------------------------------

  ==> Geometry <==

    Molecular point group: d2h
    Full point group: D_inf_h

    Geometry (in Angstrom), charge = -1, multiplicity = 6:

       Center              X                  Y                   Z               Mass       
    ------------   -----------------  -----------------  -----------------  -----------------
         LI          -0.000000000000     0.649144500595     0.000000000000     7.016003436600
         LI           0.000000000000    -0.649144500595     0.000000000000     7.016003436600

  Nuclear repulsion =    3.668362661676321

  ==> Basis Set <==

  Basis Set: CC-PVDZ
    Blend: CC-PVDZ
    Number of shells: 12
    Number of basis functions: 28
    Number of Cartesian functions: 30
    Spherical Harmonics?: true
    Max angular momentum: 2

  ==> DFJKGrad: Density-Fitted SCF Gradients <==

    Gradient:                    1
    J tasked:                  Yes
    K tasked:                  Yes
    wK tasked:                  No
    OpenMP threads:              1
    Integrals threads:           1
    Memory [MiB]:              375
    Schwarz Cutoff:          1E-12
    Fitting Condition:       1E-10

   => Auxiliary Basis Set <=

  Basis Set: (CC-PVDZ AUX)
    Blend: DEF2-UNIVERSAL-JKFIT
    Number of shells: 34
    Number of basis functions: 102
    Number of Cartesian functions: 120
    Spherical Harmonics?: true
    Max angular momentum: 3

  ==> DFT Potential <==

   => LibXC <=

    Version 6.2.2
    S. Lehtola, C. Steigemann, M. J.T. Oliveira, and M. A.L. Marques.,  SoftwareX 7, 1–5 (2018) (10.1016/j.softx.2017.11.002)

   => Composite Functional: B3LYP <= 

    B3LYP Hyb-GGA Exchange-Correlation Functional

    P. J. Stephens, F. J. Devlin, C. F. Chabalowski, and M. J. Frisch.,  J. Phys. Chem. 98, 11623 (1994) (10.1021/j100096a001)

    Deriv               =              1
    GGA                 =           TRUE
    Meta                =          FALSE

    Exchange Hybrid     =           TRUE
    MP2 Hybrid          =          FALSE

   => Exchange Functionals <=

    0.0800   Slater exchange
    0.7200         Becke 88

   => Exact (HF) Exchange <=

    0.2000               HF 

   => Correlation Functionals <=

    0.1900   Vosko, Wilk & Nusair (VWN5_RPA)
    0.8100   Lee, Yang & Parr

   => LibXC Density Thresholds  <==

    XC_HYB_GGA_XC_B3LYP:  1.00E-15 

   => Molecular Quadrature <=

    Radial Scheme          =       TREUTLER
    Pruning Scheme         =           NONE
    Nuclear Scheme         =       TREUTLER

    Blocking Scheme        =         OCTREE
    BS radius alpha        =              1
    Pruning alpha          =              1
    Radial Points          =             75
    Spherical Points       =            302
    Total Points           =          44006
    Total Blocks           =            450
    Max Points             =            256
    Max Functions          =             28
    Weights Tolerance      =       1.00E-15


  -Total Gradient:
     Atom            X                  Y                   Z
    ------   -----------------  -----------------  -----------------
       1        0.000000000000    -0.170842420282     0.000000000000
       2       -0.000000000000     0.170842420282     0.000000000000


*** tstop() called on Joses-MacBook-Pro-2.local at Thu Jul 17 09:27:13 2025
Module time:
	user time   =       0.58 seconds =       0.01 minutes
	system time =       1.27 seconds =       0.02 minutes
	total time  =          0 seconds =       0.00 minutes
Total time:
	user time   =       8.85 seconds =       0.15 minutes
	system time =      10.10 seconds =       0.17 minutes
	total time  =          1 seconds =       0.02 minutes

    			-----------------------------------------

    			 OPTKING 3.0: for geometry optimizations 

    			     By R.A. King, Bethel University     

    			        with contributions from          

    			    A.V. Copan, J. Cayton, A. Heide      

    			-----------------------------------------

    
	                            ===> Fragment 1 <== 

	 Z (Atomic Numbers)          Masses                          Geom                  
	       3.000000             7.016003         -0.00000000  1.22670532  0.00000000   
	       3.000000             7.016003          0.00000000 -1.22670532  0.00000000   

	 - Coordinate -           - BOHR/RAD -       - ANG/DEG -
	 R(1,2)           =         2.453411           1.298289


	        --- Internal Coordinate Step in ANG or DEG, aJ/ANG or AJ/DEG ---
	-------------------------------------------------------------------------------
	           Coordinate      Previous         Force          Change          New 
	           ----------      --------        ------          ------        ------
	               R(1,2)       1.29829        1.40752        0.33133       1.62962
	-------------------------------------------------------------------------------

	                                 ==> Convergence Check <==                                  
    
	Measures of convergence in internal coordinates in au.
    
	Criteria marked as inactive (o), active & met (*), and active & unmet ( ).

	----------------------------------------------------------------------------------------------
	   Step    Total Energy     Delta E     Max Force     RMS Force      Max Disp      RMS Disp   
	----------------------------------------------------------------------------------------------
	  Convergence Criteria     1.00e-06 *    3.00e-04 *             o    1.20e-03 *             o
	----------------------------------------------------------------------------------------------
	     2     -12.82141612   -3.45e-02      1.71e-01      1.71e-01 o    6.26e-01      6.26e-01 o  ~
	----------------------------------------------------------------------------------------------

Next Geometry in Ang 
	Fragment 1 (Ang)

	   Li  -0.0000000000   0.8148096251   0.0000000000
	   Li   0.0000000000  -0.8148096251   0.0000000000


    Structure for next step:
    Molecular point group: d2h
    Full point group: D_inf_h

    Geometry (in Angstrom), charge = -1, multiplicity = 6:

    LI          -0.000000000000     0.814809625106     0.000000000000
    LI           0.000000000000    -0.814809625106     0.000000000000


Scratch directory: /tmp/
gradient() will perform analytic gradient computation.
   => Libint2 <=

    Primary   basis highest AM E, G, H:  6, 6, 3
    Auxiliary basis highest AM E, G, H:  7, 7, 4
    Onebody   basis highest AM E, G, H:  -, -, -
    Solid Harmonics ordering:            Gaussian

*** tstart() called on Joses-MacBook-Pro-2.local
*** at Thu Jul 17 09:27:14 2025

   => Loading Basis Set <=

    Name: CC-PVDZ
    Role: ORBITAL
    Keyword: BASIS
    atoms 1-2 entry LI         line    42 file /Users/joseantoniorodriguesromero/anaconda3/share/psi4/basis/cc-pvdz.gbs 


         ---------------------------------------------------------
                                   SCF
               by Justin Turney, Rob Parrish, Andy Simmonett
                          and Daniel G. A. Smith
                              UKS Reference
                        1 Threads,    500 MiB Core
         ---------------------------------------------------------

  ==> Geometry <==

    Molecular point group: d2h
    Full point group: D_inf_h

    Geometry (in Angstrom), charge = -1, multiplicity = 6:

       Center              X                  Y                   Z               Mass       
    ------------   -----------------  -----------------  -----------------  -----------------
         LI          -0.000000000000     0.814809625106     0.000000000000     7.016003436600
         LI           0.000000000000    -0.814809625106     0.000000000000     7.016003436600

  Running in d2h symmetry.

  Rotational constants: A = ************  B =      1.80952  C =      1.80952 [cm^-1]
  Rotational constants: A = ************  B =  54248.17214  C =  54248.17214 [MHz]
  Nuclear repulsion =    2.922520027551650

  Charge       = -1
  Multiplicity = 6
  Electrons    = 7
  Nalpha       = 6
  Nbeta        = 1

  ==> Algorithm <==

  SCF Algorithm Type is DF.
  DIIS enabled.
  MOM disabled.
  Fractional occupation disabled.
  Guess Type is READ.
  Energy threshold   = 1.00e-08
  Density threshold  = 1.00e-08
  Integral threshold = 1.00e-12

  ==> Primary Basis <==

  Basis Set: CC-PVDZ
    Blend: CC-PVDZ
    Number of shells: 12
    Number of basis functions: 28
    Number of Cartesian functions: 30
    Spherical Harmonics?: true
    Max angular momentum: 2

  ==> DFT Potential <==

   => LibXC <=

    Version 6.2.2
    S. Lehtola, C. Steigemann, M. J.T. Oliveira, and M. A.L. Marques.,  SoftwareX 7, 1–5 (2018) (10.1016/j.softx.2017.11.002)

   => Composite Functional: B3LYP <= 

    B3LYP Hyb-GGA Exchange-Correlation Functional

    P. J. Stephens, F. J. Devlin, C. F. Chabalowski, and M. J. Frisch.,  J. Phys. Chem. 98, 11623 (1994) (10.1021/j100096a001)

    Deriv               =              1
    GGA                 =           TRUE
    Meta                =          FALSE

    Exchange Hybrid     =           TRUE
    MP2 Hybrid          =          FALSE

   => Exchange Functionals <=

    0.0800   Slater exchange
    0.7200         Becke 88

   => Exact (HF) Exchange <=

    0.2000               HF 

   => Correlation Functionals <=

    0.1900   Vosko, Wilk & Nusair (VWN5_RPA)
    0.8100   Lee, Yang & Parr

   => LibXC Density Thresholds  <==

    XC_HYB_GGA_XC_B3LYP:  1.00E-15 

   => Molecular Quadrature <=

    Radial Scheme          =       TREUTLER
    Pruning Scheme         =           NONE
    Nuclear Scheme         =       TREUTLER

    Blocking Scheme        =         OCTREE
    BS radius alpha        =              1
    Pruning alpha          =              1
    Radial Points          =             75
    Spherical Points       =            302
    Total Points           =          44012
    Total Blocks           =            448
    Max Points             =            254
    Max Functions          =             28
    Weights Tolerance      =       1.00E-15

   => Loading Basis Set <=

    Name: (CC-PVDZ AUX)
    Role: JKFIT
    Keyword: DF_BASIS_SCF
    atoms 1-2 entry LI         line    54 file /Users/joseantoniorodriguesromero/anaconda3/share/psi4/basis/def2-universal-jkfit.gbs 

   => Loading Basis Set <=

    Name: CC-PVDZ
    Role: ORBITAL
    Keyword: BASIS
    atoms 1-2 entry LI         line    42 file /Users/joseantoniorodriguesromero/anaconda3/share/psi4/basis/cc-pvdz.gbs 

  Reading orbitals from file /tmp/sextet_LiLi.default.71919.180.npy, no projection.

  ==> Integral Setup <==

  DFHelper Memory: AOs need 0.001 GiB; user supplied 0.330 GiB. 
  Using in-core AOs.

  ==> MemDFJK: Density-Fitted J/K Matrices <==

    J tasked:                   Yes
    K tasked:                   Yes
    wK tasked:                   No
    OpenMP threads:               1
    Memory [MiB]:               337
    Algorithm:                 Core
    Schwarz Cutoff:           1E-12
    Mask sparsity (%):       0.0000
    Fitting Condition:        1E-10

   => Auxiliary Basis Set <=

  Basis Set: (CC-PVDZ AUX)
    Blend: DEF2-UNIVERSAL-JKFIT
    Number of shells: 34
    Number of basis functions: 102
    Number of Cartesian functions: 120
    Spherical Harmonics?: true
    Max angular momentum: 3

  Cached 100.0% of DFT collocation blocks in 0.036 [GiB].

  Minimum eigenvalue in the overlap matrix is 2.6163394880E-03.
  Reciprocal condition number of the overlap matrix is 7.0122893160E-04.
    Using symmetric orthogonalization.

  ==> Pre-Iterations <==

  SCF Guess: Orbitals guess was supplied from a previous computation.

   -------------------------------------------------------
    Irrep   Nso     Nmo     Nalpha   Nbeta   Ndocc  Nsocc
   -------------------------------------------------------
     Ag         7       7       2       1       1       1
     B1g        3       3       0       0       0       0
     B2g        1       1       0       0       0       0
     B3g        3       3       0       0       0       0
     Au         1       1       0       0       0       0
     B1u        3       3       1       0       0       1
     B2u        7       7       2       0       0       2
     B3u        3       3       1       0       0       1
   -------------------------------------------------------
    Total      28      28       6       1       1       5
   -------------------------------------------------------

  ==> Iterations <==

                           Total Energy        Delta E     RMS |[F,P]|

   @DF-UKS iter   0:   -12.94440728081395   -1.29444e+01   1.14139e-02 
   @DF-UKS iter   1:   -12.89567866636402    4.87286e-02   2.94129e-03 DIIS/ADIIS
   @DF-UKS iter   2:   -12.90045284823356   -4.77418e-03   1.46702e-03 DIIS/ADIIS/DAMP=1%
   @DF-UKS iter   3:   -12.90077507706059   -3.22229e-04   1.08571e-04 DIIS/ADIIS/DAMP=1%
   @DF-UKS iter   4:   -12.90129504751537   -5.19970e-04   2.90829e-05 DIIS/DAMP=1%
   @DF-UKS iter   5:   -12.90128740521590    7.64230e-06   3.79866e-06 DIIS/DAMP=1%
   @DF-UKS iter   6:   -12.90129212209993   -4.71688e-06   7.28778e-07 DIIS/DAMP=1%
   @DF-UKS iter   7:   -12.90129023586226    1.88624e-06   7.96490e-08 DIIS/DAMP=1%
   @DF-UKS iter   8:   -12.90129045220858   -2.16346e-07   5.71669e-09 DIIS/DAMP=1%
   @DF-UKS iter   9:   -12.90129041595973    3.62489e-08   4.30481e-10 DIIS/DAMP=1%
   @DF-UKS iter  10:   -12.90129041820880   -2.24906e-09   5.86013e-11 DIIS/DAMP=1%
  Energy and wave function converged.


  ==> Post-Iterations <==

   Electrons on quadrature grid:
      Nalpha   =    5.9999997120 ; deviation = -2.880e-07
      Nbeta    =    0.9999998836 ; deviation = -1.164e-07
      Ntotal   =    6.9999995956 ; deviation = -4.044e-07 

   @Spin Contamination Metric:   4.523631681E-04
   @S^2 Expected:                8.750000000E+00
   @S^2 Observed:                8.750452363E+00
   @S   Expected:                2.500000000E+00
   @S   Observed:                2.500000000E+00

    Orbital Energies [Eh]
    ---------------------

    Alpha Occupied:                                                       

       1Ag    -2.441946     1B2u   -2.432214     2Ag    -0.094726  
       1B3u    0.013426     1B1u    0.013426     2B2u    0.024523  

    Alpha Virtual:                                                        

       3Ag     0.083169     3B2u    0.118852     1B1g    0.133682  
       1B3g    0.133682     4Ag     0.147936     2B3u    0.148695  
       2B1u    0.148695     5Ag     0.198410     2B3g    0.228411  
       2B1g    0.228411     4B2u    0.268954     1B2g    0.312674  
       6Ag     0.312675     5B2u    0.398127     3B1u    0.412695  
       3B3u    0.412695     1Au     0.450921     6B2u    0.450921  
       7Ag     0.481938     3B1g    0.681181     3B3g    0.681181  
       7B2u    1.807207  

    Beta Occupied:                                                        

       1Ag    -2.147296  

    Beta Virtual:                                                         

       1B2u   -2.062793     2Ag     0.067873     2B2u    0.099601  
       1B3u    0.131756     1B1u    0.131756     3Ag     0.136578  
       3B2u    0.157589     1B1g    0.158740     1B3g    0.158740  
       2B1u    0.184680     2B3u    0.184680     4Ag     0.189197  
       5Ag     0.241150     2B3g    0.290611     2B1g    0.290611  
       4B2u    0.302117     1B2g    0.403754     6Ag     0.405228  
       5B2u    0.470009     3B1u    0.485880     3B3u    0.485880  
       1Au     0.515222     6B2u    0.519771     7Ag     0.550406  
       3B3g    0.732465     3B1g    0.732465     7B2u    1.905975  

    Final Occupation by Irrep:
             Ag   B1g   B2g   B3g    Au   B1u   B2u   B3u 
    DOCC [     1,    0,    0,    0,    0,    0,    0,    0 ]
    SOCC [     1,    0,    0,    0,    0,    1,    2,    1 ]
    NA   [     2,    0,    0,    0,    0,    1,    2,    1 ]
    NB   [     1,    0,    0,    0,    0,    0,    0,    0 ]

  @DF-UKS Final Energy:   -12.90129041820880

   => Energetics <=

    Nuclear Repulsion Energy =              2.9225200275516499
    One-Electron Energy =                 -22.6879512843068625
    Two-Electron Energy =                   9.4881957145044336
    DFT Exchange-Correlation Energy =      -2.6240548759580165
    Empirical Dispersion Energy =           0.0000000000000000
    VV10 Nonlocal Energy =                  0.0000000000000000
    Total Energy =                        -12.9012904182087969

  UHF NO Occupations:
  HONO-2 :    1B1u 1.0000000
  HONO-1 :    2B2u 1.0000000
  HONO-0 :    2 Ag 1.0000000
  LUNO+0 :    3 Ag 0.0002262
  LUNO+1 :    4 Ag 0.0000000
  LUNO+2 :    5 Ag 0.0000000
  LUNO+3 :    2B3u 0.0000000


Computation Completed


Properties will be evaluated at   0.000000,   0.000000,   0.000000 [a0]

Properties computed using the SCF density matrix


 Multipole Moments:

 ------------------------------------------------------------------------------------
     Multipole            Electronic (a.u.)      Nuclear  (a.u.)        Total (a.u.)
 ------------------------------------------------------------------------------------

 L = 1.  Multiply by 2.5417464519 to convert [e a0] to [Debye]
 Dipole X            :          0.0000000            0.0000000            0.0000000
 Dipole Y            :          0.0000000            0.0000000            0.0000000
 Dipole Z            :          0.0000000            0.0000000            0.0000000
 Magnitude           :                                                    0.0000000

 ------------------------------------------------------------------------------------

*** tstop() called on Joses-MacBook-Pro-2.local at Thu Jul 17 09:27:14 2025
Module time:
	user time   =       4.32 seconds =       0.07 minutes
	system time =       3.54 seconds =       0.06 minutes
	total time  =          0 seconds =       0.00 minutes
Total time:
	user time   =      13.21 seconds =       0.22 minutes
	system time =      13.91 seconds =       0.23 minutes
	total time  =          2 seconds =       0.03 minutes

*** tstart() called on Joses-MacBook-Pro-2.local
*** at Thu Jul 17 09:27:14 2025


         ------------------------------------------------------------
                                   SCF GRAD                          
                          Rob Parrish, Justin Turney,                
                       Andy Simmonett, and Alex Sokolov              
         ------------------------------------------------------------

  ==> Geometry <==

    Molecular point group: d2h
    Full point group: D_inf_h

    Geometry (in Angstrom), charge = -1, multiplicity = 6:

       Center              X                  Y                   Z               Mass       
    ------------   -----------------  -----------------  -----------------  -----------------
         LI          -0.000000000000     0.814809625106     0.000000000000     7.016003436600
         LI           0.000000000000    -0.814809625106     0.000000000000     7.016003436600

  Nuclear repulsion =    2.922520027551650

  ==> Basis Set <==

  Basis Set: CC-PVDZ
    Blend: CC-PVDZ
    Number of shells: 12
    Number of basis functions: 28
    Number of Cartesian functions: 30
    Spherical Harmonics?: true
    Max angular momentum: 2

  ==> DFJKGrad: Density-Fitted SCF Gradients <==

    Gradient:                    1
    J tasked:                  Yes
    K tasked:                  Yes
    wK tasked:                  No
    OpenMP threads:              1
    Integrals threads:           1
    Memory [MiB]:              375
    Schwarz Cutoff:          1E-12
    Fitting Condition:       1E-10

   => Auxiliary Basis Set <=

  Basis Set: (CC-PVDZ AUX)
    Blend: DEF2-UNIVERSAL-JKFIT
    Number of shells: 34
    Number of basis functions: 102
    Number of Cartesian functions: 120
    Spherical Harmonics?: true
    Max angular momentum: 3

  ==> DFT Potential <==

   => LibXC <=

    Version 6.2.2
    S. Lehtola, C. Steigemann, M. J.T. Oliveira, and M. A.L. Marques.,  SoftwareX 7, 1–5 (2018) (10.1016/j.softx.2017.11.002)

   => Composite Functional: B3LYP <= 

    B3LYP Hyb-GGA Exchange-Correlation Functional

    P. J. Stephens, F. J. Devlin, C. F. Chabalowski, and M. J. Frisch.,  J. Phys. Chem. 98, 11623 (1994) (10.1021/j100096a001)

    Deriv               =              1
    GGA                 =           TRUE
    Meta                =          FALSE

    Exchange Hybrid     =           TRUE
    MP2 Hybrid          =          FALSE

   => Exchange Functionals <=

    0.0800   Slater exchange
    0.7200         Becke 88

   => Exact (HF) Exchange <=

    0.2000               HF 

   => Correlation Functionals <=

    0.1900   Vosko, Wilk & Nusair (VWN5_RPA)
    0.8100   Lee, Yang & Parr

   => LibXC Density Thresholds  <==

    XC_HYB_GGA_XC_B3LYP:  1.00E-15 

   => Molecular Quadrature <=

    Radial Scheme          =       TREUTLER
    Pruning Scheme         =           NONE
    Nuclear Scheme         =       TREUTLER

    Blocking Scheme        =         OCTREE
    BS radius alpha        =              1
    Pruning alpha          =              1
    Radial Points          =             75
    Spherical Points       =            302
    Total Points           =          44012
    Total Blocks           =            448
    Max Points             =            254
    Max Functions          =             28
    Weights Tolerance      =       1.00E-15


  -Total Gradient:
     Atom            X                  Y                   Z
    ------   -----------------  -----------------  -----------------
       1        0.000000000000    -0.087080213226    -0.000000000000
       2       -0.000000000000     0.087080213226    -0.000000000000


*** tstop() called on Joses-MacBook-Pro-2.local at Thu Jul 17 09:27:14 2025
Module time:
	user time   =       0.54 seconds =       0.01 minutes
	system time =       1.08 seconds =       0.02 minutes
	total time  =          0 seconds =       0.00 minutes
Total time:
	user time   =      13.75 seconds =       0.23 minutes
	system time =      14.99 seconds =       0.25 minutes
	total time  =          2 seconds =       0.03 minutes

    			-----------------------------------------

    			 OPTKING 3.0: for geometry optimizations 

    			     By R.A. King, Bethel University     

    			        with contributions from          

    			    A.V. Copan, J. Cayton, A. Heide      

    			-----------------------------------------

    
	                            ===> Fragment 1 <== 

	 Z (Atomic Numbers)          Masses                          Geom                  
	       3.000000             7.016003         -0.00000000  1.53976704  0.00000000   
	       3.000000             7.016003          0.00000000 -1.53976704  0.00000000   

	 - Coordinate -           - BOHR/RAD -       - ANG/DEG -
	 R(1,2)           =         3.079534           1.629619


	        --- Internal Coordinate Step in ANG or DEG, aJ/ANG or AJ/DEG ---
	-------------------------------------------------------------------------------
	           Coordinate      Previous         Force          Change          New 
	           ----------      --------        ------          ------        ------
	               R(1,2)       1.62962        0.71743        0.25230       1.88192
	-------------------------------------------------------------------------------

	                                 ==> Convergence Check <==                                  
    
	Measures of convergence in internal coordinates in au.
    
	Criteria marked as inactive (o), active & met (*), and active & unmet ( ).

	----------------------------------------------------------------------------------------------
	   Step    Total Energy     Delta E     Max Force     RMS Force      Max Disp      RMS Disp   
	----------------------------------------------------------------------------------------------
	  Convergence Criteria     1.00e-06 *    3.00e-04 *             o    1.20e-03 *             o
	----------------------------------------------------------------------------------------------
	     3     -12.90129042   -7.99e-02      8.71e-02      8.71e-02 o    4.77e-01      4.77e-01 o  ~
	----------------------------------------------------------------------------------------------

Next Geometry in Ang 
	Fragment 1 (Ang)

	   Li  -0.0000000000   0.9409596228   0.0000000000
	   Li   0.0000000000  -0.9409596228   0.0000000000


    Structure for next step:
    Molecular point group: d2h
    Full point group: D_inf_h

    Geometry (in Angstrom), charge = -1, multiplicity = 6:

    LI          -0.000000000000     0.940959622763     0.000000000000
    LI           0.000000000000    -0.940959622763     0.000000000000


Scratch directory: /tmp/
gradient() will perform analytic gradient computation.
   => Libint2 <=

    Primary   basis highest AM E, G, H:  6, 6, 3
    Auxiliary basis highest AM E, G, H:  7, 7, 4
    Onebody   basis highest AM E, G, H:  -, -, -
    Solid Harmonics ordering:            Gaussian

*** tstart() called on Joses-MacBook-Pro-2.local
*** at Thu Jul 17 09:27:14 2025

   => Loading Basis Set <=

    Name: CC-PVDZ
    Role: ORBITAL
    Keyword: BASIS
    atoms 1-2 entry LI         line    42 file /Users/joseantoniorodriguesromero/anaconda3/share/psi4/basis/cc-pvdz.gbs 


         ---------------------------------------------------------
                                   SCF
               by Justin Turney, Rob Parrish, Andy Simmonett
                          and Daniel G. A. Smith
                              UKS Reference
                        1 Threads,    500 MiB Core
         ---------------------------------------------------------

  ==> Geometry <==

    Molecular point group: d2h
    Full point group: D_inf_h

    Geometry (in Angstrom), charge = -1, multiplicity = 6:

       Center              X                  Y                   Z               Mass       
    ------------   -----------------  -----------------  -----------------  -----------------
         LI          -0.000000000000     0.940959622763     0.000000000000     7.016003436600
         LI           0.000000000000    -0.940959622763     0.000000000000     7.016003436600

  Running in d2h symmetry.

  Rotational constants: A = ************  B =      1.35686  C =      1.35686 [cm^-1]
  Rotational constants: A = ************  B =  40677.61061  C =  40677.61061 [MHz]
  Nuclear repulsion =    2.530711616533306

  Charge       = -1
  Multiplicity = 6
  Electrons    = 7
  Nalpha       = 6
  Nbeta        = 1

  ==> Algorithm <==

  SCF Algorithm Type is DF.
  DIIS enabled.
  MOM disabled.
  Fractional occupation disabled.
  Guess Type is READ.
  Energy threshold   = 1.00e-08
  Density threshold  = 1.00e-08
  Integral threshold = 1.00e-12

  ==> Primary Basis <==

  Basis Set: CC-PVDZ
    Blend: CC-PVDZ
    Number of shells: 12
    Number of basis functions: 28
    Number of Cartesian functions: 30
    Spherical Harmonics?: true
    Max angular momentum: 2

  ==> DFT Potential <==

   => LibXC <=

    Version 6.2.2
    S. Lehtola, C. Steigemann, M. J.T. Oliveira, and M. A.L. Marques.,  SoftwareX 7, 1–5 (2018) (10.1016/j.softx.2017.11.002)

   => Composite Functional: B3LYP <= 

    B3LYP Hyb-GGA Exchange-Correlation Functional

    P. J. Stephens, F. J. Devlin, C. F. Chabalowski, and M. J. Frisch.,  J. Phys. Chem. 98, 11623 (1994) (10.1021/j100096a001)

    Deriv               =              1
    GGA                 =           TRUE
    Meta                =          FALSE

    Exchange Hybrid     =           TRUE
    MP2 Hybrid          =          FALSE

   => Exchange Functionals <=

    0.0800   Slater exchange
    0.7200         Becke 88

   => Exact (HF) Exchange <=

    0.2000               HF 

   => Correlation Functionals <=

    0.1900   Vosko, Wilk & Nusair (VWN5_RPA)
    0.8100   Lee, Yang & Parr

   => LibXC Density Thresholds  <==

    XC_HYB_GGA_XC_B3LYP:  1.00E-15 

   => Molecular Quadrature <=

    Radial Scheme          =       TREUTLER
    Pruning Scheme         =           NONE
    Nuclear Scheme         =       TREUTLER

    Blocking Scheme        =         OCTREE
    BS radius alpha        =              1
    Pruning alpha          =              1
    Radial Points          =             75
    Spherical Points       =            302
    Total Points           =          44016
    Total Blocks           =            444
    Max Points             =            256
    Max Functions          =             28
    Weights Tolerance      =       1.00E-15

   => Loading Basis Set <=

    Name: (CC-PVDZ AUX)
    Role: JKFIT
    Keyword: DF_BASIS_SCF
    atoms 1-2 entry LI         line    54 file /Users/joseantoniorodriguesromero/anaconda3/share/psi4/basis/def2-universal-jkfit.gbs 

   => Loading Basis Set <=

    Name: CC-PVDZ
    Role: ORBITAL
    Keyword: BASIS
    atoms 1-2 entry LI         line    42 file /Users/joseantoniorodriguesromero/anaconda3/share/psi4/basis/cc-pvdz.gbs 

  Reading orbitals from file /tmp/sextet_LiLi.default.71919.180.npy, no projection.

  ==> Integral Setup <==

  DFHelper Memory: AOs need 0.001 GiB; user supplied 0.330 GiB. 
  Using in-core AOs.

  ==> MemDFJK: Density-Fitted J/K Matrices <==

    J tasked:                   Yes
    K tasked:                   Yes
    wK tasked:                   No
    OpenMP threads:               1
    Memory [MiB]:               337
    Algorithm:                 Core
    Schwarz Cutoff:           1E-12
    Mask sparsity (%):       0.0000
    Fitting Condition:        1E-10

   => Auxiliary Basis Set <=

  Basis Set: (CC-PVDZ AUX)
    Blend: DEF2-UNIVERSAL-JKFIT
    Number of shells: 34
    Number of basis functions: 102
    Number of Cartesian functions: 120
    Spherical Harmonics?: true
    Max angular momentum: 3

  Cached 100.0% of DFT collocation blocks in 0.036 [GiB].

  Minimum eigenvalue in the overlap matrix is 2.5038521630E-03.
  Reciprocal condition number of the overlap matrix is 6.6402525067E-04.
    Using symmetric orthogonalization.

  ==> Pre-Iterations <==

  SCF Guess: Orbitals guess was supplied from a previous computation.

   -------------------------------------------------------
    Irrep   Nso     Nmo     Nalpha   Nbeta   Ndocc  Nsocc
   -------------------------------------------------------
     Ag         7       7       2       1       1       1
     B1g        3       3       0       0       0       0
     B2g        1       1       0       0       0       0
     B3g        3       3       0       0       0       0
     Au         1       1       0       0       0       0
     B1u        3       3       1       0       0       1
     B2u        7       7       2       0       0       2
     B3u        3       3       1       0       0       1
   -------------------------------------------------------
    Total      28      28       6       1       1       5
   -------------------------------------------------------

  ==> Iterations <==

                           Total Energy        Delta E     RMS |[F,P]|

   @DF-UKS iter   0:   -13.01829481473675   -1.30183e+01   1.06335e-02 
   @DF-UKS iter   1:   -12.92928515295631    8.90097e-02   1.33150e-03 DIIS/ADIIS
   @DF-UKS iter   2:   -12.93012263877680   -8.37486e-04   6.20552e-04 DIIS/ADIIS/DAMP=1%
   @DF-UKS iter   3:   -12.93005471565667    6.79231e-05   3.82617e-05 DIIS/DAMP=1%
   @DF-UKS iter   4:   -12.93028655467224   -2.31839e-04   9.31485e-06 DIIS/DAMP=1%
   @DF-UKS iter   5:   -12.93027150302710    1.50516e-05   1.17631e-06 DIIS/DAMP=1%
   @DF-UKS iter   6:   -12.93027398442320   -2.48140e-06   1.48678e-07 DIIS/DAMP=1%
   @DF-UKS iter   7:   -12.93027353228624    4.52137e-07   1.27972e-08 DIIS/DAMP=1%
   @DF-UKS iter   8:   -12.93027358601774   -5.37315e-08   1.40430e-09 DIIS/DAMP=1%
   @DF-UKS iter   9:   -12.93027358107827    4.93947e-09   2.01708e-10 DIIS/DAMP=1%
  Energy and wave function converged.


  ==> Post-Iterations <==

   Electrons on quadrature grid:
      Nalpha   =    6.0000000132 ; deviation = 1.318e-08
      Nbeta    =    0.9999999789 ; deviation = -2.107e-08
      Ntotal   =    6.9999999921 ; deviation = -7.887e-09 

   @Spin Contamination Metric:   2.603028146E-04
   @S^2 Expected:                8.750000000E+00
   @S^2 Observed:                8.750260303E+00
   @S   Expected:                2.500000000E+00
   @S   Observed:                2.500000000E+00

    Orbital Energies [Eh]
    ---------------------

    Alpha Occupied:                                                       

       1B2u   -2.423518     1Ag    -2.423407     2Ag    -0.095863  
       2B2u    0.018238     1B1u    0.020692     1B3u    0.020692  

    Alpha Virtual:                                                        

       3Ag     0.074288     3B2u    0.118464     1B3g    0.128597  
       1B1g    0.128597     4Ag     0.146056     2B1u    0.150480  
       2B3u    0.150480     5Ag     0.195970     2B1g    0.213928  
       2B3g    0.213928     4B2u    0.268383     6Ag     0.312569  
       1B2g    0.312569     5B2u    0.367582     3B1u    0.393960  
       3B3u    0.393960     1Au     0.436890     6B2u    0.436890  
       7Ag     0.462384     3B1g    0.603542     3B3g    0.603542  
       7B2u    1.731773  

    Beta Occupied:                                                        

       1Ag    -2.129016  

    Beta Virtual:                                                         

       1B2u   -2.066605     2Ag     0.063868     2B2u    0.097688  
       1B3u    0.131748     1B1u    0.131748     3Ag     0.131965  
       3B2u    0.154125     1B3g    0.157362     1B1g    0.157362  
       4Ag     0.184324     2B1u    0.189021     2B3u    0.189021  
       5Ag     0.238979     2B1g    0.273184     2B3g    0.273184  
       4B2u    0.300109     1B2g    0.402276     6Ag     0.402418  
       5B2u    0.437173     3B3u    0.473568     3B1u    0.473568  
       6B2u    0.505643     1Au     0.505784     7Ag     0.525621  
       3B3g    0.661178     3B1g    0.661178     7B2u    1.820684  

    Final Occupation by Irrep:
             Ag   B1g   B2g   B3g    Au   B1u   B2u   B3u 
    DOCC [     1,    0,    0,    0,    0,    0,    0,    0 ]
    SOCC [     1,    0,    0,    0,    0,    1,    2,    1 ]
    NA   [     2,    0,    0,    0,    0,    1,    2,    1 ]
    NB   [     1,    0,    0,    0,    0,    0,    0,    0 ]

  @DF-UKS Final Energy:   -12.93027358107827

   => Energetics <=

    Nuclear Repulsion Energy =              2.5307116165333059
    One-Electron Energy =                 -22.0383348383309396
    Two-Electron Energy =                   9.1688562585389199
    DFT Exchange-Correlation Energy =      -2.5915066178195585
    Empirical Dispersion Energy =           0.0000000000000000
    VV10 Nonlocal Energy =                  0.0000000000000000
    Total Energy =                        -12.9302735810782714

  UHF NO Occupations:
  HONO-2 :    1B1u 1.0000000
  HONO-1 :    2B2u 1.0000000
  HONO-0 :    1B3u 1.0000000
  LUNO+0 :    3 Ag 0.0001302
  LUNO+1 :    2B3u 0.0000000
  LUNO+2 :    3B2u 0.0000000
  LUNO+3 :    4 Ag 0.0000000


Computation Completed


Properties will be evaluated at   0.000000,   0.000000,   0.000000 [a0]

Properties computed using the SCF density matrix


 Multipole Moments:

 ------------------------------------------------------------------------------------
     Multipole            Electronic (a.u.)      Nuclear  (a.u.)        Total (a.u.)
 ------------------------------------------------------------------------------------

 L = 1.  Multiply by 2.5417464519 to convert [e a0] to [Debye]
 Dipole X            :          0.0000000            0.0000000            0.0000000
 Dipole Y            :          0.0000000            0.0000000            0.0000000
 Dipole Z            :          0.0000000            0.0000000            0.0000000
 Magnitude           :                                                    0.0000000

 ------------------------------------------------------------------------------------

*** tstop() called on Joses-MacBook-Pro-2.local at Thu Jul 17 09:27:15 2025
Module time:
	user time   =       3.69 seconds =       0.06 minutes
	system time =       3.34 seconds =       0.06 minutes
	total time  =          1 seconds =       0.02 minutes
Total time:
	user time   =      17.48 seconds =       0.29 minutes
	system time =      18.58 seconds =       0.31 minutes
	total time  =          3 seconds =       0.05 minutes

*** tstart() called on Joses-MacBook-Pro-2.local
*** at Thu Jul 17 09:27:15 2025


         ------------------------------------------------------------
                                   SCF GRAD                          
                          Rob Parrish, Justin Turney,                
                       Andy Simmonett, and Alex Sokolov              
         ------------------------------------------------------------

  ==> Geometry <==

    Molecular point group: d2h
    Full point group: D_inf_h

    Geometry (in Angstrom), charge = -1, multiplicity = 6:

       Center              X                  Y                   Z               Mass       
    ------------   -----------------  -----------------  -----------------  -----------------
         LI          -0.000000000000     0.940959622763     0.000000000000     7.016003436600
         LI           0.000000000000    -0.940959622763     0.000000000000     7.016003436600

  Nuclear repulsion =    2.530711616533306

  ==> Basis Set <==

  Basis Set: CC-PVDZ
    Blend: CC-PVDZ
    Number of shells: 12
    Number of basis functions: 28
    Number of Cartesian functions: 30
    Spherical Harmonics?: true
    Max angular momentum: 2

  ==> DFJKGrad: Density-Fitted SCF Gradients <==

    Gradient:                    1
    J tasked:                  Yes
    K tasked:                  Yes
    wK tasked:                  No
    OpenMP threads:              1
    Integrals threads:           1
    Memory [MiB]:              375
    Schwarz Cutoff:          1E-12
    Fitting Condition:       1E-10

   => Auxiliary Basis Set <=

  Basis Set: (CC-PVDZ AUX)
    Blend: DEF2-UNIVERSAL-JKFIT
    Number of shells: 34
    Number of basis functions: 102
    Number of Cartesian functions: 120
    Spherical Harmonics?: true
    Max angular momentum: 3

  ==> DFT Potential <==

   => LibXC <=

    Version 6.2.2
    S. Lehtola, C. Steigemann, M. J.T. Oliveira, and M. A.L. Marques.,  SoftwareX 7, 1–5 (2018) (10.1016/j.softx.2017.11.002)

   => Composite Functional: B3LYP <= 

    B3LYP Hyb-GGA Exchange-Correlation Functional

    P. J. Stephens, F. J. Devlin, C. F. Chabalowski, and M. J. Frisch.,  J. Phys. Chem. 98, 11623 (1994) (10.1021/j100096a001)

    Deriv               =              1
    GGA                 =           TRUE
    Meta                =          FALSE

    Exchange Hybrid     =           TRUE
    MP2 Hybrid          =          FALSE

   => Exchange Functionals <=

    0.0800   Slater exchange
    0.7200         Becke 88

   => Exact (HF) Exchange <=

    0.2000               HF 

   => Correlation Functionals <=

    0.1900   Vosko, Wilk & Nusair (VWN5_RPA)
    0.8100   Lee, Yang & Parr

   => LibXC Density Thresholds  <==

    XC_HYB_GGA_XC_B3LYP:  1.00E-15 

   => Molecular Quadrature <=

    Radial Scheme          =       TREUTLER
    Pruning Scheme         =           NONE
    Nuclear Scheme         =       TREUTLER

    Blocking Scheme        =         OCTREE
    BS radius alpha        =              1
    Pruning alpha          =              1
    Radial Points          =             75
    Spherical Points       =            302
    Total Points           =          44016
    Total Blocks           =            444
    Max Points             =            256
    Max Functions          =             28
    Weights Tolerance      =       1.00E-15


  -Total Gradient:
     Atom            X                  Y                   Z
    ------   -----------------  -----------------  -----------------
       1        0.000000000000    -0.037079080468     0.000000000000
       2       -0.000000000000     0.037079080468     0.000000000000


*** tstop() called on Joses-MacBook-Pro-2.local at Thu Jul 17 09:27:15 2025
Module time:
	user time   =       0.59 seconds =       0.01 minutes
	system time =       1.18 seconds =       0.02 minutes
	total time  =          0 seconds =       0.00 minutes
Total time:
	user time   =      18.08 seconds =       0.30 minutes
	system time =      19.76 seconds =       0.33 minutes
	total time  =          3 seconds =       0.05 minutes

    			-----------------------------------------

    			 OPTKING 3.0: for geometry optimizations 

    			     By R.A. King, Bethel University     

    			        with contributions from          

    			    A.V. Copan, J. Cayton, A. Heide      

    			-----------------------------------------

    
	                            ===> Fragment 1 <== 

	 Z (Atomic Numbers)          Masses                          Geom                  
	       3.000000             7.016003         -0.00000000  1.77815598  0.00000000   
	       3.000000             7.016003          0.00000000 -1.77815598  0.00000000   

	 - Coordinate -           - BOHR/RAD -       - ANG/DEG -
	 R(1,2)           =         3.556312           1.881919


	        --- Internal Coordinate Step in ANG or DEG, aJ/ANG or AJ/DEG ---
	-------------------------------------------------------------------------------
	           Coordinate      Previous         Force          Change          New 
	           ----------      --------        ------          ------        ------
	               R(1,2)       1.88192        0.30548        0.16820       2.05011
	-------------------------------------------------------------------------------

	                                 ==> Convergence Check <==                                  
    
	Measures of convergence in internal coordinates in au.
    
	Criteria marked as inactive (o), active & met (*), and active & unmet ( ).

	----------------------------------------------------------------------------------------------
	   Step    Total Energy     Delta E     Max Force     RMS Force      Max Disp      RMS Disp   
	----------------------------------------------------------------------------------------------
	  Convergence Criteria     1.00e-06 *    3.00e-04 *             o    1.20e-03 *             o
	----------------------------------------------------------------------------------------------
	     4     -12.93027358   -2.90e-02      3.71e-02      3.71e-02 o    3.18e-01      3.18e-01 o  ~
	----------------------------------------------------------------------------------------------

Next Geometry in Ang 
	Fragment 1 (Ang)

	   Li  -0.0000000000   1.0250573513   0.0000000000
	   Li   0.0000000000  -1.0250573513   0.0000000000


    Structure for next step:
    Molecular point group: d2h
    Full point group: D_inf_h

    Geometry (in Angstrom), charge = -1, multiplicity = 6:

    LI          -0.000000000000     1.025057351305     0.000000000000
    LI           0.000000000000    -1.025057351305     0.000000000000


Scratch directory: /tmp/
gradient() will perform analytic gradient computation.
   => Libint2 <=

    Primary   basis highest AM E, G, H:  6, 6, 3
    Auxiliary basis highest AM E, G, H:  7, 7, 4
    Onebody   basis highest AM E, G, H:  -, -, -
    Solid Harmonics ordering:            Gaussian

*** tstart() called on Joses-MacBook-Pro-2.local
*** at Thu Jul 17 09:27:15 2025

   => Loading Basis Set <=

    Name: CC-PVDZ
    Role: ORBITAL
    Keyword: BASIS
    atoms 1-2 entry LI         line    42 file /Users/joseantoniorodriguesromero/anaconda3/share/psi4/basis/cc-pvdz.gbs 


         ---------------------------------------------------------
                                   SCF
               by Justin Turney, Rob Parrish, Andy Simmonett
                          and Daniel G. A. Smith
                              UKS Reference
                        1 Threads,    500 MiB Core
         ---------------------------------------------------------

  ==> Geometry <==

    Molecular point group: d2h
    Full point group: D_inf_h

    Geometry (in Angstrom), charge = -1, multiplicity = 6:

       Center              X                  Y                   Z               Mass       
    ------------   -----------------  -----------------  -----------------  -----------------
         LI          -0.000000000000     1.025057351305     0.000000000000     7.016003436600
         LI           0.000000000000    -1.025057351305     0.000000000000     7.016003436600

  Running in d2h symmetry.

  Rotational constants: A = ************  B =      1.14335  C =      1.14335 [cm^-1]
  Rotational constants: A = ************  B =  34276.86401  C =  34276.86401 [MHz]
  Nuclear repulsion =    2.323087039942465

  Charge       = -1
  Multiplicity = 6
  Electrons    = 7
  Nalpha       = 6
  Nbeta        = 1

  ==> Algorithm <==

  SCF Algorithm Type is DF.
  DIIS enabled.
  MOM disabled.
  Fractional occupation disabled.
  Guess Type is READ.
  Energy threshold   = 1.00e-08
  Density threshold  = 1.00e-08
  Integral threshold = 1.00e-12

  ==> Primary Basis <==

  Basis Set: CC-PVDZ
    Blend: CC-PVDZ
    Number of shells: 12
    Number of basis functions: 28
    Number of Cartesian functions: 30
    Spherical Harmonics?: true
    Max angular momentum: 2

  ==> DFT Potential <==

   => LibXC <=

    Version 6.2.2
    S. Lehtola, C. Steigemann, M. J.T. Oliveira, and M. A.L. Marques.,  SoftwareX 7, 1–5 (2018) (10.1016/j.softx.2017.11.002)

   => Composite Functional: B3LYP <= 

    B3LYP Hyb-GGA Exchange-Correlation Functional

    P. J. Stephens, F. J. Devlin, C. F. Chabalowski, and M. J. Frisch.,  J. Phys. Chem. 98, 11623 (1994) (10.1021/j100096a001)

    Deriv               =              1
    GGA                 =           TRUE
    Meta                =          FALSE

    Exchange Hybrid     =           TRUE
    MP2 Hybrid          =          FALSE

   => Exchange Functionals <=

    0.0800   Slater exchange
    0.7200         Becke 88

   => Exact (HF) Exchange <=

    0.2000               HF 

   => Correlation Functionals <=

    0.1900   Vosko, Wilk & Nusair (VWN5_RPA)
    0.8100   Lee, Yang & Parr

   => LibXC Density Thresholds  <==

    XC_HYB_GGA_XC_B3LYP:  1.00E-15 

   => Molecular Quadrature <=

    Radial Scheme          =       TREUTLER
    Pruning Scheme         =           NONE
    Nuclear Scheme         =       TREUTLER

    Blocking Scheme        =         OCTREE
    BS radius alpha        =              1
    Pruning alpha          =              1
    Radial Points          =             75
    Spherical Points       =            302
    Total Points           =          44018
[...]
	           ----------      --------        ------          ------        ------
	               R(1,2)       2.17989        0.00188        0.00230       2.18219
	-------------------------------------------------------------------------------

	                                 ==> Convergence Check <==                                  
    
	Measures of convergence in internal coordinates in au.
    
	Criteria marked as inactive (o), active & met (*), and active & unmet ( ).

	----------------------------------------------------------------------------------------------
	   Step    Total Energy     Delta E     Max Force     RMS Force      Max Disp      RMS Disp   
	----------------------------------------------------------------------------------------------
	  Convergence Criteria     1.00e-06 *    3.00e-04 *             o    1.20e-03 *             o
	----------------------------------------------------------------------------------------------
	     8     -12.93957037   -1.60e-05      2.29e-04 *    2.29e-04 o    4.36e-03      4.36e-03 o  ~
	----------------------------------------------------------------------------------------------

Next Geometry in Ang 
	Fragment 1 (Ang)

	   Li  -0.0000000000   1.0910958929   0.0000000000
	   Li   0.0000000000  -1.0910958929   0.0000000000


    Structure for next step:
    Molecular point group: d2h
    Full point group: D_inf_h

    Geometry (in Angstrom), charge = -1, multiplicity = 6:

    LI          -0.000000000000     1.091095892858     0.000000000000
    LI           0.000000000000    -1.091095892858     0.000000000000


Scratch directory: /tmp/
gradient() will perform analytic gradient computation.
   => Libint2 <=

    Primary   basis highest AM E, G, H:  6, 6, 3
    Auxiliary basis highest AM E, G, H:  7, 7, 4
    Onebody   basis highest AM E, G, H:  -, -, -
    Solid Harmonics ordering:            Gaussian

*** tstart() called on Joses-MacBook-Pro-2.local
*** at Thu Jul 17 09:27:19 2025

   => Loading Basis Set <=

    Name: CC-PVDZ
    Role: ORBITAL
    Keyword: BASIS
    atoms 1-2 entry LI         line    42 file /Users/joseantoniorodriguesromero/anaconda3/share/psi4/basis/cc-pvdz.gbs 


         ---------------------------------------------------------
                                   SCF
               by Justin Turney, Rob Parrish, Andy Simmonett
                          and Daniel G. A. Smith
                              UKS Reference
                        1 Threads,    500 MiB Core
         ---------------------------------------------------------

  ==> Geometry <==

    Molecular point group: d2h
    Full point group: D_inf_h

    Geometry (in Angstrom), charge = -1, multiplicity = 6:

       Center              X                  Y                   Z               Mass       
    ------------   -----------------  -----------------  -----------------  -----------------
         LI          -0.000000000000     1.091095892858     0.000000000000     7.016003436600
         LI           0.000000000000    -1.091095892858     0.000000000000     7.016003436600

  Running in d2h symmetry.

  Rotational constants: A = ************  B =      1.00914  C =      1.00914 [cm^-1]
  Rotational constants: A = ************  B =  30253.21743  C =  30253.21743 [MHz]
  Nuclear repulsion =    2.182482276399521

  Charge       = -1
  Multiplicity = 6
  Electrons    = 7
  Nalpha       = 6
  Nbeta        = 1

  ==> Algorithm <==

  SCF Algorithm Type is DF.
  DIIS enabled.
  MOM disabled.
  Fractional occupation disabled.
  Guess Type is READ.
  Energy threshold   = 1.00e-08
  Density threshold  = 1.00e-08
  Integral threshold = 1.00e-12

  ==> Primary Basis <==

  Basis Set: CC-PVDZ
    Blend: CC-PVDZ
    Number of shells: 12
    Number of basis functions: 28
    Number of Cartesian functions: 30
    Spherical Harmonics?: true
    Max angular momentum: 2

  ==> DFT Potential <==

   => LibXC <=

    Version 6.2.2
    S. Lehtola, C. Steigemann, M. J.T. Oliveira, and M. A.L. Marques.,  SoftwareX 7, 1–5 (2018) (10.1016/j.softx.2017.11.002)

   => Composite Functional: B3LYP <= 

    B3LYP Hyb-GGA Exchange-Correlation Functional

    P. J. Stephens, F. J. Devlin, C. F. Chabalowski, and M. J. Frisch.,  J. Phys. Chem. 98, 11623 (1994) (10.1021/j100096a001)

    Deriv               =              1
    GGA                 =           TRUE
    Meta                =          FALSE

    Exchange Hybrid     =           TRUE
    MP2 Hybrid          =          FALSE

   => Exchange Functionals <=

    0.0800   Slater exchange
    0.7200         Becke 88

   => Exact (HF) Exchange <=

    0.2000               HF 

   => Correlation Functionals <=

    0.1900   Vosko, Wilk & Nusair (VWN5_RPA)
    0.8100   Lee, Yang & Parr

   => LibXC Density Thresholds  <==

    XC_HYB_GGA_XC_B3LYP:  1.00E-15 

   => Molecular Quadrature <=

    Radial Scheme          =       TREUTLER
    Pruning Scheme         =           NONE
    Nuclear Scheme         =       TREUTLER

    Blocking Scheme        =         OCTREE
    BS radius alpha        =              1
    Pruning alpha          =              1
    Radial Points          =             75
    Spherical Points       =            302
    Total Points           =          44020
    Total Blocks           =            448
    Max Points             =            255
    Max Functions          =             28
    Weights Tolerance      =       1.00E-15

   => Loading Basis Set <=

    Name: (CC-PVDZ AUX)
    Role: JKFIT
    Keyword: DF_BASIS_SCF
    atoms 1-2 entry LI         line    54 file /Users/joseantoniorodriguesromero/anaconda3/share/psi4/basis/def2-universal-jkfit.gbs 

   => Loading Basis Set <=

    Name: CC-PVDZ
    Role: ORBITAL
    Keyword: BASIS
    atoms 1-2 entry LI         line    42 file /Users/joseantoniorodriguesromero/anaconda3/share/psi4/basis/cc-pvdz.gbs 

  Reading orbitals from file /tmp/sextet_LiLi.default.71919.180.npy, no projection.

  ==> Integral Setup <==

  DFHelper Memory: AOs need 0.001 GiB; user supplied 0.330 GiB. 
  Using in-core AOs.

  ==> MemDFJK: Density-Fitted J/K Matrices <==

    J tasked:                   Yes
    K tasked:                   Yes
    wK tasked:                   No
    OpenMP threads:               1
    Memory [MiB]:               337
    Algorithm:                 Core
    Schwarz Cutoff:           1E-12
    Mask sparsity (%):       0.0000
    Fitting Condition:        1E-10

   => Auxiliary Basis Set <=

  Basis Set: (CC-PVDZ AUX)
    Blend: DEF2-UNIVERSAL-JKFIT
    Number of shells: 34
    Number of basis functions: 102
    Number of Cartesian functions: 120
    Spherical Harmonics?: true
    Max angular momentum: 3

  Cached 100.0% of DFT collocation blocks in 0.036 [GiB].

  Minimum eigenvalue in the overlap matrix is 2.7761311219E-03.
  Reciprocal condition number of the overlap matrix is 7.3193236204E-04.
    Using symmetric orthogonalization.

  ==> Pre-Iterations <==

  SCF Guess: Orbitals guess was supplied from a previous computation.

   -------------------------------------------------------
    Irrep   Nso     Nmo     Nalpha   Nbeta   Ndocc  Nsocc
   -------------------------------------------------------
     Ag         7       7       2       1       1       1
     B1g        3       3       0       0       0       0
     B2g        1       1       0       0       0       0
     B3g        3       3       0       0       0       0
     Au         1       1       0       0       0       0
     B1u        3       3       1       0       0       1
     B2u        7       7       2       0       0       2
     B3u        3       3       1       0       0       1
   -------------------------------------------------------
    Total      28      28       6       1       1       5
   -------------------------------------------------------

  ==> Iterations <==

                           Total Energy        Delta E     RMS |[F,P]|

   @DF-UKS iter   0:   -12.94032039192766   -1.29403e+01   9.30631e-05 
   @DF-UKS iter   1:   -12.93957092650677    7.49465e-04   8.51334e-06 DIIS
   @DF-UKS iter   2:   -12.93957095797874   -3.14720e-08   3.62903e-06 DIIS/DAMP=1%
   @DF-UKS iter   3:   -12.93956970595223    1.25203e-06   3.40818e-07 DIIS/DAMP=1%
   @DF-UKS iter   4:   -12.93957105317604   -1.34722e-06   5.11126e-08 DIIS/DAMP=1%
   @DF-UKS iter   5:   -12.93957095337570    9.98003e-08   9.46697e-09 DIIS/DAMP=1%
   @DF-UKS iter   6:   -12.93957096577396   -1.23983e-08   1.21562e-09 DIIS/DAMP=1%
   @DF-UKS iter   7:   -12.93957096306724    2.70672e-09   1.62997e-10 DIIS/DAMP=1%
  Energy and wave function converged.


  ==> Post-Iterations <==

   Electrons on quadrature grid:
      Nalpha   =    6.0000002373 ; deviation = 2.373e-07
      Nbeta    =    1.0000001157 ; deviation = 1.157e-07
      Ntotal   =    7.0000003530 ; deviation = 3.530e-07 

   @Spin Contamination Metric:   1.247060519E-04
   @S^2 Expected:                8.750000000E+00
   @S^2 Observed:                8.750124706E+00
   @S   Expected:                2.500000000E+00
   @S   Observed:                2.500000000E+00

    Orbital Energies [Eh]
    ---------------------

    Alpha Occupied:                                                       

       1B2u   -2.431787     1Ag    -2.430198     2Ag    -0.092573  
       2B2u    0.009788     1B1u    0.024742     1B3u    0.024742  

    Alpha Virtual:                                                        

       3Ag     0.066800     3B2u    0.117904     1B3g    0.120963  
       1B1g    0.120963     4Ag     0.145753     2B1u    0.152145  
       2B3u    0.152145     5Ag     0.193426     2B3g    0.198038  
       2B1g    0.198038     4B2u    0.265204     6Ag     0.311127  
       1B2g    0.311128     5B2u    0.333838     3B3u    0.370797  
       3B1u    0.370797     6B2u    0.418991     1Au     0.418991  
       7Ag     0.446994     3B3g    0.546396     3B1g    0.546396  
       7B2u    1.445053  

    Beta Occupied:                                                        

       1Ag    -2.138184  

    Beta Virtual:                                                         

       1B2u   -2.088382     2Ag     0.059400     2B2u    0.094323  
       1B3u    0.128117     1B1u    0.128117     3Ag     0.128130  
       3B2u    0.148285     1B1g    0.153748     1B3g    0.153748  
       4Ag     0.180330     2B3u    0.190815     2B1u    0.190815  
       5Ag     0.234139     2B1g    0.252445     2B3g    0.252445  
       4B2u    0.295305     6Ag     0.396898     1B2g    0.397054  
       5B2u    0.398505     3B3u    0.452696     3B1u    0.452696  
       1Au     0.486894     6B2u    0.487275     7Ag     0.506236  
       3B1g    0.606434     3B3g    0.606434     7B2u    1.513415  

    Final Occupation by Irrep:
             Ag   B1g   B2g   B3g    Au   B1u   B2u   B3u 
    DOCC [     1,    0,    0,    0,    0,    0,    0,    0 ]
    SOCC [     1,    0,    0,    0,    0,    1,    2,    1 ]
    NA   [     2,    0,    0,    0,    0,    1,    2,    1 ]
    NB   [     1,    0,    0,    0,    0,    0,    0,    0 ]

  @DF-UKS Final Energy:   -12.93957096306724

   => Energetics <=

    Nuclear Repulsion Energy =              2.1824822763995209
    One-Electron Energy =                 -21.3714100114282388
    Two-Electron Energy =                   8.7958994940157975
    DFT Exchange-Correlation Energy =      -2.5465427220543213
    Empirical Dispersion Energy =           0.0000000000000000
    VV10 Nonlocal Energy =                  0.0000000000000000
    Total Energy =                        -12.9395709630672400

  UHF NO Occupations:
  HONO-2 :    1B2u 1.0000000
  HONO-1 :    2 Ag 1.0000000
  HONO-0 :    2B2u 1.0000000
  LUNO+0 :    3 Ag 0.0000624
  LUNO+1 :    3B2u 0.0000000
  LUNO+2 :    2B3u 0.0000000
  LUNO+3 :    2B1u 0.0000000


Computation Completed


Properties will be evaluated at   0.000000,   0.000000,   0.000000 [a0]

Properties computed using the SCF density matrix


 Multipole Moments:

 ------------------------------------------------------------------------------------
     Multipole            Electronic (a.u.)      Nuclear  (a.u.)        Total (a.u.)
 ------------------------------------------------------------------------------------

 L = 1.  Multiply by 2.5417464519 to convert [e a0] to [Debye]
 Dipole X            :          0.0000000            0.0000000            0.0000000
 Dipole Y            :          0.0000000            0.0000000            0.0000000
 Dipole Z            :          0.0000000            0.0000000            0.0000000
 Magnitude           :                                                    0.0000000

 ------------------------------------------------------------------------------------

*** tstop() called on Joses-MacBook-Pro-2.local at Thu Jul 17 09:27:19 2025
Module time:
	user time   =       2.54 seconds =       0.04 minutes
	system time =       3.17 seconds =       0.05 minutes
	total time  =          0 seconds =       0.00 minutes
Total time:
	user time   =      37.13 seconds =       0.62 minutes
	system time =      41.13 seconds =       0.69 minutes
	total time  =          7 seconds =       0.12 minutes

*** tstart() called on Joses-MacBook-Pro-2.local
*** at Thu Jul 17 09:27:19 2025


         ------------------------------------------------------------
                                   SCF GRAD                          
                          Rob Parrish, Justin Turney,                
                       Andy Simmonett, and Alex Sokolov              
         ------------------------------------------------------------

  ==> Geometry <==

    Molecular point group: d2h
    Full point group: D_inf_h

    Geometry (in Angstrom), charge = -1, multiplicity = 6:

       Center              X                  Y                   Z               Mass       
    ------------   -----------------  -----------------  -----------------  -----------------
         LI          -0.000000000000     1.091095892858     0.000000000000     7.016003436600
         LI           0.000000000000    -1.091095892858     0.000000000000     7.016003436600

  Nuclear repulsion =    2.182482276399521

  ==> Basis Set <==

  Basis Set: CC-PVDZ
    Blend: CC-PVDZ
    Number of shells: 12
    Number of basis functions: 28
    Number of Cartesian functions: 30
    Spherical Harmonics?: true
    Max angular momentum: 2

  ==> DFJKGrad: Density-Fitted SCF Gradients <==

    Gradient:                    1
    J tasked:                  Yes
    K tasked:                  Yes
    wK tasked:                  No
    OpenMP threads:              1
    Integrals threads:           1
    Memory [MiB]:              375
    Schwarz Cutoff:          1E-12
    Fitting Condition:       1E-10

   => Auxiliary Basis Set <=

  Basis Set: (CC-PVDZ AUX)
    Blend: DEF2-UNIVERSAL-JKFIT
    Number of shells: 34
    Number of basis functions: 102
    Number of Cartesian functions: 120
    Spherical Harmonics?: true
    Max angular momentum: 3

  ==> DFT Potential <==

   => LibXC <=

    Version 6.2.2
    S. Lehtola, C. Steigemann, M. J.T. Oliveira, and M. A.L. Marques.,  SoftwareX 7, 1–5 (2018) (10.1016/j.softx.2017.11.002)

   => Composite Functional: B3LYP <= 

    B3LYP Hyb-GGA Exchange-Correlation Functional

    P. J. Stephens, F. J. Devlin, C. F. Chabalowski, and M. J. Frisch.,  J. Phys. Chem. 98, 11623 (1994) (10.1021/j100096a001)

    Deriv               =              1
    GGA                 =           TRUE
    Meta                =          FALSE

    Exchange Hybrid     =           TRUE
    MP2 Hybrid          =          FALSE

   => Exchange Functionals <=

    0.0800   Slater exchange
    0.7200         Becke 88

   => Exact (HF) Exchange <=

    0.2000               HF 

   => Correlation Functionals <=

    0.1900   Vosko, Wilk & Nusair (VWN5_RPA)
    0.8100   Lee, Yang & Parr

   => LibXC Density Thresholds  <==

    XC_HYB_GGA_XC_B3LYP:  1.00E-15 

   => Molecular Quadrature <=

    Radial Scheme          =       TREUTLER
    Pruning Scheme         =           NONE
    Nuclear Scheme         =       TREUTLER

    Blocking Scheme        =         OCTREE
    BS radius alpha        =              1
    Pruning alpha          =              1
    Radial Points          =             75
    Spherical Points       =            302
    Total Points           =          44020
    Total Blocks           =            448
    Max Points             =            255
    Max Functions          =             28
    Weights Tolerance      =       1.00E-15


  -Total Gradient:
     Atom            X                  Y                   Z
    ------   -----------------  -----------------  -----------------
       1        0.000000000000    -0.000044906441     0.000000000000
       2       -0.000000000000     0.000044906441    -0.000000000000


*** tstop() called on Joses-MacBook-Pro-2.local at Thu Jul 17 09:27:19 2025
Module time:
	user time   =       0.36 seconds =       0.01 minutes
	system time =       1.28 seconds =       0.02 minutes
	total time  =          0 seconds =       0.00 minutes
Total time:
	user time   =      37.50 seconds =       0.62 minutes
	system time =      42.41 seconds =       0.71 minutes
	total time  =          7 seconds =       0.12 minutes

    			-----------------------------------------

    			 OPTKING 3.0: for geometry optimizations 

    			     By R.A. King, Bethel University     

    			        with contributions from          

    			    A.V. Copan, J. Cayton, A. Heide      

    			-----------------------------------------

    
	                            ===> Fragment 1 <== 

	 Z (Atomic Numbers)          Masses                          Geom                  
	       3.000000             7.016003         -0.00000000  2.06187241  0.00000000   
	       3.000000             7.016003          0.00000000 -2.06187241  0.00000000   

	 - Coordinate -           - BOHR/RAD -       - ANG/DEG -
	 R(1,2)           =         4.123745           2.182192


	        --- Internal Coordinate Step in ANG or DEG, aJ/ANG or AJ/DEG ---
	-------------------------------------------------------------------------------
	           Coordinate      Previous         Force          Change          New 
	           ----------      --------        ------          ------        ------
	               R(1,2)       2.18219        0.00037        0.00045       2.18265
	-------------------------------------------------------------------------------

	                                 ==> Convergence Check <==                                  
    
	Measures of convergence in internal coordinates in au.
    
	Criteria marked as inactive (o), active & met (*), and active & unmet ( ).

	----------------------------------------------------------------------------------------------
	   Step    Total Energy     Delta E     Max Force     RMS Force      Max Disp      RMS Disp   
	----------------------------------------------------------------------------------------------
	  Convergence Criteria     1.00e-06 *    3.00e-04 *             o    1.20e-03 *             o
	----------------------------------------------------------------------------------------------
	     9     -12.93957096   -5.89e-07 *    4.49e-05 *    4.49e-05 o    8.58e-04 *    8.58e-04 o  ~
	----------------------------------------------------------------------------------------------

Next Geometry in Ang 
	Fragment 1 (Ang)

	   Li  -0.0000000000   1.0913229141   0.0000000000
	   Li   0.0000000000  -1.0913229141   0.0000000000


    Final optimized geometry and variables:
    Molecular point group: d2h
    Full point group: D_inf_h

    Geometry (in Angstrom), charge = -1, multiplicity = 6:

    LI          -0.000000000000     1.091095892858     0.000000000000
    LI           0.000000000000    -1.091095892858     0.000000000000


    Psi4 stopped on: Thursday, 17 July 2025 09:27AM
    Psi4 wall time for execution: 0:00:08.35

*** Psi4 exiting successfully. Buy a developer a beer!
