
    -----------------------------------------------------------------------
          Psi4: An Open-Source Ab Initio Electronic Structure Package
                               Psi4 1.9.1 release

                         Git: Rev {} zzzzzzz 


    D. G. A. Smith, L. A. Burns, A. C. Simmonett, R. M. Parrish,
    M. C. Schieber, R. Galvelis, P. Kraus, H. Kruse, R. Di Remigio,
    A. Alenaizan, A. M. James, S. Lehtola, J. P. Misiewicz, M. Scheurer,
    R. A. Shaw, J. B. Schriber, Y. Xie, Z. L. Glick, D. A. Sirianni,
    J. S. O'Brien, J. M. Waldrop, A. Kumar, E. G. Hohenstein,
    B. P. Pritchard, B. R. Brooks, H. F. Schaefer III, A. Yu. Sokolov,
    K. Patkowski, A. E. DePrince III, U. Bozkaya, R. A. King,
    F. A. Evangelista, J. M. Turney, T. D. Crawford, C. D. Sherrill,
    J. Chem. Phys. 152(18) 184108 (2020). https://doi.org/10.1063/5.0006002

                            Additional Code Authors
    E. T. Seidl, C. L. Janssen, E. F. Valeev, M. L. Leininger,
    J. F. Gonthier, R. M. Richard, H. R. McAlexander, M. Saitow, X. Wang,
    P. Verma, M. H. Lechner, A. Jiang, S. Behnle, A. G. Heide,
    M. F. Herbst, and D. L. Poole

             Previous Authors, Complete List of Code Contributors,
                       and Citations for Specific Modules
    https://github.com/psi4/psi4/blob/master/codemeta.json
    https://github.com/psi4/psi4/graphs/contributors
    http://psicode.org/psi4manual/master/introduction.html#citing-psifour

    -----------------------------------------------------------------------


    Psi4 started on: Thursday, 17 July 2025 10:56AM

    Process ID: 72890
    Host:       Joses-MacBook-Pro-2.local
    PSIDATADIR: /Users/joseantoniorodriguesromero/anaconda3/share/psi4
    Memory:     500.0 MiB
    Threads:    1
    
  ==> Input File <==

--------------------------------------------------------------------------
molecule { 
-1 1
F   0.00000        0.60000        0.00000
Ar   0.00000       -0.60000        0.00000
}

set { 
basis              cc-pvdz
reference          uks
maxiter            500
geom_maxiter       500
DAMPING_PERCENTAGE 1
guess              SAP
}

optimize('b3lyp')
--------------------------------------------------------------------------

Scratch directory: /tmp/
gradient() will perform analytic gradient computation.
   => Libint2 <=

    Primary   basis highest AM E, G, H:  6, 6, 3
    Auxiliary basis highest AM E, G, H:  7, 7, 4
    Onebody   basis highest AM E, G, H:  -, -, -
    Solid Harmonics ordering:            Gaussian

*** tstart() called on Joses-MacBook-Pro-2.local
*** at Thu Jul 17 10:56:27 2025

   => Loading Basis Set <=

    Name: CC-PVDZ
    Role: ORBITAL
    Keyword: BASIS
    atoms 1 entry F          line   228 file /Users/joseantoniorodriguesromero/anaconda3/share/psi4/basis/cc-pvdz.gbs 
    atoms 2 entry AR         line   718 file /Users/joseantoniorodriguesromero/anaconda3/share/psi4/basis/cc-pvdz.gbs 


         ---------------------------------------------------------
                                   SCF
               by Justin Turney, Rob Parrish, Andy Simmonett
                          and Daniel G. A. Smith
                              UKS Reference
                        1 Threads,    500 MiB Core
         ---------------------------------------------------------

  ==> Geometry <==

    Molecular point group: c2v
    Full point group: C_inf_v

    Geometry (in Angstrom), charge = -1, multiplicity = 1:

       Center              X                  Y                   Z               Mass       
    ------------   -----------------  -----------------  -----------------  -----------------
         F            0.000000000000     0.000000000000     0.813334807231    18.998403162730
         AR           0.000000000000     0.000000000000    -0.386665192769    39.962383123700

  Running in c2v symmetry.

  Rotational constants: A = ************  B =      0.90914  C =      0.90914 [cm^-1]
  Rotational constants: A = ************  B =  27255.20765  C =  27255.20765 [MHz]
  Nuclear repulsion =   71.438923440450012

  Charge       = -1
  Multiplicity = 1
  Electrons    = 28
  Nalpha       = 14
  Nbeta        = 14

  ==> Algorithm <==

  SCF Algorithm Type is DF.
  DIIS enabled.
  MOM disabled.
  Fractional occupation disabled.
  Guess Type is SAP.
  Energy threshold   = 1.00e-08
  Density threshold  = 1.00e-08
  Integral threshold = 1.00e-12

  ==> Primary Basis <==

  Basis Set: CC-PVDZ
    Blend: CC-PVDZ
    Number of shells: 14
    Number of basis functions: 32
    Number of Cartesian functions: 34
    Spherical Harmonics?: true
    Max angular momentum: 2

  ==> DFT Potential <==

   => LibXC <=

    Version 6.2.2
    S. Lehtola, C. Steigemann, M. J.T. Oliveira, and M. A.L. Marques.,  SoftwareX 7, 1–5 (2018) (10.1016/j.softx.2017.11.002)

   => Composite Functional: B3LYP <= 

    B3LYP Hyb-GGA Exchange-Correlation Functional

    P. J. Stephens, F. J. Devlin, C. F. Chabalowski, and M. J. Frisch.,  J. Phys. Chem. 98, 11623 (1994) (10.1021/j100096a001)

    Deriv               =              1
    GGA                 =           TRUE
    Meta                =          FALSE

    Exchange Hybrid     =           TRUE
    MP2 Hybrid          =          FALSE

   => Exchange Functionals <=

    0.0800   Slater exchange
    0.7200         Becke 88

   => Exact (HF) Exchange <=

    0.2000               HF 

   => Correlation Functionals <=

    0.1900   Vosko, Wilk & Nusair (VWN5_RPA)
    0.8100   Lee, Yang & Parr

   => LibXC Density Thresholds  <==

    XC_HYB_GGA_XC_B3LYP:  1.00E-15 

   => Molecular Quadrature <=

    Radial Scheme          =       TREUTLER
    Pruning Scheme         =           NONE
    Nuclear Scheme         =       TREUTLER

    Blocking Scheme        =         OCTREE
    BS radius alpha        =              1
    Pruning alpha          =              1
    Radial Points          =             75
    Spherical Points       =            302
    Total Points           =          41203
    Total Blocks           =            365
    Max Points             =            255
    Max Functions          =             32
    Weights Tolerance      =       1.00E-15

   => Loading Basis Set <=

    Name: (CC-PVDZ AUX)
    Role: JKFIT
    Keyword: DF_BASIS_SCF
    atoms 1 entry F          line   271 file /Users/joseantoniorodriguesromero/anaconda3/share/psi4/basis/cc-pvdz-jkfit.gbs 
    atoms 2 entry AR         line   741 file /Users/joseantoniorodriguesromero/anaconda3/share/psi4/basis/cc-pvdz-jkfit.gbs 

  ==> Integral Setup <==

  DFHelper Memory: AOs need 0.002 GiB; user supplied 0.329 GiB. 
  Using in-core AOs.

  ==> MemDFJK: Density-Fitted J/K Matrices <==

    J tasked:                   Yes
    K tasked:                   Yes
    wK tasked:                   No
    OpenMP threads:               1
    Memory [MiB]:               336
    Algorithm:                 Core
    Schwarz Cutoff:           1E-12
    Mask sparsity (%):       0.0000
    Fitting Condition:        1E-10

   => Auxiliary Basis Set <=

  Basis Set: (CC-PVDZ AUX)
    Blend: CC-PVDZ-JKFIT
    Number of shells: 60
    Number of basis functions: 182
    Number of Cartesian functions: 211
    Spherical Harmonics?: true
    Max angular momentum: 3

  Cached 100.0% of DFT collocation blocks in 0.037 [GiB].

  Minimum eigenvalue in the overlap matrix is 2.7055463313E-02.
  Reciprocal condition number of the overlap matrix is 9.3249184948E-03.
    Using symmetric orthogonalization.

  ==> Pre-Iterations <==

  SCF Guess: Superposition of Atomic Potentials (doi:10.1021/acs.jctc.8b01089).

  ==> SAP guess <==

   => Molecular Quadrature <=

    Radial Scheme          =       TREUTLER
    Pruning Scheme         =           NONE
    Nuclear Scheme         =       TREUTLER

    Blocking Scheme        =         OCTREE
    BS radius alpha        =              1
    Pruning alpha          =              1
    Radial Points          =             75
    Spherical Points       =            302
    Total Points           =          41203
    Total Blocks           =            365
    Max Points             =            255
    Max Functions          =             32
    Weights Tolerance      =       1.00E-15

   -------------------------------------------------------
    Irrep   Nso     Nmo     Nalpha   Nbeta   Ndocc  Nsocc
   -------------------------------------------------------
     A1        16      16       8       8       8       0
     A2         2       2       0       0       0       0
     B1         7       7       3       3       3       0
     B2         7       7       3       3       3       0
   -------------------------------------------------------
    Total      32      32      14      14      14       0
   -------------------------------------------------------

  ==> Iterations <==

                           Total Energy        Delta E     RMS |[F,P]|

   @DF-UKS iter   1:  -626.15775262656382   -6.26158e+02   5.01137e-02 DIIS/ADIIS
   @DF-UKS iter   2:  -626.05127818011977    1.06474e-01   6.12475e-02 DIIS/ADIIS/DAMP=1%
   @DF-UKS iter   3:  -626.40673047434495   -3.55452e-01   3.51843e-03 DIIS/ADIIS/DAMP=1%
   @DF-UKS iter   4:  -626.45648062755981   -4.97502e-02   1.68147e-03 DIIS/ADIIS/DAMP=1%
   @DF-UKS iter   5:  -626.46233767399531   -5.85705e-03   2.53586e-04 DIIS/ADIIS/DAMP=1%
   @DF-UKS iter   6:  -626.46119828186295    1.13939e-03   5.60619e-05 DIIS/DAMP=1%
   @DF-UKS iter   7:  -626.46141052256439   -2.12241e-04   1.76826e-06 DIIS/DAMP=1%
   @DF-UKS iter   8:  -626.46145525692566   -4.47344e-05   2.99673e-07 DIIS/DAMP=1%
   @DF-UKS iter   9:  -626.46145623812936   -9.81204e-07   1.67371e-08 DIIS/DAMP=1%
   @DF-UKS iter  10:  -626.46145628451279   -4.63834e-08   2.85279e-09 DIIS/DAMP=1%
   @DF-UKS iter  11:  -626.46145628566705   -1.15426e-09   1.38448e-10 DIIS/DAMP=1%
  Energy and wave function converged.


  ==> Post-Iterations <==

   Electrons on quadrature grid:
      Nalpha   =   13.9999999398 ; deviation = -6.017e-08
      Nbeta    =   13.9999999398 ; deviation = -6.017e-08
      Ntotal   =   27.9999998797 ; deviation = -1.203e-07 

   @Spin Contamination Metric:   3.552713679E-15
   @S^2 Expected:                0.000000000E+00
   @S^2 Observed:                3.552713679E-15
   @S   Expected:                0.000000000E+00
   @S   Observed:                0.000000000E+00

    Orbital Energies [Eh]
    ---------------------

    Alpha Occupied:                                                       

       1A1  -114.842931     2A1   -24.331233     3A1   -10.859223  
       4A1    -8.420324     1B2    -8.404833     1B1    -8.404833  
       5A1    -1.188314     6A1    -0.540618     2B1    -0.304288  
       2B2    -0.304288     7A1    -0.294158     3B1     0.032441  
       3B2     0.032441     8A1     0.335469  

    Alpha Virtual:                                                        

       4B1     0.850182     4B2     0.850182     9A1     0.950452  
      10A1     1.039230     1A2     1.151889    11A1     1.151890  
       5B1     1.234677     5B2     1.234677    12A1     1.254932  
       6B2     1.495059     6B1     1.495059    13A1     1.932753  
      14A1     2.389046     2A2     3.808626    15A1     3.808628  
       7B2     4.052781     7B1     4.052781    16A1     4.756157  

    Beta Occupied:                                                        

       1A1  -114.842931     2A1   -24.331233     3A1   -10.859223  
       4A1    -8.420324     1B1    -8.404833     1B2    -8.404833  
       5A1    -1.188314     6A1    -0.540618     2B1    -0.304288  
       2B2    -0.304288     7A1    -0.294158     3B1     0.032441  
       3B2     0.032441     8A1     0.335469  

    Beta Virtual:                                                         

       4B1     0.850182     4B2     0.850182     9A1     0.950452  
      10A1     1.039230     1A2     1.151889    11A1     1.151890  
       5B1     1.234677     5B2     1.234677    12A1     1.254932  
       6B2     1.495059     6B1     1.495059    13A1     1.932753  
      14A1     2.389046     2A2     3.808626    15A1     3.808628  
       7B2     4.052781     7B1     4.052781    16A1     4.756157  

    Final Occupation by Irrep:
             A1    A2    B1    B2 
    DOCC [     8,    0,    3,    3 ]
    SOCC [     0,    0,    0,    0 ]
    NA   [     8,    0,    3,    3 ]
    NB   [     8,    0,    3,    3 ]

  @DF-UKS Final Energy:  -626.46145628566705

   => Energetics <=

    Nuclear Repulsion Energy =             71.4389234404500115
    One-Electron Energy =               -1016.7044198239209436
    Two-Electron Energy =                 352.6959195044034345
    DFT Exchange-Correlation Energy =     -33.8918794065994646
    Empirical Dispersion Energy =           0.0000000000000000
    VV10 Nonlocal Energy =                  0.0000000000000000
    Total Energy =                       -626.4614562856669409

  UHF NO Occupations:
  HONO-2 :    8 A1 2.0000000
  HONO-1 :    3 B2 2.0000000
  HONO-0 :    3 B1 2.0000000
  LUNO+0 :    9 A1 0.0000000
  LUNO+1 :   10 A1 0.0000000
  LUNO+2 :    4 B1 0.0000000
  LUNO+3 :    4 B2 0.0000000


Computation Completed


Properties will be evaluated at   0.000000,   0.000000,   0.000000 [a0]

Properties computed using the SCF density matrix


 Multipole Moments:

 ------------------------------------------------------------------------------------
     Multipole            Electronic (a.u.)      Nuclear  (a.u.)        Total (a.u.)
 ------------------------------------------------------------------------------------

 L = 1.  Multiply by 2.5417464519 to convert [e a0] to [Debye]
 Dipole X            :          0.0000000            0.0000000            0.0000000
 Dipole Y            :          0.0000000            0.0000000            0.0000000
 Dipole Z            :          0.1677946            0.6803766            0.8481712
 Magnitude           :                                                    0.8481712

 ------------------------------------------------------------------------------------

*** tstop() called on Joses-MacBook-Pro-2.local at Thu Jul 17 10:56:28 2025
Module time:
	user time   =       4.01 seconds =       0.07 minutes
	system time =       4.35 seconds =       0.07 minutes
	total time  =          1 seconds =       0.02 minutes
Total time:
	user time   =       4.01 seconds =       0.07 minutes
	system time =       4.35 seconds =       0.07 minutes
	total time  =          1 seconds =       0.02 minutes

*** tstart() called on Joses-MacBook-Pro-2.local
*** at Thu Jul 17 10:56:28 2025


         ------------------------------------------------------------
                                   SCF GRAD                          
                          Rob Parrish, Justin Turney,                
                       Andy Simmonett, and Alex Sokolov              
         ------------------------------------------------------------

  ==> Geometry <==

    Molecular point group: c2v
    Full point group: C_inf_v

    Geometry (in Angstrom), charge = -1, multiplicity = 1:

       Center              X                  Y                   Z               Mass       
    ------------   -----------------  -----------------  -----------------  -----------------
         F            0.000000000000     0.000000000000     0.813334807231    18.998403162730
         AR           0.000000000000     0.000000000000    -0.386665192769    39.962383123700

  Nuclear repulsion =   71.438923440450012

  ==> Basis Set <==

  Basis Set: CC-PVDZ
    Blend: CC-PVDZ
    Number of shells: 14
    Number of basis functions: 32
    Number of Cartesian functions: 34
    Spherical Harmonics?: true
    Max angular momentum: 2

  ==> DFJKGrad: Density-Fitted SCF Gradients <==

    Gradient:                    1
    J tasked:                  Yes
    K tasked:                  Yes
    wK tasked:                  No
    OpenMP threads:              1
    Integrals threads:           1
    Memory [MiB]:              375
    Schwarz Cutoff:          1E-12
    Fitting Condition:       1E-10

   => Auxiliary Basis Set <=

  Basis Set: (CC-PVDZ AUX)
    Blend: CC-PVDZ-JKFIT
    Number of shells: 60
    Number of basis functions: 182
    Number of Cartesian functions: 211
    Spherical Harmonics?: true
    Max angular momentum: 3

  ==> DFT Potential <==

   => LibXC <=

    Version 6.2.2
    S. Lehtola, C. Steigemann, M. J.T. Oliveira, and M. A.L. Marques.,  SoftwareX 7, 1–5 (2018) (10.1016/j.softx.2017.11.002)

   => Composite Functional: B3LYP <= 

    B3LYP Hyb-GGA Exchange-Correlation Functional

    P. J. Stephens, F. J. Devlin, C. F. Chabalowski, and M. J. Frisch.,  J. Phys. Chem. 98, 11623 (1994) (10.1021/j100096a001)

    Deriv               =              1
    GGA                 =           TRUE
    Meta                =          FALSE

    Exchange Hybrid     =           TRUE
    MP2 Hybrid          =          FALSE

   => Exchange Functionals <=

    0.0800   Slater exchange
    0.7200         Becke 88

   => Exact (HF) Exchange <=

    0.2000               HF 

   => Correlation Functionals <=

    0.1900   Vosko, Wilk & Nusair (VWN5_RPA)
    0.8100   Lee, Yang & Parr

   => LibXC Density Thresholds  <==

    XC_HYB_GGA_XC_B3LYP:  1.00E-15 

   => Molecular Quadrature <=

    Radial Scheme          =       TREUTLER
    Pruning Scheme         =           NONE
    Nuclear Scheme         =       TREUTLER

    Blocking Scheme        =         OCTREE
    BS radius alpha        =              1
    Pruning alpha          =              1
    Radial Points          =             75
    Spherical Points       =            302
    Total Points           =          41203
    Total Blocks           =            365
    Max Points             =            255
    Max Functions          =             32
    Weights Tolerance      =       1.00E-15


  -Total Gradient:
     Atom            X                  Y                   Z
    ------   -----------------  -----------------  -----------------
       1        0.000000000000    -0.000000000000    -1.406151984056
       2       -0.000000000000     0.000000000000     1.406129845906


*** tstop() called on Joses-MacBook-Pro-2.local at Thu Jul 17 10:56:28 2025
Module time:
	user time   =       1.36 seconds =       0.02 minutes
	system time =       1.27 seconds =       0.02 minutes
	total time  =          0 seconds =       0.00 minutes
Total time:
	user time   =       5.37 seconds =       0.09 minutes
	system time =       5.62 seconds =       0.09 minutes
	total time  =          1 seconds =       0.02 minutes

    			-----------------------------------------

    			 OPTKING 3.0: for geometry optimizations 

    			     By R.A. King, Bethel University     

    			        with contributions from          

    			    A.V. Copan, J. Cayton, A. Heide      

    			-----------------------------------------

    
	                            ===> Fragment 1 <== 

	 Z (Atomic Numbers)          Masses                          Geom                  
	       9.000000            18.998403          0.00000000  0.00000000  1.53698003   
	      18.000000            39.962383          0.00000000  0.00000000 -0.73069132   

	 - Coordinate -           - BOHR/RAD -       - ANG/DEG -
	 R(1,2)           =         2.267671           1.200000


	        --- Internal Coordinate Step in ANG or DEG, aJ/ANG or AJ/DEG ---
	-------------------------------------------------------------------------------
	           Coordinate      Previous         Force          Change          New 
	           ----------      --------        ------          ------        ------
	               R(1,2)       1.20000       11.58481        0.16137       1.36137
	-------------------------------------------------------------------------------

	                                 ==> Convergence Check <==                                  
    
	Measures of convergence in internal coordinates in au.
    
	Criteria marked as inactive (o), active & met (*), and active & unmet ( ).

	----------------------------------------------------------------------------------------------
	   Step    Total Energy     Delta E     Max Force     RMS Force      Max Disp      RMS Disp   
	----------------------------------------------------------------------------------------------
	  Convergence Criteria     1.00e-06 *    3.00e-04 *             o    1.20e-03 *             o
	----------------------------------------------------------------------------------------------
	     1    -626.46145629   -6.26e+02      1.41e+00      1.41e+00 o    3.05e-01      3.05e-01 o  ~
	----------------------------------------------------------------------------------------------

Next Geometry in Ang 
	Fragment 1 (Ang)

	    F   0.0000000000   0.0000000000   0.8940216275
	   Ar   0.0000000000   0.0000000000  -0.4673520131


    Structure for next step:
    Molecular point group: c2v
    Full point group: C_inf_v

    Geometry (in Angstrom), charge = -1, multiplicity = 1:

    F            0.000000000000     0.000000000000     0.922710472955
    AR           0.000000000000     0.000000000000    -0.438663167645


Scratch directory: /tmp/
gradient() will perform analytic gradient computation.
   => Libint2 <=

    Primary   basis highest AM E, G, H:  6, 6, 3
    Auxiliary basis highest AM E, G, H:  7, 7, 4
    Onebody   basis highest AM E, G, H:  -, -, -
    Solid Harmonics ordering:            Gaussian

*** tstart() called on Joses-MacBook-Pro-2.local
*** at Thu Jul 17 10:56:28 2025

   => Loading Basis Set <=

    Name: CC-PVDZ
    Role: ORBITAL
    Keyword: BASIS
    atoms 1 entry F          line   228 file /Users/joseantoniorodriguesromero/anaconda3/share/psi4/basis/cc-pvdz.gbs 
    atoms 2 entry AR         line   718 file /Users/joseantoniorodriguesromero/anaconda3/share/psi4/basis/cc-pvdz.gbs 


         ---------------------------------------------------------
                                   SCF
               by Justin Turney, Rob Parrish, Andy Simmonett
                          and Daniel G. A. Smith
                              UKS Reference
                        1 Threads,    500 MiB Core
         ---------------------------------------------------------

  ==> Geometry <==

    Molecular point group: c2v
    Full point group: C_inf_v

    Geometry (in Angstrom), charge = -1, multiplicity = 1:

       Center              X                  Y                   Z               Mass       
    ------------   -----------------  -----------------  -----------------  -----------------
         F            0.000000000000     0.000000000000     0.922710472955    18.998403162730
         AR           0.000000000000     0.000000000000    -0.438663167645    39.962383123700

  Running in c2v symmetry.

  Rotational constants: A = ************  B =      0.70638  C =      0.70638 [cm^-1]
  Rotational constants: A = ************  B =  21176.65261  C =  21176.65261 [MHz]
  Nuclear repulsion =   62.970741883026029

  Charge       = -1
  Multiplicity = 1
  Electrons    = 28
  Nalpha       = 14
  Nbeta        = 14

  ==> Algorithm <==

  SCF Algorithm Type is DF.
  DIIS enabled.
  MOM disabled.
  Fractional occupation disabled.
  Guess Type is READ.
  Energy threshold   = 1.00e-08
  Density threshold  = 1.00e-08
  Integral threshold = 1.00e-12

  ==> Primary Basis <==

  Basis Set: CC-PVDZ
    Blend: CC-PVDZ
    Number of shells: 14
    Number of basis functions: 32
    Number of Cartesian functions: 34
    Spherical Harmonics?: true
    Max angular momentum: 2

  ==> DFT Potential <==

   => LibXC <=

    Version 6.2.2
    S. Lehtola, C. Steigemann, M. J.T. Oliveira, and M. A.L. Marques.,  SoftwareX 7, 1–5 (2018) (10.1016/j.softx.2017.11.002)

   => Composite Functional: B3LYP <= 

    B3LYP Hyb-GGA Exchange-Correlation Functional

    P. J. Stephens, F. J. Devlin, C. F. Chabalowski, and M. J. Frisch.,  J. Phys. Chem. 98, 11623 (1994) (10.1021/j100096a001)

    Deriv               =              1
    GGA                 =           TRUE
    Meta                =          FALSE

    Exchange Hybrid     =           TRUE
    MP2 Hybrid          =          FALSE

   => Exchange Functionals <=

    0.0800   Slater exchange
    0.7200         Becke 88

   => Exact (HF) Exchange <=

    0.2000               HF 

   => Correlation Functionals <=

    0.1900   Vosko, Wilk & Nusair (VWN5_RPA)
    0.8100   Lee, Yang & Parr

   => LibXC Density Thresholds  <==

    XC_HYB_GGA_XC_B3LYP:  1.00E-15 

   => Molecular Quadrature <=

    Radial Scheme          =       TREUTLER
    Pruning Scheme         =           NONE
    Nuclear Scheme         =       TREUTLER

    Blocking Scheme        =         OCTREE
    BS radius alpha        =              1
    Pruning alpha          =              1
    Radial Points          =             75
    Spherical Points       =            302
    Total Points           =          41254
    Total Blocks           =            368
    Max Points             =            254
    Max Functions          =             32
    Weights Tolerance      =       1.00E-15

   => Loading Basis Set <=

    Name: (CC-PVDZ AUX)
    Role: JKFIT
    Keyword: DF_BASIS_SCF
    atoms 1 entry F          line   271 file /Users/joseantoniorodriguesromero/anaconda3/share/psi4/basis/cc-pvdz-jkfit.gbs 
    atoms 2 entry AR         line   741 file /Users/joseantoniorodriguesromero/anaconda3/share/psi4/basis/cc-pvdz-jkfit.gbs 

   => Loading Basis Set <=

    Name: CC-PVDZ
    Role: ORBITAL
    Keyword: BASIS
    atoms 1 entry F          line   228 file /Users/joseantoniorodriguesromero/anaconda3/share/psi4/basis/cc-pvdz.gbs 
    atoms 2 entry AR         line   718 file /Users/joseantoniorodriguesromero/anaconda3/share/psi4/basis/cc-pvdz.gbs 

  Reading orbitals from file /tmp/singlet_FAr.default.72890.180.npy, no projection.

  ==> Integral Setup <==

  DFHelper Memory: AOs need 0.002 GiB; user supplied 0.329 GiB. 
  Using in-core AOs.

  ==> MemDFJK: Density-Fitted J/K Matrices <==

    J tasked:                   Yes
    K tasked:                   Yes
    wK tasked:                   No
    OpenMP threads:               1
    Memory [MiB]:               336
    Algorithm:                 Core
    Schwarz Cutoff:           1E-12
    Mask sparsity (%):       0.0000
    Fitting Condition:        1E-10

   => Auxiliary Basis Set <=

  Basis Set: (CC-PVDZ AUX)
    Blend: CC-PVDZ-JKFIT
    Number of shells: 60
    Number of basis functions: 182
    Number of Cartesian functions: 211
    Spherical Harmonics?: true
    Max angular momentum: 3

  Cached 100.0% of DFT collocation blocks in 0.037 [GiB].

  Minimum eigenvalue in the overlap matrix is 3.6305748841E-02.
  Reciprocal condition number of the overlap matrix is 1.3186598846E-02.
    Using symmetric orthogonalization.

  ==> Pre-Iterations <==

  SCF Guess: Orbitals guess was supplied from a previous computation.

   -------------------------------------------------------
    Irrep   Nso     Nmo     Nalpha   Nbeta   Ndocc  Nsocc
   -------------------------------------------------------
     A1        16      16       8       8       8       0
     A2         2       2       0       0       0       0
     B1         7       7       3       3       3       0
     B2         7       7       3       3       3       0
   -------------------------------------------------------
    Total      32      32      14      14      14       0
   -------------------------------------------------------

  ==> Iterations <==

                           Total Energy        Delta E     RMS |[F,P]|

   @DF-UKS iter   0:  -626.73735494165351   -6.26737e+02   1.20895e-01 
   @DF-UKS iter   1:  -626.77084113144804   -3.34862e-02   1.36029e-02 DIIS/ADIIS
   @DF-UKS iter   2:  -626.77693111769577   -6.08999e-03   1.25907e-02 DIIS/ADIIS/DAMP=1%
   @DF-UKS iter   3:  -626.81695908085021   -4.00280e-02   1.06990e-03 DIIS/ADIIS/DAMP=1%
   @DF-UKS iter   4:  -626.80095518760129    1.60039e-02   4.28105e-04 DIIS/ADIIS/DAMP=1%
   @DF-UKS iter   5:  -626.80140905640133   -4.53869e-04   4.69066e-05 DIIS/DAMP=1%
   @DF-UKS iter   6:  -626.80129713300028    1.11923e-04   9.48819e-06 DIIS/DAMP=1%
   @DF-UKS iter   7:  -626.80127443856134    2.26944e-05   6.30134e-07 DIIS/DAMP=1%
   @DF-UKS iter   8:  -626.80126431027350    1.01283e-05   9.70765e-08 DIIS/DAMP=1%
   @DF-UKS iter   9:  -626.80126441765947   -1.07386e-07   3.03190e-09 DIIS/DAMP=1%
   @DF-UKS iter  10:  -626.80126435016700    6.74925e-08   3.60189e-10 DIIS/DAMP=1%
   @DF-UKS iter  11:  -626.80126434699014    3.17686e-09   2.39869e-11 DIIS/DAMP=1%
  Energy and wave function converged.


  ==> Post-Iterations <==

   Electrons on quadrature grid:
      Nalpha   =   14.0000037867 ; deviation = 3.787e-06
      Nbeta    =   14.0000037867 ; deviation = 3.787e-06
      Ntotal   =   28.0000075734 ; deviation = 7.573e-06 

   @Spin Contamination Metric:   0.000000000E+00
   @S^2 Expected:                0.000000000E+00
   @S^2 Observed:                0.000000000E+00
   @S   Expected:                0.000000000E+00
   @S   Observed:                0.000000000E+00

    Orbital Energies [Eh]
    ---------------------

    Alpha Occupied:                                                       

       1A1  -114.796101     2A1   -24.238961     3A1   -10.820403  
       4A1    -8.376833     1B1    -8.368206     1B2    -8.368206  
       5A1    -0.976488     6A1    -0.548388     7A1    -0.224571  
       2B2    -0.193660     2B1    -0.193660     3B2     0.033012  
       3B1     0.033012     8A1     0.278084  

    Alpha Virtual:                                                        

       4B1     0.866415     4B2     0.866415     9A1     0.880129  
      10A1     1.032789    11A1     1.161378     1A2     1.161379  
       5B2     1.182831     5B1     1.182831    12A1     1.367981  
       6B2     1.577990     6B1     1.577990    13A1     1.724325  
      14A1     2.444961    15A1     3.916041     2A2     3.916079  
       7B2     4.023935     7B1     4.023935    16A1     4.555741  

    Beta Occupied:                                                        

       1A1  -114.796101     2A1   -24.238961     3A1   -10.820403  
       4A1    -8.376833     1B1    -8.368206     1B2    -8.368206  
       5A1    -0.976488     6A1    -0.548388     7A1    -0.224571  
       2B2    -0.193660     2B1    -0.193660     3B2     0.033012  
       3B1     0.033012     8A1     0.278084  

    Beta Virtual:                                                         

       4B1     0.866415     4B2     0.866415     9A1     0.880129  
      10A1     1.032789    11A1     1.161378     1A2     1.161379  
       5B2     1.182831     5B1     1.182831    12A1     1.367981  
       6B2     1.577990     6B1     1.577990    13A1     1.724325  
      14A1     2.444961    15A1     3.916041     2A2     3.916079  
       7B2     4.023935     7B1     4.023935    16A1     4.555741  

    Final Occupation by Irrep:
             A1    A2    B1    B2 
    DOCC [     8,    0,    3,    3 ]
    SOCC [     0,    0,    0,    0 ]
    NA   [     8,    0,    3,    3 ]
    NB   [     8,    0,    3,    3 ]

  @DF-UKS Final Energy:  -626.80126434699014

   => Energetics <=

    Nuclear Repulsion Energy =             62.9707418830260295
    One-Electron Energy =               -1001.9520257875597053
    Two-Electron Energy =                 346.0134568797143970
    DFT Exchange-Correlation Energy =     -33.8334373221707949
    Empirical Dispersion Energy =           0.0000000000000000
    VV10 Nonlocal Energy =                  0.0000000000000000
    Total Energy =                       -626.8012643469901377

  UHF NO Occupations:
  HONO-2 :    6 A1 2.0000000
  HONO-1 :    7 A1 2.0000000
  HONO-0 :    8 A1 2.0000000
  LUNO+0 :    9 A1 0.0000000
  LUNO+1 :   10 A1 0.0000000
  LUNO+2 :    4 B1 0.0000000
  LUNO+3 :    5 B1 0.0000000


Computation Completed


Properties will be evaluated at   0.000000,   0.000000,   0.000000 [a0]

Properties computed using the SCF density matrix


 Multipole Moments:

 ------------------------------------------------------------------------------------
     Multipole            Electronic (a.u.)      Nuclear  (a.u.)        Total (a.u.)
 ------------------------------------------------------------------------------------

 L = 1.  Multiply by 2.5417464519 to convert [e a0] to [Debye]
 Dipole X            :          0.0000000            0.0000000            0.0000000
 Dipole Y            :          0.0000000            0.0000000            0.0000000
 Dipole Z            :         -0.6689520            0.7718723            0.1029204
 Magnitude           :                                                    0.1029204

 ------------------------------------------------------------------------------------

*** tstop() called on Joses-MacBook-Pro-2.local at Thu Jul 17 10:56:29 2025
Module time:
	user time   =       3.78 seconds =       0.06 minutes
	system time =       5.11 seconds =       0.09 minutes
	total time  =          1 seconds =       0.02 minutes
Total time:
	user time   =       9.20 seconds =       0.15 minutes
	system time =      11.02 seconds =       0.18 minutes
	total time  =          2 seconds =       0.03 minutes

*** tstart() called on Joses-MacBook-Pro-2.local
*** at Thu Jul 17 10:56:29 2025


         ------------------------------------------------------------
                                   SCF GRAD                          
                          Rob Parrish, Justin Turney,                
                       Andy Simmonett, and Alex Sokolov              
         ------------------------------------------------------------

  ==> Geometry <==

    Molecular point group: c2v
    Full point group: C_inf_v

    Geometry (in Angstrom), charge = -1, multiplicity = 1:

       Center              X                  Y                   Z               Mass       
    ------------   -----------------  -----------------  -----------------  -----------------
         F            0.000000000000     0.000000000000     0.922710472955    18.998403162730
         AR           0.000000000000     0.000000000000    -0.438663167645    39.962383123700

  Nuclear repulsion =   62.970741883026029

  ==> Basis Set <==

  Basis Set: CC-PVDZ
    Blend: CC-PVDZ
    Number of shells: 14
    Number of basis functions: 32
    Number of Cartesian functions: 34
    Spherical Harmonics?: true
    Max angular momentum: 2

  ==> DFJKGrad: Density-Fitted SCF Gradients <==

    Gradient:                    1
    J tasked:                  Yes
    K tasked:                  Yes
    wK tasked:                  No
    OpenMP threads:              1
    Integrals threads:           1
    Memory [MiB]:              375
    Schwarz Cutoff:          1E-12
    Fitting Condition:       1E-10

   => Auxiliary Basis Set <=

  Basis Set: (CC-PVDZ AUX)
    Blend: CC-PVDZ-JKFIT
    Number of shells: 60
    Number of basis functions: 182
    Number of Cartesian functions: 211
    Spherical Harmonics?: true
    Max angular momentum: 3

  ==> DFT Potential <==

   => LibXC <=

    Version 6.2.2
    S. Lehtola, C. Steigemann, M. J.T. Oliveira, and M. A.L. Marques.,  SoftwareX 7, 1–5 (2018) (10.1016/j.softx.2017.11.002)

   => Composite Functional: B3LYP <= 

    B3LYP Hyb-GGA Exchange-Correlation Functional

    P. J. Stephens, F. J. Devlin, C. F. Chabalowski, and M. J. Frisch.,  J. Phys. Chem. 98, 11623 (1994) (10.1021/j100096a001)

    Deriv               =              1
    GGA                 =           TRUE
    Meta                =          FALSE

    Exchange Hybrid     =           TRUE
    MP2 Hybrid          =          FALSE

   => Exchange Functionals <=

    0.0800   Slater exchange
    0.7200         Becke 88

   => Exact (HF) Exchange <=

    0.2000               HF 

   => Correlation Functionals <=

    0.1900   Vosko, Wilk & Nusair (VWN5_RPA)
    0.8100   Lee, Yang & Parr

   => LibXC Density Thresholds  <==

    XC_HYB_GGA_XC_B3LYP:  1.00E-15 

   => Molecular Quadrature <=

    Radial Scheme          =       TREUTLER
    Pruning Scheme         =           NONE
    Nuclear Scheme         =       TREUTLER

    Blocking Scheme        =         OCTREE
    BS radius alpha        =              1
    Pruning alpha          =              1
    Radial Points          =             75
    Spherical Points       =            302
    Total Points           =          41254
    Total Blocks           =            368
    Max Points             =            254
    Max Functions          =             32
    Weights Tolerance      =       1.00E-15


  -Total Gradient:
     Atom            X                  Y                   Z
    ------   -----------------  -----------------  -----------------
       1       -0.000000000000    -0.000000000000    -0.879417463341
       2        0.000000000000     0.000000000000     0.879359756115


*** tstop() called on Joses-MacBook-Pro-2.local at Thu Jul 17 10:56:30 2025
Module time:
	user time   =       0.52 seconds =       0.01 minutes
	system time =       1.81 seconds =       0.03 minutes
	total time  =          1 seconds =       0.02 minutes
Total time:
	user time   =       9.72 seconds =       0.16 minutes
	system time =      12.84 seconds =       0.21 minutes
	total time  =          3 seconds =       0.05 minutes

    			-----------------------------------------

    			 OPTKING 3.0: for geometry optimizations 

    			     By R.A. King, Bethel University     

    			        with contributions from          

    			    A.V. Copan, J. Cayton, A. Heide      

    			-----------------------------------------

    
	                            ===> Fragment 1 <== 

	 Z (Atomic Numbers)          Masses                          Geom                  
	       9.000000            18.998403          0.00000000  0.00000000  1.74367009   
	      18.000000            39.962383          0.00000000  0.00000000 -0.82895325   

	 - Coordinate -           - BOHR/RAD -       - ANG/DEG -
	 R(1,2)           =         2.572623           1.361374


	        --- Internal Coordinate Step in ANG or DEG, aJ/ANG or AJ/DEG ---
	-------------------------------------------------------------------------------
	           Coordinate      Previous         Force          Change          New 
	           ----------      --------        ------          ------        ------
	               R(1,2)       1.36137        7.24504        0.19295       1.55433
	-------------------------------------------------------------------------------

	                                 ==> Convergence Check <==                                  
    
	Measures of convergence in internal coordinates in au.
    
	Criteria marked as inactive (o), active & met (*), and active & unmet ( ).

	----------------------------------------------------------------------------------------------
	   Step    Total Energy     Delta E     Max Force     RMS Force      Max Disp      RMS Disp   
	----------------------------------------------------------------------------------------------
	  Convergence Criteria     1.00e-06 *    3.00e-04 *             o    1.20e-03 *             o
	----------------------------------------------------------------------------------------------
	     2    -626.80126435   -3.40e-01      8.79e-01      8.79e-01 o    3.65e-01      3.65e-01 o  ~
	----------------------------------------------------------------------------------------------

Next Geometry in Ang 
	Fragment 1 (Ang)

	    F   0.0000000000   0.0000000000   1.0191862827
	   Ar   0.0000000000   0.0000000000  -0.5351389774


    Structure for next step:
    Molecular point group: c2v
    Full point group: C_inf_v

    Geometry (in Angstrom), charge = -1, multiplicity = 1:

    F            0.000000000000     0.000000000000     1.053489029792
    AR           0.000000000000     0.000000000000    -0.500836230251


Scratch directory: /tmp/
gradient() will perform analytic gradient computation.
   => Libint2 <=

    Primary   basis highest AM E, G, H:  6, 6, 3
    Auxiliary basis highest AM E, G, H:  7, 7, 4
    Onebody   basis highest AM E, G, H:  -, -, -
    Solid Harmonics ordering:            Gaussian

*** tstart() called on Joses-MacBook-Pro-2.local
*** at Thu Jul 17 10:56:30 2025

   => Loading Basis Set <=

    Name: CC-PVDZ
    Role: ORBITAL
    Keyword: BASIS
    atoms 1 entry F          line   228 file /Users/joseantoniorodriguesromero/anaconda3/share/psi4/basis/cc-pvdz.gbs 
    atoms 2 entry AR         line   718 file /Users/joseantoniorodriguesromero/anaconda3/share/psi4/basis/cc-pvdz.gbs 


         ---------------------------------------------------------
                                   SCF
               by Justin Turney, Rob Parrish, Andy Simmonett
                          and Daniel G. A. Smith
                              UKS Reference
                        1 Threads,    500 MiB Core
         ---------------------------------------------------------

  ==> Geometry <==

    Molecular point group: c2v
    Full point group: C_inf_v

    Geometry (in Angstrom), charge = -1, multiplicity = 1:

       Center              X                  Y                   Z               Mass       
    ------------   -----------------  -----------------  -----------------  -----------------
         F            0.000000000000     0.000000000000     1.053489029792    18.998403162730
         AR           0.000000000000     0.000000000000    -0.500836230251    39.962383123700

  Running in c2v symmetry.

  Rotational constants: A = ************  B =      0.54189  C =      0.54189 [cm^-1]
  Rotational constants: A = ************  B =  16245.31651  C =  16245.31651 [MHz]
  Nuclear repulsion =   55.153647909036572

  Charge       = -1
  Multiplicity = 1
  Electrons    = 28
  Nalpha       = 14
  Nbeta        = 14

  ==> Algorithm <==

  SCF Algorithm Type is DF.
  DIIS enabled.
  MOM disabled.
  Fractional occupation disabled.
  Guess Type is READ.
  Energy threshold   = 1.00e-08
  Density threshold  = 1.00e-08
  Integral threshold = 1.00e-12

  ==> Primary Basis <==

  Basis Set: CC-PVDZ
    Blend: CC-PVDZ
    Number of shells: 14
    Number of basis functions: 32
    Number of Cartesian functions: 34
    Spherical Harmonics?: true
    Max angular momentum: 2

  ==> DFT Potential <==

   => LibXC <=

    Version 6.2.2
    S. Lehtola, C. Steigemann, M. J.T. Oliveira, and M. A.L. Marques.,  SoftwareX 7, 1–5 (2018) (10.1016/j.softx.2017.11.002)

   => Composite Functional: B3LYP <= 

    B3LYP Hyb-GGA Exchange-Correlation Functional

    P. J. Stephens, F. J. Devlin, C. F. Chabalowski, and M. J. Frisch.,  J. Phys. Chem. 98, 11623 (1994) (10.1021/j100096a001)

    Deriv               =              1
    GGA                 =           TRUE
    Meta                =          FALSE

    Exchange Hybrid     =           TRUE
    MP2 Hybrid          =          FALSE

   => Exchange Functionals <=

    0.0800   Slater exchange
    0.7200         Becke 88

   => Exact (HF) Exchange <=

    0.2000               HF 

   => Correlation Functionals <=

    0.1900   Vosko, Wilk & Nusair (VWN5_RPA)
    0.8100   Lee, Yang & Parr

   => LibXC Density Thresholds  <==

    XC_HYB_GGA_XC_B3LYP:  1.00E-15 

   => Molecular Quadrature <=

    Radial Scheme          =       TREUTLER
    Pruning Scheme         =           NONE
    Nuclear Scheme         =       TREUTLER

    Blocking Scheme        =         OCTREE
    BS radius alpha        =              1
    Pruning alpha          =              1
    Radial Points          =             75
    Spherical Points       =            302
    Total Points           =          41302
    Total Blocks           =            366
    Max Points             =            256
    Max Functions          =             32
    Weights Tolerance      =       1.00E-15

   => Loading Basis Set <=

    Name: (CC-PVDZ AUX)
    Role: JKFIT
    Keyword: DF_BASIS_SCF
    atoms 1 entry F          line   271 file /Users/joseantoniorodriguesromero/anaconda3/share/psi4/basis/cc-pvdz-jkfit.gbs 
    atoms 2 entry AR         line   741 file /Users/joseantoniorodriguesromero/anaconda3/share/psi4/basis/cc-pvdz-jkfit.gbs 

   => Loading Basis Set <=

    Name: CC-PVDZ
    Role: ORBITAL
    Keyword: BASIS
    atoms 1 entry F          line   228 file /Users/joseantoniorodriguesromero/anaconda3/share/psi4/basis/cc-pvdz.gbs 
    atoms 2 entry AR         line   718 file /Users/joseantoniorodriguesromero/anaconda3/share/psi4/basis/cc-pvdz.gbs 

  Reading orbitals from file /tmp/singlet_FAr.default.72890.180.npy, no projection.

  ==> Integral Setup <==

  DFHelper Memory: AOs need 0.002 GiB; user supplied 0.329 GiB. 
  Using in-core AOs.

  ==> MemDFJK: Density-Fitted J/K Matrices <==

    J tasked:                   Yes
    K tasked:                   Yes
    wK tasked:                   No
    OpenMP threads:               1
    Memory [MiB]:               336
    Algorithm:                 Core
    Schwarz Cutoff:           1E-12
    Mask sparsity (%):       0.0000
    Fitting Condition:        1E-10

   => Auxiliary Basis Set <=

  Basis Set: (CC-PVDZ AUX)
    Blend: CC-PVDZ-JKFIT
    Number of shells: 60
    Number of basis functions: 182
    Number of Cartesian functions: 211
    Spherical Harmonics?: true
    Max angular momentum: 3

  Cached 100.0% of DFT collocation blocks in 0.037 [GiB].

  Minimum eigenvalue in the overlap matrix is 4.9562749867E-02.
  Reciprocal condition number of the overlap matrix is 1.9328204699E-02.
    Using symmetric orthogonalization.

  ==> Pre-Iterations <==

  SCF Guess: Orbitals guess was supplied from a previous computation.

   -------------------------------------------------------
    Irrep   Nso     Nmo     Nalpha   Nbeta   Ndocc  Nsocc
   -------------------------------------------------------
     A1        16      16       8       8       8       0
     A2         2       2       0       0       0       0
     B1         7       7       3       3       3       0
     B2         7       7       3       3       3       0
   -------------------------------------------------------
    Total      32      32      14      14      14       0
   -------------------------------------------------------

  ==> Iterations <==

                           Total Energy        Delta E     RMS |[F,P]|

   @DF-UKS iter   0:  -626.98463610809677   -6.26985e+02   9.73337e-02 
   @DF-UKS iter   1:  -627.01524960038682   -3.06135e-02   1.47763e-02 DIIS/ADIIS
   @DF-UKS iter   2:  -627.02362894258738   -8.37934e-03   1.30955e-02 DIIS/ADIIS/DAMP=1%
   @DF-UKS iter   3:  -627.06349700666249   -3.98681e-02   1.65872e-03 DIIS/ADIIS/DAMP=1%
   @DF-UKS iter   4:  -627.04790949878316    1.55875e-02   3.36342e-04 DIIS/ADIIS/DAMP=1%
   @DF-UKS iter   5:  -627.04815347435010   -2.43976e-04   3.59012e-05 DIIS/DAMP=1%
   @DF-UKS iter   6:  -627.04819356694895   -4.00926e-05   6.23028e-06 DIIS/DAMP=1%
   @DF-UKS iter   7:  -627.04816775692075    2.58100e-05   1.05763e-06 DIIS/DAMP=1%
   @DF-UKS iter   8:  -627.04816346692166    4.29000e-06   7.20901e-08 DIIS/DAMP=1%
   @DF-UKS iter   9:  -627.04816344595770    2.09640e-08   3.64908e-09 DIIS/DAMP=1%
   @DF-UKS iter  10:  -627.04816338907744    5.68803e-08   3.61120e-10 DIIS/DAMP=1%
   @DF-UKS iter  11:  -627.04816338899184    8.56062e-11   1.92332e-11 DIIS/DAMP=1%
  Energy and wave function converged.


  ==> Post-Iterations <==

   Electrons on quadrature grid:
      Nalpha   =   14.0000007937 ; deviation = 7.937e-07
      Nbeta    =   14.0000007937 ; deviation = 7.937e-07
      Ntotal   =   28.0000015874 ; deviation = 1.587e-06 

   @Spin Contamination Metric:   0.000000000E+00
   @S^2 Expected:                0.000000000E+00
   @S^2 Observed:                0.000000000E+00
   @S   Expected:                0.000000000E+00
   @S   Observed:                0.000000000E+00

    Orbital Energies [Eh]
    ---------------------

    Alpha Occupied:                                                       

       1A1  -114.783501     2A1   -24.166419     3A1   -10.815054  
       4A1    -8.367134     1B2    -8.364235     1B1    -8.364235  
       5A1    -0.811879     6A1    -0.574611     7A1    -0.166518  
       2B2    -0.142649     2B1    -0.142649     3B1     0.059516  
       3B2     0.059516     8A1     0.213003  

    Alpha Virtual:                                                        

       9A1     0.840753     4B1     0.866073     4B2     0.866073  
      10A1     1.026378     5B1     1.142767     5B2     1.142767  
       1A2     1.148996    11A1     1.148996    12A1     1.394300  
       6B1     1.630084     6B2     1.630084    13A1     1.649013  
      14A1     2.476669     2A2     4.012561    15A1     4.012562  
       7B1     4.041204     7B2     4.041204    16A1     4.339069  

    Beta Occupied:                                                        

       1A1  -114.783501     2A1   -24.166419     3A1   -10.815054  
       4A1    -8.367134     1B2    -8.364235     1B1    -8.364235  
       5A1    -0.811879     6A1    -0.574611     7A1    -0.166518  
       2B2    -0.142649     2B1    -0.142649     3B1     0.059516  
       3B2     0.059516     8A1     0.213003  

    Beta Virtual:                                                         

       9A1     0.840753     4B1     0.866073     4B2     0.866073  
      10A1     1.026378     5B1     1.142767     5B2     1.142767  
       1A2     1.148996    11A1     1.148996    12A1     1.394300  
       6B1     1.630084     6B2     1.630084    13A1     1.649013  
      14A1     2.476669     2A2     4.012561    15A1     4.012562  
       7B1     4.041204     7B2     4.041204    16A1     4.339069  

    Final Occupation by Irrep:
             A1    A2    B1    B2 
    DOCC [     8,    0,    3,    3 ]
    SOCC [     0,    0,    0,    0 ]
    NA   [     8,    0,    3,    3 ]
    NB   [     8,    0,    3,    3 ]

  @DF-UKS Final Energy:  -627.04816338899184

   => Energetics <=

    Nuclear Repulsion Energy =             55.1536479090365717
    One-Electron Energy =                -987.6324077371841668
    Two-Electron Energy =                 339.2142926039303461
    DFT Exchange-Correlation Energy =     -33.7836961647745184
    Empirical Dispersion Energy =           0.0000000000000000
    VV10 Nonlocal Energy =                  0.0000000000000000
    Total Energy =                       -627.0481633889917248

  UHF NO Occupations:
  HONO-2 :    6 A1 2.0000000
  HONO-1 :    7 A1 2.0000000
  HONO-0 :    8 A1 2.0000000
  LUNO+0 :    9 A1 0.0000000
  LUNO+1 :   10 A1 0.0000000
  LUNO+2 :   11 A1 0.0000000
  LUNO+3 :   12 A1 0.0000000


Computation Completed


Properties will be evaluated at   0.000000,   0.000000,   0.000000 [a0]

Properties computed using the SCF density matrix


 Multipole Moments:

 ------------------------------------------------------------------------------------
     Multipole            Electronic (a.u.)      Nuclear  (a.u.)        Total (a.u.)
 ------------------------------------------------------------------------------------

 L = 1.  Multiply by 2.5417464519 to convert [e a0] to [Debye]
 Dipole X            :          0.0000000            0.0000000            0.0000000
 Dipole Y            :          0.0000000            0.0000000            0.0000000
 Dipole Z            :         -1.6287456            0.8812721           -0.7474735
 Magnitude           :                                                    0.7474735

 ------------------------------------------------------------------------------------

*** tstop() called on Joses-MacBook-Pro-2.local at Thu Jul 17 10:56:30 2025
Module time:
	user time   =       4.21 seconds =       0.07 minutes
	system time =       4.14 seconds =       0.07 minutes
	total time  =          0 seconds =       0.00 minutes
Total time:
	user time   =      13.97 seconds =       0.23 minutes
	system time =      17.17 seconds =       0.29 minutes
	total time  =          3 seconds =       0.05 minutes

*** tstart() called on Joses-MacBook-Pro-2.local
*** at Thu Jul 17 10:56:30 2025


         ------------------------------------------------------------
                                   SCF GRAD                          
                          Rob Parrish, Justin Turney,                
                       Andy Simmonett, and Alex Sokolov              
         ------------------------------------------------------------

  ==> Geometry <==

    Molecular point group: c2v
    Full point group: C_inf_v

    Geometry (in Angstrom), charge = -1, multiplicity = 1:

       Center              X                  Y                   Z               Mass       
    ------------   -----------------  -----------------  -----------------  -----------------
         F            0.000000000000     0.000000000000     1.053489029792    18.998403162730
         AR           0.000000000000     0.000000000000    -0.500836230251    39.962383123700

  Nuclear repulsion =   55.153647909036572

  ==> Basis Set <==

  Basis Set: CC-PVDZ
    Blend: CC-PVDZ
    Number of shells: 14
    Number of basis functions: 32
    Number of Cartesian functions: 34
    Spherical Harmonics?: true
    Max angular momentum: 2

  ==> DFJKGrad: Density-Fitted SCF Gradients <==

    Gradient:                    1
    J tasked:                  Yes
    K tasked:                  Yes
    wK tasked:                  No
    OpenMP threads:              1
    Integrals threads:           1
    Memory [MiB]:              375
    Schwarz Cutoff:          1E-12
    Fitting Condition:       1E-10

   => Auxiliary Basis Set <=

  Basis Set: (CC-PVDZ AUX)
    Blend: CC-PVDZ-JKFIT
    Number of shells: 60
    Number of basis functions: 182
    Number of Cartesian functions: 211
    Spherical Harmonics?: true
    Max angular momentum: 3

  ==> DFT Potential <==

   => LibXC <=

    Version 6.2.2
    S. Lehtola, C. Steigemann, M. J.T. Oliveira, and M. A.L. Marques.,  SoftwareX 7, 1–5 (2018) (10.1016/j.softx.2017.11.002)

   => Composite Functional: B3LYP <= 

    B3LYP Hyb-GGA Exchange-Correlation Functional

    P. J. Stephens, F. J. Devlin, C. F. Chabalowski, and M. J. Frisch.,  J. Phys. Chem. 98, 11623 (1994) (10.1021/j100096a001)

    Deriv               =              1
    GGA                 =           TRUE
    Meta                =          FALSE

    Exchange Hybrid     =           TRUE
    MP2 Hybrid          =          FALSE

   => Exchange Functionals <=

    0.0800   Slater exchange
    0.7200         Becke 88

   => Exact (HF) Exchange <=

    0.2000               HF 

   => Correlation Functionals <=

    0.1900   Vosko, Wilk & Nusair (VWN5_RPA)
    0.8100   Lee, Yang & Parr

   => LibXC Density Thresholds  <==

    XC_HYB_GGA_XC_B3LYP:  1.00E-15 

   => Molecular Quadrature <=

    Radial Scheme          =       TREUTLER
    Pruning Scheme         =           NONE
    Nuclear Scheme         =       TREUTLER

    Blocking Scheme        =         OCTREE
    BS radius alpha        =              1
    Pruning alpha          =              1
    Radial Points          =             75
    Spherical Points       =            302
    Total Points           =          41302
    Total Blocks           =            366
    Max Points             =            256
    Max Functions          =             32
    Weights Tolerance      =       1.00E-15


  -Total Gradient:
     Atom            X                  Y                   Z
    ------   -----------------  -----------------  -----------------
       1        0.000000000000     0.000000000000    -0.502364244472
       2        0.000000000000     0.000000000000     0.502304918522


*** tstop() called on Joses-MacBook-Pro-2.local at Thu Jul 17 10:56:31 2025
Module time:
	user time   =       0.85 seconds =       0.01 minutes
	system time =       1.64 seconds =       0.03 minutes
	total time  =          1 seconds =       0.02 minutes
Total time:
	user time   =      14.82 seconds =       0.25 minutes
	system time =      18.81 seconds =       0.31 minutes
	total time  =          4 seconds =       0.07 minutes

    			-----------------------------------------

    			 OPTKING 3.0: for geometry optimizations 

    			     By R.A. King, Bethel University     

    			        with contributions from          

    			    A.V. Copan, J. Cayton, A. Heide      

    			-----------------------------------------

    
	                            ===> Fragment 1 <== 

	 Z (Atomic Numbers)          Masses                          Geom                  
	       9.000000            18.998403          0.00000000  0.00000000  1.99080574   
	      18.000000            39.962383          0.00000000  0.00000000 -0.94644331   

	 - Coordinate -           - BOHR/RAD -       - ANG/DEG -
	 R(1,2)           =         2.937249           1.554325


	        --- Internal Coordinate Step in ANG or DEG, aJ/ANG or AJ/DEG ---
	-------------------------------------------------------------------------------
	           Coordinate      Previous         Force          Change          New 
	           ----------      --------        ------          ------        ------
	               R(1,2)       1.55433        4.13860        0.21304       1.76736
	-------------------------------------------------------------------------------

	                                 ==> Convergence Check <==                                  
    
	Measures of convergence in internal coordinates in au.
    
	Criteria marked as inactive (o), active & met (*), and active & unmet ( ).

	----------------------------------------------------------------------------------------------
	   Step    Total Energy     Delta E     Max Force     RMS Force      Max Disp      RMS Disp   
	----------------------------------------------------------------------------------------------
	  Convergence Criteria     1.00e-06 *    3.00e-04 *             o    1.20e-03 *             o
	----------------------------------------------------------------------------------------------
	     3    -627.04816339   -2.47e-01      5.02e-01      5.02e-01 o    4.03e-01      4.03e-01 o  ~
	----------------------------------------------------------------------------------------------

Next Geometry in Ang 
	Fragment 1 (Ang)

	    F   0.0000000000   0.0000000000   1.1600073848
	   Ar   0.0000000000   0.0000000000  -0.6073545853


    Structure for next step:
    Molecular point group: c2v
    Full point group: C_inf_v

    Geometry (in Angstrom), charge = -1, multiplicity = 1:

    F            0.000000000000     0.000000000000     1.197880839347
    AR           0.000000000000     0.000000000000    -0.569481130702


Scratch directory: /tmp/
gradient() will perform analytic gradient computation.
   => Libint2 <=

    Primary   basis highest AM E, G, H:  6, 6, 3
    Auxiliary basis highest AM E, G, H:  7, 7, 4
    Onebody   basis highest AM E, G, H:  -, -, -
    Solid Harmonics ordering:            Gaussian

*** tstart() called on Joses-MacBook-Pro-2.local
*** at Thu Jul 17 10:56:31 2025

   => Loading Basis Set <=

    Name: CC-PVDZ
    Role: ORBITAL
    Keyword: BASIS
    atoms 1 entry F          line   228 file /Users/joseantoniorodriguesromero/anaconda3/share/psi4/basis/cc-pvdz.gbs 
    atoms 2 entry AR         line   718 file /Users/joseantoniorodriguesromero/anaconda3/share/psi4/basis/cc-pvdz.gbs 


         ---------------------------------------------------------
                                   SCF
               by Justin Turney, Rob Parrish, Andy Simmonett
                          and Daniel G. A. Smith
                              UKS Reference
                        1 Threads,    500 MiB Core
         ---------------------------------------------------------

  ==> Geometry <==

    Molecular point group: c2v
    Full point group: C_inf_v

    Geometry (in Angstrom), charge = -1, multiplicity = 1:

       Center              X                  Y                   Z               Mass       
    ------------   -----------------  -----------------  -----------------  -----------------
         F            0.000000000000     0.000000000000     1.197880839347    18.998403162730
         AR           0.000000000000     0.000000000000    -0.569481130702    39.962383123700

  Running in c2v symmetry.

  Rotational constants: A = ************  B =      0.41912  C =      0.41912 [cm^-1]
  Rotational constants: A = ************  B =  12564.95611  C =  12564.95611 [MHz]
  Nuclear repulsion =   48.505461575702775

  Charge       = -1
  Multiplicity = 1
  Electrons    = 28
  Nalpha       = 14
  Nbeta        = 14

  ==> Algorithm <==

  SCF Algorithm Type is DF.
  DIIS enabled.
  MOM disabled.
  Fractional occupation disabled.
  Guess Type is READ.
  Energy threshold   = 1.00e-08
  Density threshold  = 1.00e-08
  Integral threshold = 1.00e-12

  ==> Primary Basis <==

  Basis Set: CC-PVDZ
    Blend: CC-PVDZ
    Number of shells: 14
    Number of basis functions: 32
    Number of Cartesian functions: 34
    Spherical Harmonics?: true
    Max angular momentum: 2

  ==> DFT Potential <==

   => LibXC <=

    Version 6.2.2
    S. Lehtola, C. Steigemann, M. J.T. Oliveira, and M. A.L. Marques.,  SoftwareX 7, 1–5 (2018) (10.1016/j.softx.2017.11.002)

   => Composite Functional: B3LYP <= 

    B3LYP Hyb-GGA Exchange-Correlation Functional

    P. J. Stephens, F. J. Devlin, C. F. Chabalowski, and M. J. Frisch.,  J. Phys. Chem. 98, 11623 (1994) (10.1021/j100096a001)

    Deriv               =              1
    GGA                 =           TRUE
    Meta                =          FALSE

    Exchange Hybrid     =           TRUE
    MP2 Hybrid          =          FALSE

   => Exchange Functionals <=

    0.0800   Slater exchange
    0.7200         Becke 88

   => Exact (HF) Exchange <=

    0.2000               HF 

   => Correlation Functionals <=

    0.1900   Vosko, Wilk & Nusair (VWN5_RPA)
    0.8100   Lee, Yang & Parr

   => LibXC Density Thresholds  <==

    XC_HYB_GGA_XC_B3LYP:  1.00E-15 

   => Molecular Quadrature <=

    Radial Scheme          =       TREUTLER
    Pruning Scheme         =           NONE
    Nuclear Scheme         =       TREUTLER

    Blocking Scheme        =         OCTREE
    BS radius alpha        =              1
    Pruning alpha          =              1
    Radial Points          =             75
    Spherical Points       =            302
    Total Points           =          41342
    Total Blocks           =            369
    Max Points             =            253
    Max Functions          =             32
    Weights Tolerance      =       1.00E-15

   => Loading Basis Set <=

    Name: (CC-PVDZ AUX)
    Role: JKFIT
    Keyword: DF_BASIS_SCF
    atoms 1 entry F          line   271 file /Users/joseantoniorodriguesromero/anaconda3/share/psi4/basis/cc-pvdz-jkfit.gbs 
    atoms 2 entry AR         line   741 file /Users/joseantoniorodriguesromero/anaconda3/share/psi4/basis/cc-pvdz-jkfit.gbs 

   => Loading Basis Set <=

    Name: CC-PVDZ
    Role: ORBITAL
    Keyword: BASIS
    atoms 1 entry F          line   228 file /Users/joseantoniorodriguesromero/anaconda3/share/psi4/basis/cc-pvdz.gbs 
    atoms 2 entry AR         line   718 file /Users/joseantoniorodriguesromero/anaconda3/share/psi4/basis/cc-pvdz.gbs 

  Reading orbitals from file /tmp/singlet_FAr.default.72890.180.npy, no projection.

  ==> Integral Setup <==

  DFHelper Memory: AOs need 0.002 GiB; user supplied 0.329 GiB. 
  Using in-core AOs.

  ==> MemDFJK: Density-Fitted J/K Matrices <==

    J tasked:                   Yes
    K tasked:                   Yes
    wK tasked:                   No
    OpenMP threads:               1
    Memory [MiB]:               337
    Algorithm:                 Core
    Schwarz Cutoff:           1E-12
    Mask sparsity (%):       0.0000
    Fitting Condition:        1E-10

   => Auxiliary Basis Set <=

  Basis Set: (CC-PVDZ AUX)
    Blend: CC-PVDZ-JKFIT
    Number of shells: 60
    Number of basis functions: 182
    Number of Cartesian functions: 211
    Spherical Harmonics?: true
    Max angular momentum: 3

  Cached 100.0% of DFT collocation blocks in 0.037 [GiB].

  Minimum eigenvalue in the overlap matrix is 6.5450129951E-02.
  Reciprocal condition number of the overlap matrix is 2.7728954626E-02.
    Using symmetric orthogonalization.

  ==> Pre-Iterations <==

  SCF Guess: Orbitals guess was supplied from a previous computation.

   -------------------------------------------------------
    Irrep   Nso     Nmo     Nalpha   Nbeta   Ndocc  Nsocc
   -------------------------------------------------------
     A1        16      16       8       8       8       0
     A2         2       2       0       0       0       0
     B1         7       7       3       3       3       0
     B2         7       7       3       3       3       0
   -------------------------------------------------------
    Total      32      32      14      14      14       0
   -------------------------------------------------------

  ==> Iterations <==

                           Total Energy        Delta E     RMS |[F,P]|

   @DF-UKS iter   0:  -627.14584648944845   -6.27146e+02   5.97819e-02 
   @DF-UKS iter   1:  -627.17567525697905   -2.98288e-02   1.17544e-02 DIIS/ADIIS
   @DF-UKS iter   2:  -627.18035802388761   -4.68277e-03   1.05507e-02 DIIS/ADIIS/DAMP=1%
   @DF-UKS iter   3:  -627.20522296778984   -2.48649e-02   1.46591e-03 DIIS/ADIIS/DAMP=1%
   @DF-UKS iter   4:  -627.19477229853999    1.04507e-02   2.35455e-04 DIIS/ADIIS/DAMP=1%
   @DF-UKS iter   5:  -627.19457254804763    1.99750e-04   2.11582e-05 DIIS/DAMP=1%
   @DF-UKS iter   6:  -627.19467315352233   -1.00605e-04   2.00062e-06 DIIS/DAMP=1%
   @DF-UKS iter   7:  -627.19465133608423    2.18174e-05   6.09234e-07 DIIS/DAMP=1%
   @DF-UKS iter   8:  -627.19465055094963    7.85135e-07   3.89850e-08 DIIS/DAMP=1%
   @DF-UKS iter   9:  -627.19465065679083   -1.05841e-07   2.56770e-09 DIIS/DAMP=1%
   @DF-UKS iter  10:  -627.19465062393635    3.28545e-08   2.39070e-10 DIIS/DAMP=1%
   @DF-UKS iter  11:  -627.19465062478685   -8.50491e-10   7.70444e-12 DIIS/DAMP=1%
  Energy and wave function converged.


  ==> Post-Iterations <==

   Electrons on quadrature grid:
      Nalpha   =   13.9999922428 ; deviation = -7.757e-06
      Nbeta    =   13.9999922428 ; deviation = -7.757e-06
      Ntotal   =   27.9999844855 ; deviation = -1.551e-05 

   @Spin Contamination Metric:   7.105427358E-15
   @S^2 Expected:                0.000000000E+00
   @S^2 Observed:                7.105427358E-15
   @S   Expected:                0.000000000E+00
   @S   Observed:                0.000000000E+00

    Orbital Energies [Eh]
    ---------------------

    Alpha Occupied:                                                       

       1A1  -114.802046     2A1   -24.129874     3A1   -10.836203  
       1B2    -8.386158     1B1    -8.386158     4A1    -8.386083  
       5A1    -0.725648     6A1    -0.597297     7A1    -0.146610  
       2B1    -0.145843     2B2    -0.145843     3B1     0.095276  
       3B2     0.095276     8A1     0.169951  

    Alpha Virtual:                                                        

       9A1     0.828758     4B2     0.850627     4B1     0.850627  
      10A1     1.022186     5B2     1.115869     5B1     1.115869  
       1A2     1.124161    11A1     1.124161    12A1     1.288321  
       6B1     1.639010     6B2     1.639010    13A1     1.684867  
      14A1     2.434589     2A2     4.072961    15A1     4.073066  
       7B2     4.076003     7B1     4.076003    16A1     4.196453  

    Beta Occupied:                                                        

       1A1  -114.802046     2A1   -24.129874     3A1   -10.836203  
       1B2    -8.386158     1B1    -8.386158     4A1    -8.386083  
       5A1    -0.725648     6A1    -0.597297     7A1    -0.146610  
       2B2    -0.145843     2B1    -0.145843     3B1     0.095276  
       3B2     0.095276     8A1     0.169951  

    Beta Virtual:                                                         

       9A1     0.828758     4B2     0.850627     4B1     0.850627  
      10A1     1.022186     5B2     1.115869     5B1     1.115869  
       1A2     1.124161    11A1     1.124161    12A1     1.288321  
       6B1     1.639010     6B2     1.639010    13A1     1.684867  
      14A1     2.434589     2A2     4.072961    15A1     4.073066  
       7B1     4.076003     7B2     4.076003    16A1     4.196453  

    Final Occupation by Irrep:
             A1    A2    B1    B2 
    DOCC [     8,    0,    3,    3 ]
    SOCC [     0,    0,    0,    0 ]
    NA   [     8,    0,    3,    3 ]
    NB   [     8,    0,    3,    3 ]

  @DF-UKS Final Energy:  -627.19465062478685

   => Energetics <=

    Nuclear Repulsion Energy =             48.5054615757027747
    One-Electron Energy =                -974.7387005357537646
    Two-Electron Energy =                 332.7750885548918518
    DFT Exchange-Correlation Energy =     -33.7365002196276080
    Empirical Dispersion Energy =           0.0000000000000000
    VV10 Nonlocal Energy =                  0.0000000000000000
    Total Energy =                       -627.1946506247867319

  UHF NO Occupations:
  HONO-2 :    3 B2 2.0000000
  HONO-1 :    3 B1 2.0000000
  HONO-0 :    8 A1 2.0000000
  LUNO+0 :    9 A1 0.0000000
  LUNO+1 :    4 B1 0.0000000
  LUNO+2 :   10 A1 0.0000000
  LUNO+3 :    5 B1 0.0000000


Computation Completed


Properties will be evaluated at   0.000000,   0.000000,   0.000000 [a0]

Properties computed using the SCF density matrix


 Multipole Moments:

 ------------------------------------------------------------------------------------
     Multipole            Electronic (a.u.)      Nuclear  (a.u.)        Total (a.u.)
 ------------------------------------------------------------------------------------

 L = 1.  Multiply by 2.5417464519 to convert [e a0] to [Debye]
 Dipole X            :          0.0000000            0.0000000            0.0000000
 Dipole Y            :          0.0000000            0.0000000            0.0000000
 Dipole Z            :         -2.4521550            1.0020598           -1.4500952
 Magnitude           :                                                    1.4500952

 ------------------------------------------------------------------------------------

*** tstop() called on Joses-MacBook-Pro-2.local at Thu Jul 17 10:56:32 2025
Module time:
	user time   =       4.79 seconds =       0.08 minutes
	system time =       4.01 seconds =       0.07 minutes
	total time  =          1 seconds =       0.02 minutes
Total time:
	user time   =      19.78 seconds =       0.33 minutes
	system time =      22.92 seconds =       0.38 minutes
	total time  =          5 seconds =       0.08 minutes

*** tstart() called on Joses-MacBook-Pro-2.local
*** at Thu Jul 17 10:56:32 2025


         ------------------------------------------------------------
                                   SCF GRAD                          
                          Rob Parrish, Justin Turney,                
                       Andy Simmonett, and Alex Sokolov              
         ------------------------------------------------------------

  ==> Geometry <==

    Molecular point group: c2v
    Full point group: C_inf_v

    Geometry (in Angstrom), charge = -1, multiplicity = 1:

       Center              X                  Y                   Z               Mass       
    ------------   -----------------  -----------------  -----------------  -----------------
         F            0.000000000000     0.000000000000     1.197880839347    18.998403162730
         AR           0.000000000000     0.000000000000    -0.569481130702    39.962383123700

  Nuclear repulsion =   48.505461575702775

  ==> Basis Set <==

  Basis Set: CC-PVDZ
    Blend: CC-PVDZ
    Number of shells: 14
    Number of basis functions: 32
    Number of Cartesian functions: 34
    Spherical Harmonics?: true
    Max angular momentum: 2

  ==> DFJKGrad: Density-Fitted SCF Gradients <==

    Gradient:                    1
    J tasked:                  Yes
    K tasked:                  Yes
    wK tasked:                  No
    OpenMP threads:              1
    Integrals threads:           1
    Memory [MiB]:              375
    Schwarz Cutoff:          1E-12
    Fitting Condition:       1E-10

   => Auxiliary Basis Set <=

  Basis Set: (CC-PVDZ AUX)
    Blend: CC-PVDZ-JKFIT
    Number of shells: 60
    Number of basis functions: 182
    Number of Cartesian functions: 211
    Spherical Harmonics?: true
    Max angular momentum: 3

  ==> DFT Potential <==

   => LibXC <=

    Version 6.2.2
    S. Lehtola, C. Steigemann, M. J.T. Oliveira, and M. A.L. Marques.,  SoftwareX 7, 1–5 (2018) (10.1016/j.softx.2017.11.002)

   => Composite Functional: B3LYP <= 

    B3LYP Hyb-GGA Exchange-Correlation Functional

    P. J. Stephens, F. J. Devlin, C. F. Chabalowski, and M. J. Frisch.,  J. Phys. Chem. 98, 11623 (1994) (10.1021/j100096a001)

    Deriv               =              1
    GGA                 =           TRUE
    Meta                =          FALSE

    Exchange Hybrid     =           TRUE
    MP2 Hybrid          =          FALSE

   => Exchange Functionals <=

    0.0800   Slater exchange
    0.7200         Becke 88

   => Exact (HF) Exchange <=

    0.2000               HF 

   => Correlation Functionals <=

    0.1900   Vosko, Wilk & Nusair (VWN5_RPA)
    0.8100   Lee, Yang & Parr

   => LibXC Density Thresholds  <==

    XC_HYB_GGA_XC_B3LYP:  1.00E-15 

   => Molecular Quadrature <=

    Radial Scheme          =       TREUTLER
    Pruning Scheme         =           NONE
    Nuclear Scheme         =       TREUTLER

    Blocking Scheme        =         OCTREE
    BS radius alpha        =              1
    Pruning alpha          =              1
    Radial Points          =             75
    Spherical Points       =            302
    Total Points           =          41342
    Total Blocks           =            369
    Max Points             =            253
    Max Functions          =             32
    Weights Tolerance      =       1.00E-15


  -Total Gradient:
     Atom            X                  Y                   Z
    ------   -----------------  -----------------  -----------------
       1       -0.000000000000    -0.000000000000    -0.250418608417
       2        0.000000000000    -0.000000000000     0.250351951961


*** tstop() called on Joses-MacBook-Pro-2.local at Thu Jul 17 10:56:32 2025
Module time:
	user time   =       1.01 seconds =       0.02 minutes
	system time =       1.69 seconds =       0.03 minutes
	total time  =          0 seconds =       0.00 minutes
Total time:
	user time   =      20.79 seconds =       0.35 minutes
	system time =      24.61 seconds =       0.41 minutes
	total time  =          5 seconds =       0.08 minutes

    			-----------------------------------------

    			 OPTKING 3.0: for geometry optimizations 

    			     By R.A. King, Bethel University     

    			        with contributions from          

    			    A.V. Copan, J. Cayton, A. Heide      

    			-----------------------------------------

    
	                            ===> Fragment 1 <== 

	 Z (Atomic Numbers)          Masses                          Geom                  
	       9.000000            18.998403          0.00000000  0.00000000  2.26366672   
	      18.000000            39.962383          0.00000000  0.00000000 -1.07616337   

	 - Coordinate -           - BOHR/RAD -       - ANG/DEG -
	 R(1,2)           =         3.339830           1.767362


	        --- Internal Coordinate Step in ANG or DEG, aJ/ANG or AJ/DEG ---
	-------------------------------------------------------------------------------
	           Coordinate      Previous         Force          Change          New 
	           ----------      --------        ------          ------        ------
	               R(1,2)       1.76736        2.06286        0.18566       1.95302
	-------------------------------------------------------------------------------

	                                 ==> Convergence Check <==                                  
    
	Measures of convergence in internal coordinates in au.
    
	Criteria marked as inactive (o), active & met (*), and active & unmet ( ).

	----------------------------------------------------------------------------------------------
	   Step    Total Energy     Delta E     Max Force     RMS Force      Max Disp      RMS Disp   
	----------------------------------------------------------------------------------------------
	  Convergence Criteria     1.00e-06 *    3.00e-04 *             o    1.20e-03 *             o
	----------------------------------------------------------------------------------------------
	     4    -627.19465062   -1.46e-01      2.50e-01      2.50e-01 o    3.51e-01      3.51e-01 o  ~
	----------------------------------------------------------------------------------------------

Next Geometry in Ang 
	Fragment 1 (Ang)

	    F   0.0000000000   0.0000000000   1.2907083564
	   Ar   0.0000000000   0.0000000000  -0.6623086477


    Structure for next step:
    Molecular point group: c2v
    Full point group: C_inf_v

    Geometry (in Angstrom), charge = -1, multiplicity = 1:

    F            0.000000000000     0.000000000000     1.323713923803
    AR           0.000000000000     0.000000000000    -0.629303080316


Scratch directory: /tmp/
gradient() will perform analytic gradient computation.
   => Libint2 <=

    Primary   basis highest AM E, G, H:  6, 6, 3
    Auxiliary basis highest AM E, G, H:  7, 7, 4
    Onebody   basis highest AM E, G, H:  -, -, -
    Solid Harmonics ordering:            Gaussian

*** tstart() called on Joses-MacBook-Pro-2.local
*** at Thu Jul 17 10:56:32 2025

   => Loading Basis Set <=

    Name: CC-PVDZ
    Role: ORBITAL
    Keyword: BASIS
    atoms 1 entry F          line   228 file /Users/joseantoniorodriguesromero/anaconda3/share/psi4/basis/cc-pvdz.gbs 
    atoms 2 entry AR         line   718 file /Users/joseantoniorodriguesromero/anaconda3/share/psi4/basis/cc-pvdz.gbs 


         ---------------------------------------------------------
                                   SCF
               by Justin Turney, Rob Parrish, Andy Simmonett
                          and Daniel G. A. Smith
                              UKS Reference
                        1 Threads,    500 MiB Core
         ---------------------------------------------------------

  ==> Geometry <==

    Molecular point group: c2v
    Full point group: C_inf_v

    Geometry (in Angstrom), charge = -1, multiplicity = 1:

       Center              X                  Y                   Z               Mass       
    ------------   -----------------  -----------------  -----------------  -----------------
         F            0.000000000000     0.000000000000     1.323713923803    18.998403162730
         AR           0.000000000000     0.000000000000    -0.629303080316    39.962383123700

  Running in c2v symmetry.

  Rotational constants: A = ************  B =      0.34323  C =      0.34323 [cm^-1]
  Rotational constants: A = ************  B =  10289.63426  C =  10289.63426 [MHz]
  Nuclear repulsion =   43.894501659599435

  Charge       = -1
  Multiplicity = 1
  Electrons    = 28
  Nalpha       = 14
  Nbeta        = 14

  ==> Algorithm <==

  SCF Algorithm Type is DF.
  DIIS enabled.
  MOM disabled.
  Fractional occupation disabled.
  Guess Type is READ.
  Energy threshold   = 1.00e-08
  Density threshold  = 1.00e-08
  Integral threshold = 1.00e-12

  ==> Primary Basis <==

  Basis Set: CC-PVDZ
    Blend: CC-PVDZ
    Number of shells: 14
    Number of basis functions: 32
    Number of Cartesian functions: 34
    Spherical Harmonics?: true
    Max angular momentum: 2

  ==> DFT Potential <==

   => LibXC <=

    Version 6.2.2
    S. Lehtola, C. Steigemann, M. J.T. Oliveira, and M. A.L. Marques.,  SoftwareX 7, 1–5 (2018) (10.1016/j.softx.2017.11.002)

   => Composite Functional: B3LYP <= 

    B3LYP Hyb-GGA Exchange-Correlation Functional

[...]

	                                 ==> Convergence Check <==                                  
    
	Measures of convergence in internal coordinates in au.
    
	Criteria marked as inactive (o), active & met (*), and active & unmet ( ).

	----------------------------------------------------------------------------------------------
	   Step    Total Energy     Delta E     Max Force     RMS Force      Max Disp      RMS Disp   
	----------------------------------------------------------------------------------------------
	  Convergence Criteria     1.00e-06 *    3.00e-04 *             o    1.20e-03 *             o
	----------------------------------------------------------------------------------------------
	    13    -627.31828000   -5.65e-06      1.42e-04 *    1.42e-04 o    7.56e-03      7.56e-03 o  ~
	----------------------------------------------------------------------------------------------

Next Geometry in Ang 
	Fragment 1 (Ang)

	    F   0.0000000000   0.0000000000   1.8949640010
	   Ar   0.0000000000   0.0000000000  -0.9019289948


    Structure for next step:
    Molecular point group: c2v
    Full point group: C_inf_v

    Geometry (in Angstrom), charge = -1, multiplicity = 1:

    F            0.000000000000     0.000000000000     1.895675354618
    AR           0.000000000000     0.000000000000    -0.901217641130


Scratch directory: /tmp/
gradient() will perform analytic gradient computation.
   => Libint2 <=

    Primary   basis highest AM E, G, H:  6, 6, 3
    Auxiliary basis highest AM E, G, H:  7, 7, 4
    Onebody   basis highest AM E, G, H:  -, -, -
    Solid Harmonics ordering:            Gaussian

*** tstart() called on Joses-MacBook-Pro-2.local
*** at Thu Jul 17 10:56:41 2025

   => Loading Basis Set <=

    Name: CC-PVDZ
    Role: ORBITAL
    Keyword: BASIS
    atoms 1 entry F          line   228 file /Users/joseantoniorodriguesromero/anaconda3/share/psi4/basis/cc-pvdz.gbs 
    atoms 2 entry AR         line   718 file /Users/joseantoniorodriguesromero/anaconda3/share/psi4/basis/cc-pvdz.gbs 


         ---------------------------------------------------------
                                   SCF
               by Justin Turney, Rob Parrish, Andy Simmonett
                          and Daniel G. A. Smith
                              UKS Reference
                        1 Threads,    500 MiB Core
         ---------------------------------------------------------

  ==> Geometry <==

    Molecular point group: c2v
    Full point group: C_inf_v

    Geometry (in Angstrom), charge = -1, multiplicity = 1:

       Center              X                  Y                   Z               Mass       
    ------------   -----------------  -----------------  -----------------  -----------------
         F            0.000000000000     0.000000000000     1.895675354618    18.998403162730
         AR           0.000000000000     0.000000000000    -0.901217641130    39.962383123700

  Running in c2v symmetry.

  Rotational constants: A = ************  B =      0.16736  C =      0.16736 [cm^-1]
  Rotational constants: A = ************  B =   5017.18696  C =   5017.18696 [MHz]
  Nuclear repulsion =   30.650692843406397

  Charge       = -1
  Multiplicity = 1
  Electrons    = 28
  Nalpha       = 14
  Nbeta        = 14

  ==> Algorithm <==

  SCF Algorithm Type is DF.
  DIIS enabled.
  MOM disabled.
  Fractional occupation disabled.
  Guess Type is READ.
  Energy threshold   = 1.00e-08
  Density threshold  = 1.00e-08
  Integral threshold = 1.00e-12

  ==> Primary Basis <==

  Basis Set: CC-PVDZ
    Blend: CC-PVDZ
    Number of shells: 14
    Number of basis functions: 32
    Number of Cartesian functions: 34
    Spherical Harmonics?: true
    Max angular momentum: 2

  ==> DFT Potential <==

   => LibXC <=

    Version 6.2.2
    S. Lehtola, C. Steigemann, M. J.T. Oliveira, and M. A.L. Marques.,  SoftwareX 7, 1–5 (2018) (10.1016/j.softx.2017.11.002)

   => Composite Functional: B3LYP <= 

    B3LYP Hyb-GGA Exchange-Correlation Functional

    P. J. Stephens, F. J. Devlin, C. F. Chabalowski, and M. J. Frisch.,  J. Phys. Chem. 98, 11623 (1994) (10.1021/j100096a001)

    Deriv               =              1
    GGA                 =           TRUE
    Meta                =          FALSE

    Exchange Hybrid     =           TRUE
    MP2 Hybrid          =          FALSE

   => Exchange Functionals <=

    0.0800   Slater exchange
    0.7200         Becke 88

   => Exact (HF) Exchange <=

    0.2000               HF 

   => Correlation Functionals <=

    0.1900   Vosko, Wilk & Nusair (VWN5_RPA)
    0.8100   Lee, Yang & Parr

   => LibXC Density Thresholds  <==

    XC_HYB_GGA_XC_B3LYP:  1.00E-15 

   => Molecular Quadrature <=

    Radial Scheme          =       TREUTLER
    Pruning Scheme         =           NONE
    Nuclear Scheme         =       TREUTLER

    Blocking Scheme        =         OCTREE
    BS radius alpha        =              1
    Pruning alpha          =              1
    Radial Points          =             75
    Spherical Points       =            302
    Total Points           =          41467
    Total Blocks           =            374
    Max Points             =            256
    Max Functions          =             32
    Weights Tolerance      =       1.00E-15

   => Loading Basis Set <=

    Name: (CC-PVDZ AUX)
    Role: JKFIT
    Keyword: DF_BASIS_SCF
    atoms 1 entry F          line   271 file /Users/joseantoniorodriguesromero/anaconda3/share/psi4/basis/cc-pvdz-jkfit.gbs 
    atoms 2 entry AR         line   741 file /Users/joseantoniorodriguesromero/anaconda3/share/psi4/basis/cc-pvdz-jkfit.gbs 

   => Loading Basis Set <=

    Name: CC-PVDZ
    Role: ORBITAL
    Keyword: BASIS
    atoms 1 entry F          line   228 file /Users/joseantoniorodriguesromero/anaconda3/share/psi4/basis/cc-pvdz.gbs 
    atoms 2 entry AR         line   718 file /Users/joseantoniorodriguesromero/anaconda3/share/psi4/basis/cc-pvdz.gbs 

  Reading orbitals from file /tmp/singlet_FAr.default.72890.180.npy, no projection.

  ==> Integral Setup <==

  DFHelper Memory: AOs need 0.002 GiB; user supplied 0.333 GiB. 
  Using in-core AOs.

  ==> MemDFJK: Density-Fitted J/K Matrices <==

    J tasked:                   Yes
    K tasked:                   Yes
    wK tasked:                   No
    OpenMP threads:               1
    Memory [MiB]:               340
    Algorithm:                 Core
    Schwarz Cutoff:           1E-12
    Mask sparsity (%):       0.0000
    Fitting Condition:        1E-10

   => Auxiliary Basis Set <=

  Basis Set: (CC-PVDZ AUX)
    Blend: CC-PVDZ-JKFIT
    Number of shells: 60
    Number of basis functions: 182
    Number of Cartesian functions: 211
    Spherical Harmonics?: true
    Max angular momentum: 3

  Cached 100.0% of DFT collocation blocks in 0.034 [GiB].

  Minimum eigenvalue in the overlap matrix is 1.0865752818E-01.
  Reciprocal condition number of the overlap matrix is 6.1997357970E-02.
    Using symmetric orthogonalization.

  ==> Pre-Iterations <==

  SCF Guess: Orbitals guess was supplied from a previous computation.

   -------------------------------------------------------
    Irrep   Nso     Nmo     Nalpha   Nbeta   Ndocc  Nsocc
   -------------------------------------------------------
     A1        16      16       8       8       8       0
     A2         2       2       0       0       0       0
     B1         7       7       3       3       3       0
     B2         7       7       3       3       3       0
   -------------------------------------------------------
    Total      32      32      14      14      14       0
   -------------------------------------------------------

  ==> Iterations <==

                           Total Energy        Delta E     RMS |[F,P]|

   @DF-UKS iter   0:  -627.31825189378424   -6.27318e+02   4.35922e-05 
   @DF-UKS iter   1:  -627.31828060305281   -2.87093e-05   9.38270e-06 DIIS
   @DF-UKS iter   2:  -627.31828060787529   -4.82248e-09   7.95013e-06 DIIS/DAMP=1%
   @DF-UKS iter   3:  -627.31827909616015    1.51172e-06   1.35860e-06 DIIS/DAMP=1%
   @DF-UKS iter   4:  -627.31828128014592   -2.18399e-06   1.42025e-07 DIIS/DAMP=1%
   @DF-UKS iter   5:  -627.31828052227820    7.57868e-07   1.66431e-08 DIIS/DAMP=1%
   @DF-UKS iter   6:  -627.31828063320086   -1.10923e-07   4.50870e-09 DIIS/DAMP=1%
   @DF-UKS iter   7:  -627.31828061106557    2.21353e-08   1.97888e-10 DIIS/DAMP=1%
   @DF-UKS iter   8:  -627.31828061581086   -4.74529e-09   1.87840e-11 DIIS/DAMP=1%
  Energy and wave function converged.


  ==> Post-Iterations <==

   Electrons on quadrature grid:
      Nalpha   =   14.0000042547 ; deviation = 4.255e-06
      Nbeta    =   14.0000042547 ; deviation = 4.255e-06
      Ntotal   =   28.0000085093 ; deviation = 8.509e-06 

   @Spin Contamination Metric:   0.000000000E+00
   @S^2 Expected:                0.000000000E+00
   @S^2 Observed:                0.000000000E+00
   @S   Expected:                0.000000000E+00
   @S   Observed:                0.000000000E+00

    Orbital Energies [Eh]
    ---------------------

    Alpha Occupied:                                                       

       1A1  -114.902455     2A1   -24.099080     3A1   -10.938734  
       1B2    -8.488957     1B1    -8.488957     4A1    -8.487784  
       5A1    -0.768826     6A1    -0.566353     2B1    -0.230502  
       2B2    -0.230502     7A1    -0.218747     8A1     0.147103  
       3B1     0.147752     3B2     0.147752  

    Alpha Virtual:                                                        

       4B1     0.767082     4B2     0.767082     9A1     0.794243  
      10A1     0.927042     1A2     1.027766    11A1     1.027768  
      12A1     1.033571     5B1     1.034129     5B2     1.034129  
       6B1     1.612535     6B2     1.612535    13A1     1.680115  
      14A1     2.023408     7B1     4.134510     7B2     4.134510  
      15A1     4.135107     2A2     4.135120    16A1     4.137131  

    Beta Occupied:                                                        

       1A1  -114.902455     2A1   -24.099080     3A1   -10.938734  
       1B2    -8.488957     1B1    -8.488957     4A1    -8.487784  
       5A1    -0.768826     6A1    -0.566353     2B1    -0.230502  
       2B2    -0.230502     7A1    -0.218747     8A1     0.147103  
       3B1     0.147752     3B2     0.147752  

    Beta Virtual:                                                         

       4B1     0.767082     4B2     0.767082     9A1     0.794243  
      10A1     0.927042     1A2     1.027766    11A1     1.027768  
      12A1     1.033571     5B1     1.034129     5B2     1.034129  
       6B2     1.612535     6B1     1.612535    13A1     1.680115  
      14A1     2.023408     7B1     4.134510     7B2     4.134510  
      15A1     4.135107     2A2     4.135120    16A1     4.137131  

    Final Occupation by Irrep:
             A1    A2    B1    B2 
    DOCC [     8,    0,    3,    3 ]
    SOCC [     0,    0,    0,    0 ]
    NA   [     8,    0,    3,    3 ]
    NB   [     8,    0,    3,    3 ]

  @DF-UKS Final Energy:  -627.31828061581086

   => Energetics <=

    Nuclear Repulsion Energy =             30.6506928434063965
    One-Electron Energy =                -938.0259988178468120
    Two-Electron Energy =                 313.7136286738916624
    DFT Exchange-Correlation Energy =     -33.6566033152621173
    Empirical Dispersion Energy =           0.0000000000000000
    VV10 Nonlocal Energy =                  0.0000000000000000
    Total Energy =                       -627.3182806158108633

  UHF NO Occupations:
  HONO-2 :    7 A1 2.0000000
  HONO-1 :    8 A1 2.0000000
  HONO-0 :    3 B1 2.0000000
  LUNO+0 :    9 A1 0.0000000
  LUNO+1 :   10 A1 0.0000000
  LUNO+2 :    4 B2 0.0000000
  LUNO+3 :    5 B2 0.0000000


Computation Completed


Properties will be evaluated at   0.000000,   0.000000,   0.000000 [a0]

Properties computed using the SCF density matrix


 Multipole Moments:

 ------------------------------------------------------------------------------------
     Multipole            Electronic (a.u.)      Nuclear  (a.u.)        Total (a.u.)
 ------------------------------------------------------------------------------------

 L = 1.  Multiply by 2.5417464519 to convert [e a0] to [Debye]
 Dipole X            :          0.0000000            0.0000000            0.0000000
 Dipole Y            :          0.0000000            0.0000000            0.0000000
 Dipole Z            :         -4.9180658            1.5857838           -3.3322820
 Magnitude           :                                                    3.3322820

 ------------------------------------------------------------------------------------

*** tstop() called on Joses-MacBook-Pro-2.local at Thu Jul 17 10:56:41 2025
Module time:
	user time   =       2.96 seconds =       0.05 minutes
	system time =       2.98 seconds =       0.05 minutes
	total time  =          0 seconds =       0.00 minutes
Total time:
	user time   =      65.82 seconds =       1.10 minutes
	system time =      72.15 seconds =       1.20 minutes
	total time  =         14 seconds =       0.23 minutes

*** tstart() called on Joses-MacBook-Pro-2.local
*** at Thu Jul 17 10:56:41 2025


         ------------------------------------------------------------
                                   SCF GRAD                          
                          Rob Parrish, Justin Turney,                
                       Andy Simmonett, and Alex Sokolov              
         ------------------------------------------------------------

  ==> Geometry <==

    Molecular point group: c2v
    Full point group: C_inf_v

    Geometry (in Angstrom), charge = -1, multiplicity = 1:

       Center              X                  Y                   Z               Mass       
    ------------   -----------------  -----------------  -----------------  -----------------
         F            0.000000000000     0.000000000000     1.895675354618    18.998403162730
         AR           0.000000000000     0.000000000000    -0.901217641130    39.962383123700

  Nuclear repulsion =   30.650692843406397

  ==> Basis Set <==

  Basis Set: CC-PVDZ
    Blend: CC-PVDZ
    Number of shells: 14
    Number of basis functions: 32
    Number of Cartesian functions: 34
    Spherical Harmonics?: true
    Max angular momentum: 2

  ==> DFJKGrad: Density-Fitted SCF Gradients <==

    Gradient:                    1
    J tasked:                  Yes
    K tasked:                  Yes
    wK tasked:                  No
    OpenMP threads:              1
    Integrals threads:           1
    Memory [MiB]:              375
    Schwarz Cutoff:          1E-12
    Fitting Condition:       1E-10

   => Auxiliary Basis Set <=

  Basis Set: (CC-PVDZ AUX)
    Blend: CC-PVDZ-JKFIT
    Number of shells: 60
    Number of basis functions: 182
    Number of Cartesian functions: 211
    Spherical Harmonics?: true
    Max angular momentum: 3

  ==> DFT Potential <==

   => LibXC <=

    Version 6.2.2
    S. Lehtola, C. Steigemann, M. J.T. Oliveira, and M. A.L. Marques.,  SoftwareX 7, 1–5 (2018) (10.1016/j.softx.2017.11.002)

   => Composite Functional: B3LYP <= 

    B3LYP Hyb-GGA Exchange-Correlation Functional

    P. J. Stephens, F. J. Devlin, C. F. Chabalowski, and M. J. Frisch.,  J. Phys. Chem. 98, 11623 (1994) (10.1021/j100096a001)

    Deriv               =              1
    GGA                 =           TRUE
    Meta                =          FALSE

    Exchange Hybrid     =           TRUE
    MP2 Hybrid          =          FALSE

   => Exchange Functionals <=

    0.0800   Slater exchange
    0.7200         Becke 88

   => Exact (HF) Exchange <=

    0.2000               HF 

   => Correlation Functionals <=

    0.1900   Vosko, Wilk & Nusair (VWN5_RPA)
    0.8100   Lee, Yang & Parr

   => LibXC Density Thresholds  <==

    XC_HYB_GGA_XC_B3LYP:  1.00E-15 

   => Molecular Quadrature <=

    Radial Scheme          =       TREUTLER
    Pruning Scheme         =           NONE
    Nuclear Scheme         =       TREUTLER

    Blocking Scheme        =         OCTREE
    BS radius alpha        =              1
    Pruning alpha          =              1
    Radial Points          =             75
    Spherical Points       =            302
    Total Points           =          41467
    Total Blocks           =            374
    Max Points             =            256
    Max Functions          =             32
    Weights Tolerance      =       1.00E-15


  -Total Gradient:
     Atom            X                  Y                   Z
    ------   -----------------  -----------------  -----------------
       1        0.000000000000    -0.000000000000    -0.000052196986
       2        0.000000000000    -0.000000000000     0.000047699420


*** tstop() called on Joses-MacBook-Pro-2.local at Thu Jul 17 10:56:42 2025
Module time:
	user time   =       1.46 seconds =       0.02 minutes
	system time =       0.80 seconds =       0.01 minutes
	total time  =          1 seconds =       0.02 minutes
Total time:
	user time   =      67.28 seconds =       1.12 minutes
	system time =      72.96 seconds =       1.22 minutes
	total time  =         15 seconds =       0.25 minutes

    			-----------------------------------------

    			 OPTKING 3.0: for geometry optimizations 

    			     By R.A. King, Bethel University     

    			        with contributions from          

    			    A.V. Copan, J. Cayton, A. Heide      

    			-----------------------------------------

    
	                            ===> Fragment 1 <== 

	 Z (Atomic Numbers)          Masses                          Geom                  
	       9.000000            18.998403          0.00000000  0.00000000  3.58230724   
	      18.000000            39.962383          0.00000000  0.00000000 -1.70305452   

	 - Coordinate -           - BOHR/RAD -       - ANG/DEG -
	 R(1,2)           =         5.285362           2.796893


	        --- Internal Coordinate Step in ANG or DEG, aJ/ANG or AJ/DEG ---
	-------------------------------------------------------------------------------
	           Coordinate      Previous         Force          Change          New 
	           ----------      --------        ------          ------        ------
	               R(1,2)       2.79689        0.00041        0.00178       2.79867
	-------------------------------------------------------------------------------

	                                 ==> Convergence Check <==                                  
    
	Measures of convergence in internal coordinates in au.
    
	Criteria marked as inactive (o), active & met (*), and active & unmet ( ).

	----------------------------------------------------------------------------------------------
	   Step    Total Energy     Delta E     Max Force     RMS Force      Max Disp      RMS Disp   
	----------------------------------------------------------------------------------------------
	  Convergence Criteria     1.00e-06 *    3.00e-04 *             o    1.20e-03 *             o
	----------------------------------------------------------------------------------------------
	    14    -627.31828062   -6.16e-07 *    4.99e-05 *    4.99e-05 o    3.37e-03      3.37e-03 o  ~
	----------------------------------------------------------------------------------------------

Next Geometry in Ang 
	Fragment 1 (Ang)

	    F   0.0000000000   0.0000000000   1.8965661692
	   Ar   0.0000000000   0.0000000000  -0.9021084557


    Final optimized geometry and variables:
    Molecular point group: c2v
    Full point group: C_inf_v

    Geometry (in Angstrom), charge = -1, multiplicity = 1:

    F            0.000000000000     0.000000000000     1.895675354618
    AR           0.000000000000     0.000000000000    -0.901217641130


    Psi4 stopped on: Thursday, 17 July 2025 10:56AM
    Psi4 wall time for execution: 0:00:15.11

*** Psi4 exiting successfully. Buy a developer a beer!
