
    -----------------------------------------------------------------------
          Psi4: An Open-Source Ab Initio Electronic Structure Package
                               Psi4 1.9.1 release

                         Git: Rev {} zzzzzzz 


    D. G. A. Smith, L. A. Burns, A. C. Simmonett, R. M. Parrish,
    M. C. Schieber, R. Galvelis, P. Kraus, H. Kruse, R. Di Remigio,
    A. Alenaizan, A. M. James, S. Lehtola, J. P. Misiewicz, M. Scheurer,
    R. A. Shaw, J. B. Schriber, Y. Xie, Z. L. Glick, D. A. Sirianni,
    J. S. O'Brien, J. M. Waldrop, A. Kumar, E. G. Hohenstein,
    B. P. Pritchard, B. R. Brooks, H. F. Schaefer III, A. Yu. Sokolov,
    K. Patkowski, A. E. DePrince III, U. Bozkaya, R. A. King,
    F. A. Evangelista, J. M. Turney, T. D. Crawford, C. D. Sherrill,
    J. Chem. Phys. 152(18) 184108 (2020). https://doi.org/10.1063/5.0006002

                            Additional Code Authors
    E. T. Seidl, C. L. Janssen, E. F. Valeev, M. L. Leininger,
    J. F. Gonthier, R. M. Richard, H. R. McAlexander, M. Saitow, X. Wang,
    P. Verma, M. H. Lechner, A. Jiang, S. Behnle, A. G. Heide,
    M. F. Herbst, and D. L. Poole

             Previous Authors, Complete List of Code Contributors,
                       and Citations for Specific Modules
    https://github.com/psi4/psi4/blob/master/codemeta.json
    https://github.com/psi4/psi4/graphs/contributors
    http://psicode.org/psi4manual/master/introduction.html#citing-psifour

    -----------------------------------------------------------------------


    Psi4 started on: Thursday, 17 July 2025 11:39AM

    Process ID: 73234
    Host:       Joses-MacBook-Pro-2.local
    PSIDATADIR: /Users/joseantoniorodriguesromero/anaconda3/share/psi4
    Memory:     500.0 MiB
    Threads:    1
    
  ==> Input File <==

--------------------------------------------------------------------------
molecule { 
-1 1
Al   0.00000        0.60000        0.00000
S   0.00000       -0.60000        0.00000
}

set { 
basis              cc-pvdz
reference          uks
maxiter            500
geom_maxiter       500
DAMPING_PERCENTAGE 1
guess              SAP
}

optimize('b3lyp')
--------------------------------------------------------------------------

Scratch directory: /tmp/
gradient() will perform analytic gradient computation.
   => Libint2 <=

    Primary   basis highest AM E, G, H:  6, 6, 3
    Auxiliary basis highest AM E, G, H:  7, 7, 4
    Onebody   basis highest AM E, G, H:  -, -, -
    Solid Harmonics ordering:            Gaussian

*** tstart() called on Joses-MacBook-Pro-2.local
*** at Thu Jul 17 11:39:08 2025

   => Loading Basis Set <=

    Name: CC-PVDZ
    Role: ORBITAL
    Keyword: BASIS
    atoms 1 entry AL         line   418 file /Users/joseantoniorodriguesromero/anaconda3/share/psi4/basis/cc-pvdz.gbs 
    atoms 2 entry S          line   598 file /Users/joseantoniorodriguesromero/anaconda3/share/psi4/basis/cc-pvdz.gbs 


         ---------------------------------------------------------
                                   SCF
               by Justin Turney, Rob Parrish, Andy Simmonett
                          and Daniel G. A. Smith
                              UKS Reference
                        1 Threads,    500 MiB Core
         ---------------------------------------------------------

  ==> Geometry <==

    Molecular point group: c2v
    Full point group: C_inf_v

    Geometry (in Angstrom), charge = -1, multiplicity = 1:

       Center              X                  Y                   Z               Mass       
    ------------   -----------------  -----------------  -----------------  -----------------
         AL           0.000000000000     0.000000000000     0.650791115280    26.981538530000
         S            0.000000000000     0.000000000000    -0.549208884720    31.972071174400

  Running in c2v symmetry.

  Rotational constants: A = ************  B =      0.80003  C =      0.80003 [cm^-1]
  Rotational constants: A = ************  B =  23984.33204  C =  23984.33204 [MHz]
  Nuclear repulsion =   91.724049849466681

  Charge       = -1
  Multiplicity = 1
  Electrons    = 30
  Nalpha       = 15
  Nbeta        = 15

  ==> Algorithm <==

  SCF Algorithm Type is DF.
  DIIS enabled.
  MOM disabled.
  Fractional occupation disabled.
  Guess Type is SAP.
  Energy threshold   = 1.00e-08
  Density threshold  = 1.00e-08
  Integral threshold = 1.00e-12

  ==> Primary Basis <==

  Basis Set: CC-PVDZ
    Blend: CC-PVDZ
    Number of shells: 16
    Number of basis functions: 36
    Number of Cartesian functions: 38
    Spherical Harmonics?: true
    Max angular momentum: 2

  ==> DFT Potential <==

   => LibXC <=

    Version 6.2.2
    S. Lehtola, C. Steigemann, M. J.T. Oliveira, and M. A.L. Marques.,  SoftwareX 7, 1–5 (2018) (10.1016/j.softx.2017.11.002)

   => Composite Functional: B3LYP <= 

    B3LYP Hyb-GGA Exchange-Correlation Functional

    P. J. Stephens, F. J. Devlin, C. F. Chabalowski, and M. J. Frisch.,  J. Phys. Chem. 98, 11623 (1994) (10.1021/j100096a001)

    Deriv               =              1
    GGA                 =           TRUE
    Meta                =          FALSE

    Exchange Hybrid     =           TRUE
    MP2 Hybrid          =          FALSE

   => Exchange Functionals <=

    0.0800   Slater exchange
    0.7200         Becke 88

   => Exact (HF) Exchange <=

    0.2000               HF 

   => Correlation Functionals <=

    0.1900   Vosko, Wilk & Nusair (VWN5_RPA)
    0.8100   Lee, Yang & Parr

   => LibXC Density Thresholds  <==

    XC_HYB_GGA_XC_B3LYP:  1.00E-15 

   => Molecular Quadrature <=

    Radial Scheme          =       TREUTLER
    Pruning Scheme         =           NONE
    Nuclear Scheme         =       TREUTLER

    Blocking Scheme        =         OCTREE
    BS radius alpha        =              1
    Pruning alpha          =              1
    Radial Points          =             75
    Spherical Points       =            302
    Total Points           =          42559
    Total Blocks           =            402
    Max Points             =            253
    Max Functions          =             36
    Weights Tolerance      =       1.00E-15

   => Loading Basis Set <=

    Name: (CC-PVDZ AUX)
    Role: JKFIT
    Keyword: DF_BASIS_SCF
    atoms 1 entry AL         line   371 file /Users/joseantoniorodriguesromero/anaconda3/share/psi4/basis/cc-pvdz-jkfit.gbs 
    atoms 2 entry S          line   593 file /Users/joseantoniorodriguesromero/anaconda3/share/psi4/basis/cc-pvdz-jkfit.gbs 

  ==> Integral Setup <==

  DFHelper Memory: AOs need 0.003 GiB; user supplied 0.323 GiB. 
  Using in-core AOs.

  ==> MemDFJK: Density-Fitted J/K Matrices <==

    J tasked:                   Yes
    K tasked:                   Yes
    wK tasked:                   No
    OpenMP threads:               1
    Memory [MiB]:               330
    Algorithm:                 Core
    Schwarz Cutoff:           1E-12
    Mask sparsity (%):       0.0000
    Fitting Condition:        1E-10

   => Auxiliary Basis Set <=

  Basis Set: (CC-PVDZ AUX)
    Blend: CC-PVDZ-JKFIT
    Number of shells: 72
    Number of basis functions: 224
    Number of Cartesian functions: 260
    Spherical Harmonics?: true
    Max angular momentum: 3

  Cached 100.0% of DFT collocation blocks in 0.043 [GiB].

  Minimum eigenvalue in the overlap matrix is 3.9512212618E-03.
  Reciprocal condition number of the overlap matrix is 1.2526511433E-03.
    Using symmetric orthogonalization.

  ==> Pre-Iterations <==

  SCF Guess: Superposition of Atomic Potentials (doi:10.1021/acs.jctc.8b01089).

  ==> SAP guess <==

   => Molecular Quadrature <=

    Radial Scheme          =       TREUTLER
    Pruning Scheme         =           NONE
    Nuclear Scheme         =       TREUTLER

    Blocking Scheme        =         OCTREE
    BS radius alpha        =              1
    Pruning alpha          =              1
    Radial Points          =             75
    Spherical Points       =            302
    Total Points           =          42559
    Total Blocks           =            402
    Max Points             =            253
    Max Functions          =             36
    Weights Tolerance      =       1.00E-15

   -------------------------------------------------------
    Irrep   Nso     Nmo     Nalpha   Nbeta   Ndocc  Nsocc
   -------------------------------------------------------
     A1        18      18       9       9       9       0
     A2         2       2       0       0       0       0
     B1         8       8       3       3       3       0
     B2         8       8       3       3       3       0
   -------------------------------------------------------
    Total      36      36      15      15      15       0
   -------------------------------------------------------

  ==> Iterations <==

                           Total Energy        Delta E     RMS |[F,P]|

   @DF-UKS iter   1:  -639.08619020440835   -6.39086e+02   3.52909e-02 DIIS/ADIIS
   @DF-UKS iter   2:  -638.78170349281891    3.04487e-01   4.78820e-02 DIIS/ADIIS/DAMP=1%
   @DF-UKS iter   3:  -639.43098858520375   -6.49285e-01   4.95102e-03 DIIS/ADIIS/DAMP=1%
   @DF-UKS iter   4:  -639.53116862800186   -1.00180e-01   3.30217e-03 DIIS/ADIIS/DAMP=1%
   @DF-UKS iter   5:  -639.53674615807461   -5.57753e-03   2.89076e-04 DIIS/ADIIS/DAMP=1%
   @DF-UKS iter   6:  -639.53679546058834   -4.93025e-05   2.98451e-05 DIIS/DAMP=1%
   @DF-UKS iter   7:  -639.53730392292596   -5.08462e-04   1.74028e-06 DIIS/DAMP=1%
   @DF-UKS iter   8:  -639.53735477775899   -5.08548e-05   1.80730e-07 DIIS/DAMP=1%
   @DF-UKS iter   9:  -639.53735809017564   -3.31242e-06   2.16278e-08 DIIS/DAMP=1%
   @DF-UKS iter  10:  -639.53735813996718   -4.97915e-08   2.48308e-09 DIIS/DAMP=1%
   @DF-UKS iter  11:  -639.53735817907977   -3.91126e-08   1.59807e-10 DIIS/DAMP=1%
   @DF-UKS iter  12:  -639.53735817838310    6.96673e-10   1.93673e-11 DIIS/DAMP=1%
  Energy and wave function converged.


  ==> Post-Iterations <==

   Electrons on quadrature grid:
      Nalpha   =   14.9999981907 ; deviation = -1.809e-06
      Nbeta    =   14.9999981907 ; deviation = -1.809e-06
      Ntotal   =   29.9999963813 ; deviation = -3.619e-06 

   @Spin Contamination Metric:  -5.329070518E-15
   @S^2 Expected:                0.000000000E+00
   @S^2 Observed:               -5.329070518E-15
   @S   Expected:                0.000000000E+00
   @S   Observed:                0.000000000E+00

    Orbital Energies [Eh]
    ---------------------

    Alpha Occupied:                                                       

       1A1   -88.615222     2A1   -55.806059     3A1    -7.749769  
       4A1    -5.725211     1B2    -5.688646     1B1    -5.688646  
       5A1    -4.011734     6A1    -2.593382     2B1    -2.523837  
       2B2    -2.523837     7A1    -0.482801     3B1    -0.132955  
       3B2    -0.132955     8A1    -0.076027     9A1     0.074117  

    Alpha Virtual:                                                        

       4B2     0.205412     4B1     0.205412    10A1     0.243097  
       5B2     0.392693     5B1     0.392693    11A1     0.398391  
       1A2     0.436341    12A1     0.436342     6B2     0.558399  
       6B1     0.558399    13A1     0.560803    14A1     0.647212  
       7B2     0.802560     7B1     0.802560     2A2     0.916460  
      15A1     0.916462    16A1     0.935486     8B1     1.148587  
       8B2     1.148587    17A1     1.319217    18A1     1.796554  

    Beta Occupied:                                                        

       1A1   -88.615222     2A1   -55.806059     3A1    -7.749769  
       4A1    -5.725211     1B2    -5.688646     1B1    -5.688646  
       5A1    -4.011734     6A1    -2.593382     2B1    -2.523837  
       2B2    -2.523837     7A1    -0.482801     3B1    -0.132955  
       3B2    -0.132955     8A1    -0.076027     9A1     0.074117  

    Beta Virtual:                                                         

       4B2     0.205412     4B1     0.205412    10A1     0.243097  
       5B2     0.392693     5B1     0.392693    11A1     0.398391  
       1A2     0.436341    12A1     0.436342     6B2     0.558399  
       6B1     0.558399    13A1     0.560803    14A1     0.647212  
       7B2     0.802560     7B1     0.802560     2A2     0.916460  
      15A1     0.916462    16A1     0.935486     8B1     1.148587  
       8B2     1.148587    17A1     1.319217    18A1     1.796554  

    Final Occupation by Irrep:
             A1    A2    B1    B2 
    DOCC [     9,    0,    3,    3 ]
    SOCC [     0,    0,    0,    0 ]
    NA   [     9,    0,    3,    3 ]
    NB   [     9,    0,    3,    3 ]

  @DF-UKS Final Energy:  -639.53735817838310

   => Energetics <=

    Nuclear Repulsion Energy =             91.7240498494666809
    One-Electron Energy =               -1073.2991623486395838
    Two-Electron Energy =                 378.3870748765946246
    DFT Exchange-Correlation Energy =     -36.3493205558049013
    Empirical Dispersion Energy =           0.0000000000000000
    VV10 Nonlocal Energy =                  0.0000000000000000
    Total Energy =                       -639.5373581783831014

  UHF NO Occupations:
  HONO-2 :    8 A1 2.0000000
  HONO-1 :    3 B1 2.0000000
  HONO-0 :    9 A1 2.0000000
  LUNO+0 :   10 A1 0.0000000
  LUNO+1 :   11 A1 0.0000000
  LUNO+2 :   12 A1 0.0000000
  LUNO+3 :   13 A1 0.0000000


Computation Completed


Properties will be evaluated at   0.000000,   0.000000,   0.000000 [a0]

Properties computed using the SCF density matrix


 Multipole Moments:

 ------------------------------------------------------------------------------------
     Multipole            Electronic (a.u.)      Nuclear  (a.u.)        Total (a.u.)
 ------------------------------------------------------------------------------------

 L = 1.  Multiply by 2.5417464519 to convert [e a0] to [Debye]
 Dipole X            :          0.0000000            0.0000000            0.0000000
 Dipole Y            :          0.0000000            0.0000000            0.0000000
 Dipole Z            :         -0.6414081           -0.6180494           -1.2594575
 Magnitude           :                                                    1.2594575

 ------------------------------------------------------------------------------------

*** tstop() called on Joses-MacBook-Pro-2.local at Thu Jul 17 11:39:10 2025
Module time:
	user time   =      15.78 seconds =       0.26 minutes
	system time =       2.29 seconds =       0.04 minutes
	total time  =          2 seconds =       0.03 minutes
Total time:
	user time   =      15.78 seconds =       0.26 minutes
	system time =       2.29 seconds =       0.04 minutes
	total time  =          2 seconds =       0.03 minutes

*** tstart() called on Joses-MacBook-Pro-2.local
*** at Thu Jul 17 11:39:10 2025


         ------------------------------------------------------------
                                   SCF GRAD                          
                          Rob Parrish, Justin Turney,                
                       Andy Simmonett, and Alex Sokolov              
         ------------------------------------------------------------

  ==> Geometry <==

    Molecular point group: c2v
    Full point group: C_inf_v

    Geometry (in Angstrom), charge = -1, multiplicity = 1:

       Center              X                  Y                   Z               Mass       
    ------------   -----------------  -----------------  -----------------  -----------------
         AL           0.000000000000     0.000000000000     0.650791115280    26.981538530000
         S            0.000000000000     0.000000000000    -0.549208884720    31.972071174400

  Nuclear repulsion =   91.724049849466681

  ==> Basis Set <==

  Basis Set: CC-PVDZ
    Blend: CC-PVDZ
    Number of shells: 16
    Number of basis functions: 36
    Number of Cartesian functions: 38
    Spherical Harmonics?: true
    Max angular momentum: 2

  ==> DFJKGrad: Density-Fitted SCF Gradients <==

    Gradient:                    1
    J tasked:                  Yes
    K tasked:                  Yes
    wK tasked:                  No
    OpenMP threads:              1
    Integrals threads:           1
    Memory [MiB]:              375
    Schwarz Cutoff:          1E-12
    Fitting Condition:       1E-10

   => Auxiliary Basis Set <=

  Basis Set: (CC-PVDZ AUX)
    Blend: CC-PVDZ-JKFIT
    Number of shells: 72
    Number of basis functions: 224
    Number of Cartesian functions: 260
    Spherical Harmonics?: true
    Max angular momentum: 3

  ==> DFT Potential <==

   => LibXC <=

    Version 6.2.2
    S. Lehtola, C. Steigemann, M. J.T. Oliveira, and M. A.L. Marques.,  SoftwareX 7, 1–5 (2018) (10.1016/j.softx.2017.11.002)

   => Composite Functional: B3LYP <= 

    B3LYP Hyb-GGA Exchange-Correlation Functional

    P. J. Stephens, F. J. Devlin, C. F. Chabalowski, and M. J. Frisch.,  J. Phys. Chem. 98, 11623 (1994) (10.1021/j100096a001)

    Deriv               =              1
    GGA                 =           TRUE
    Meta                =          FALSE

    Exchange Hybrid     =           TRUE
    MP2 Hybrid          =          FALSE

   => Exchange Functionals <=

    0.0800   Slater exchange
    0.7200         Becke 88

   => Exact (HF) Exchange <=

    0.2000               HF 

   => Correlation Functionals <=

    0.1900   Vosko, Wilk & Nusair (VWN5_RPA)
    0.8100   Lee, Yang & Parr

   => LibXC Density Thresholds  <==

    XC_HYB_GGA_XC_B3LYP:  1.00E-15 

   => Molecular Quadrature <=

    Radial Scheme          =       TREUTLER
    Pruning Scheme         =           NONE
    Nuclear Scheme         =       TREUTLER

    Blocking Scheme        =         OCTREE
    BS radius alpha        =              1
    Pruning alpha          =              1
    Radial Points          =             75
    Spherical Points       =            302
    Total Points           =          42559
    Total Blocks           =            402
    Max Points             =            253
    Max Functions          =             36
    Weights Tolerance      =       1.00E-15


  -Total Gradient:
     Atom            X                  Y                   Z
    ------   -----------------  -----------------  -----------------
       1        0.000000000000    -0.000000000000    -2.487632173271
       2        0.000000000000     0.000000000000     2.487721437027


*** tstop() called on Joses-MacBook-Pro-2.local at Thu Jul 17 11:39:10 2025
Module time:
	user time   =       3.09 seconds =       0.05 minutes
	system time =       1.54 seconds =       0.03 minutes
	total time  =          0 seconds =       0.00 minutes
Total time:
	user time   =      18.87 seconds =       0.31 minutes
	system time =       3.83 seconds =       0.06 minutes
	total time  =          2 seconds =       0.03 minutes

    			-----------------------------------------

    			 OPTKING 3.0: for geometry optimizations 

    			     By R.A. King, Bethel University     

    			        with contributions from          

    			    A.V. Copan, J. Cayton, A. Heide      

    			-----------------------------------------

    
	                            ===> Fragment 1 <== 

	 Z (Atomic Numbers)          Masses                          Geom                  
	      13.000000            26.981539          0.00000000  0.00000000  1.22981697   
	      16.000000            31.972071          0.00000000  0.00000000 -1.03785438   

	 - Coordinate -           - BOHR/RAD -       - ANG/DEG -
	 R(1,2)           =         2.267671           1.200000


	        --- Internal Coordinate Step in ANG or DEG, aJ/ANG or AJ/DEG ---
	-------------------------------------------------------------------------------
	           Coordinate      Previous         Force          Change          New 
	           ----------      --------        ------          ------        ------
	               R(1,2)       1.20000       20.49528        0.00604       1.20604
	-------------------------------------------------------------------------------

	                                 ==> Convergence Check <==                                  
    
	Measures of convergence in internal coordinates in au.
    
	Criteria marked as inactive (o), active & met (*), and active & unmet ( ).

	----------------------------------------------------------------------------------------------
	   Step    Total Energy     Delta E     Max Force     RMS Force      Max Disp      RMS Disp   
	----------------------------------------------------------------------------------------------
	  Convergence Criteria     1.00e-06 *    3.00e-04 *             o    1.20e-03 *             o
	----------------------------------------------------------------------------------------------
	     1    -639.53735818   -6.40e+02      2.49e+00      2.49e+00 o    1.14e-02      1.14e-02 o  ~
	----------------------------------------------------------------------------------------------

Next Geometry in Ang 
	Fragment 1 (Ang)

	   Al   0.0000000000   0.0000000000   0.6538125042
	    S   0.0000000000   0.0000000000  -0.5522302736


    Structure for next step:
    Molecular point group: c2v
    Full point group: C_inf_v

    Geometry (in Angstrom), charge = -1, multiplicity = 1:

    AL           0.000000000000     0.000000000000     0.654068270389
    S            0.000000000000     0.000000000000    -0.551974507453


Scratch directory: /tmp/
gradient() will perform analytic gradient computation.
   => Libint2 <=

    Primary   basis highest AM E, G, H:  6, 6, 3
    Auxiliary basis highest AM E, G, H:  7, 7, 4
    Onebody   basis highest AM E, G, H:  -, -, -
    Solid Harmonics ordering:            Gaussian

*** tstart() called on Joses-MacBook-Pro-2.local
*** at Thu Jul 17 11:39:10 2025

   => Loading Basis Set <=

    Name: CC-PVDZ
    Role: ORBITAL
    Keyword: BASIS
    atoms 1 entry AL         line   418 file /Users/joseantoniorodriguesromero/anaconda3/share/psi4/basis/cc-pvdz.gbs 
    atoms 2 entry S          line   598 file /Users/joseantoniorodriguesromero/anaconda3/share/psi4/basis/cc-pvdz.gbs 


         ---------------------------------------------------------
                                   SCF
               by Justin Turney, Rob Parrish, Andy Simmonett
                          and Daniel G. A. Smith
                              UKS Reference
                        1 Threads,    500 MiB Core
         ---------------------------------------------------------

  ==> Geometry <==

    Molecular point group: c2v
    Full point group: C_inf_v

    Geometry (in Angstrom), charge = -1, multiplicity = 1:

       Center              X                  Y                   Z               Mass       
    ------------   -----------------  -----------------  -----------------  -----------------
         AL           0.000000000000     0.000000000000     0.654068270389    26.981538530000
         S            0.000000000000     0.000000000000    -0.551974507453    31.972071174400

  Running in c2v symmetry.

  Rotational constants: A = ************  B =      0.79203  C =      0.79203 [cm^-1]
  Rotational constants: A = ************  B =  23744.59111  C =  23744.59111 [MHz]
  Nuclear repulsion =   91.264474064796332

  Charge       = -1
  Multiplicity = 1
  Electrons    = 30
  Nalpha       = 15
  Nbeta        = 15

  ==> Algorithm <==

  SCF Algorithm Type is DF.
  DIIS enabled.
  MOM disabled.
  Fractional occupation disabled.
  Guess Type is READ.
  Energy threshold   = 1.00e-08
  Density threshold  = 1.00e-08
  Integral threshold = 1.00e-12

  ==> Primary Basis <==

  Basis Set: CC-PVDZ
    Blend: CC-PVDZ
    Number of shells: 16
    Number of basis functions: 36
    Number of Cartesian functions: 38
    Spherical Harmonics?: true
    Max angular momentum: 2

  ==> DFT Potential <==

   => LibXC <=

    Version 6.2.2
    S. Lehtola, C. Steigemann, M. J.T. Oliveira, and M. A.L. Marques.,  SoftwareX 7, 1–5 (2018) (10.1016/j.softx.2017.11.002)

   => Composite Functional: B3LYP <= 

    B3LYP Hyb-GGA Exchange-Correlation Functional

    P. J. Stephens, F. J. Devlin, C. F. Chabalowski, and M. J. Frisch.,  J. Phys. Chem. 98, 11623 (1994) (10.1021/j100096a001)

    Deriv               =              1
    GGA                 =           TRUE
    Meta                =          FALSE

    Exchange Hybrid     =           TRUE
    MP2 Hybrid          =          FALSE

   => Exchange Functionals <=

    0.0800   Slater exchange
    0.7200         Becke 88

   => Exact (HF) Exchange <=

    0.2000               HF 

   => Correlation Functionals <=

    0.1900   Vosko, Wilk & Nusair (VWN5_RPA)
    0.8100   Lee, Yang & Parr

   => LibXC Density Thresholds  <==

    XC_HYB_GGA_XC_B3LYP:  1.00E-15 

   => Molecular Quadrature <=

    Radial Scheme          =       TREUTLER
    Pruning Scheme         =           NONE
    Nuclear Scheme         =       TREUTLER

    Blocking Scheme        =         OCTREE
    BS radius alpha        =              1
    Pruning alpha          =              1
    Radial Points          =             75
    Spherical Points       =            302
    Total Points           =          42559
    Total Blocks           =            402
    Max Points             =            254
    Max Functions          =             36
    Weights Tolerance      =       1.00E-15

   => Loading Basis Set <=

    Name: (CC-PVDZ AUX)
    Role: JKFIT
    Keyword: DF_BASIS_SCF
    atoms 1 entry AL         line   371 file /Users/joseantoniorodriguesromero/anaconda3/share/psi4/basis/cc-pvdz-jkfit.gbs 
    atoms 2 entry S          line   593 file /Users/joseantoniorodriguesromero/anaconda3/share/psi4/basis/cc-pvdz-jkfit.gbs 

   => Loading Basis Set <=

    Name: CC-PVDZ
    Role: ORBITAL
    Keyword: BASIS
    atoms 1 entry AL         line   418 file /Users/joseantoniorodriguesromero/anaconda3/share/psi4/basis/cc-pvdz.gbs 
    atoms 2 entry S          line   598 file /Users/joseantoniorodriguesromero/anaconda3/share/psi4/basis/cc-pvdz.gbs 

  Reading orbitals from file /tmp/singlet_AlS.default.73234.180.npy, no projection.

  ==> Integral Setup <==

  DFHelper Memory: AOs need 0.003 GiB; user supplied 0.323 GiB. 
  Using in-core AOs.

  ==> MemDFJK: Density-Fitted J/K Matrices <==

    J tasked:                   Yes
    K tasked:                   Yes
    wK tasked:                   No
    OpenMP threads:               1
    Memory [MiB]:               330
    Algorithm:                 Core
    Schwarz Cutoff:           1E-12
    Mask sparsity (%):       0.0000
    Fitting Condition:        1E-10

   => Auxiliary Basis Set <=

  Basis Set: (CC-PVDZ AUX)
    Blend: CC-PVDZ-JKFIT
    Number of shells: 72
    Number of basis functions: 224
    Number of Cartesian functions: 260
    Spherical Harmonics?: true
    Max angular momentum: 3

  Cached 100.0% of DFT collocation blocks in 0.043 [GiB].

  Minimum eigenvalue in the overlap matrix is 4.0103740637E-03.
  Reciprocal condition number of the overlap matrix is 1.2715037502E-03.
    Using symmetric orthogonalization.

  ==> Pre-Iterations <==

  SCF Guess: Orbitals guess was supplied from a previous computation.

   -------------------------------------------------------
    Irrep   Nso     Nmo     Nalpha   Nbeta   Ndocc  Nsocc
   -------------------------------------------------------
     A1        18      18       9       9       9       0
     A2         2       2       0       0       0       0
     B1         8       8       3       3       3       0
     B2         8       8       3       3       3       0
   -------------------------------------------------------
    Total      36      36      15      15      15       0
   -------------------------------------------------------

  ==> Iterations <==

                           Total Energy        Delta E     RMS |[F,P]|

   @DF-UKS iter   0:  -639.56034062800541   -6.39560e+02   2.52819e-03 
   @DF-UKS iter   1:  -639.56547208086477   -5.13145e-03   2.69035e-04 DIIS/ADIIS
   @DF-UKS iter   2:  -639.56547182792360    2.52941e-07   2.80270e-04 DIIS/ADIIS/DAMP=1%
   @DF-UKS iter   3:  -639.56603102221527   -5.59194e-04   1.34470e-05 DIIS/DAMP=1%
   @DF-UKS iter   4:  -639.56549926173932    5.31760e-04   4.44602e-06 DIIS/DAMP=1%
   @DF-UKS iter   5:  -639.56549895002877    3.11711e-07   5.94259e-07 DIIS/DAMP=1%
   @DF-UKS iter   6:  -639.56549616298798    2.78704e-06   1.67759e-08 DIIS/DAMP=1%
   @DF-UKS iter   7:  -639.56549529301083    8.69977e-07   3.56289e-09 DIIS/DAMP=1%
   @DF-UKS iter   8:  -639.56549531509984   -2.20890e-08   1.60197e-10 DIIS/DAMP=1%
   @DF-UKS iter   9:  -639.56549530942596    5.67388e-09   1.96181e-11 DIIS/DAMP=1%
  Energy and wave function converged.


  ==> Post-Iterations <==

   Electrons on quadrature grid:
      Nalpha   =   14.9999982804 ; deviation = -1.720e-06
      Nbeta    =   14.9999982804 ; deviation = -1.720e-06
      Ntotal   =   29.9999965607 ; deviation = -3.439e-06 

   @Spin Contamination Metric:   2.131628207E-14
   @S^2 Expected:                0.000000000E+00
   @S^2 Observed:                2.131628207E-14
   @S   Expected:                0.000000000E+00
   @S   Observed:                0.000000000E+00

    Orbital Energies [Eh]
    ---------------------

    Alpha Occupied:                                                       

       1A1   -88.611970     2A1   -55.801981     3A1    -7.745876  
       4A1    -5.720885     1B2    -5.685288     1B1    -5.685288  
       5A1    -4.006230     6A1    -2.587794     2B1    -2.519441  
       2B2    -2.519441     7A1    -0.482921     3B1    -0.131579  
       3B2    -0.131579     8A1    -0.076808     9A1     0.072911  

    Alpha Virtual:                                                        

       4B1     0.205262     4B2     0.205262    10A1     0.242967  
       5B1     0.392863     5B2     0.392863    11A1     0.398303  
       1A2     0.437129    12A1     0.437130     6B2     0.558258  
       6B1     0.558258    13A1     0.559436    14A1     0.645144  
       7B2     0.802018     7B1     0.802018     2A2     0.916211  
      15A1     0.916213    16A1     0.934159     8B1     1.148803  
       8B2     1.148803    17A1     1.316421    18A1     1.780983  

    Beta Occupied:                                                        

       1A1   -88.611970     2A1   -55.801981     3A1    -7.745876  
       4A1    -5.720885     1B2    -5.685288     1B1    -5.685288  
       5A1    -4.006230     6A1    -2.587794     2B1    -2.519441  
       2B2    -2.519441     7A1    -0.482921     3B1    -0.131579  
       3B2    -0.131579     8A1    -0.076808     9A1     0.072911  

    Beta Virtual:                                                         

       4B1     0.205262     4B2     0.205262    10A1     0.242967  
       5B1     0.392863     5B2     0.392863    11A1     0.398303  
       1A2     0.437129    12A1     0.437130     6B2     0.558258  
       6B1     0.558258    13A1     0.559436    14A1     0.645144  
       7B2     0.802018     7B1     0.802018     2A2     0.916211  
      15A1     0.916213    16A1     0.934159     8B1     1.148803  
       8B2     1.148803    17A1     1.316421    18A1     1.780983  

    Final Occupation by Irrep:
             A1    A2    B1    B2 
    DOCC [     9,    0,    3,    3 ]
    SOCC [     0,    0,    0,    0 ]
    NA   [     9,    0,    3,    3 ]
    NB   [     9,    0,    3,    3 ]

  @DF-UKS Final Energy:  -639.56549530942596

   => Energetics <=

    Nuclear Repulsion Energy =             91.2644740647963317
    One-Electron Energy =               -1072.5245215902759810
    Two-Electron Energy =                 378.0399828029961213
    DFT Exchange-Correlation Energy =     -36.3454305869424203
    Empirical Dispersion Energy =           0.0000000000000000
    VV10 Nonlocal Energy =                  0.0000000000000000
    Total Energy =                       -639.5654953094259554

  UHF NO Occupations:
  HONO-2 :    7 A1 2.0000000
  HONO-1 :    8 A1 2.0000000
  HONO-0 :    9 A1 2.0000000
  LUNO+0 :   10 A1 0.0000000
  LUNO+1 :   11 A1 0.0000000
  LUNO+2 :    4 B2 0.0000000
  LUNO+3 :    4 B1 0.0000000


Computation Completed


Properties will be evaluated at   0.000000,   0.000000,   0.000000 [a0]

Properties computed using the SCF density matrix


 Multipole Moments:

 ------------------------------------------------------------------------------------
     Multipole            Electronic (a.u.)      Nuclear  (a.u.)        Total (a.u.)
 ------------------------------------------------------------------------------------

 L = 1.  Multiply by 2.5417464519 to convert [e a0] to [Debye]
 Dipole X            :          0.0000000            0.0000000            0.0000000
 Dipole Y            :          0.0000000            0.0000000            0.0000000
 Dipole Z            :         -0.6322053           -0.6211617           -1.2533670
 Magnitude           :                                                    1.2533670

 ------------------------------------------------------------------------------------

*** tstop() called on Joses-MacBook-Pro-2.local at Thu Jul 17 11:39:11 2025
Module time:
	user time   =      10.30 seconds =       0.17 minutes
	system time =       2.65 seconds =       0.04 minutes
	total time  =          1 seconds =       0.02 minutes
Total time:
	user time   =      29.26 seconds =       0.49 minutes
	system time =       6.66 seconds =       0.11 minutes
	total time  =          3 seconds =       0.05 minutes

*** tstart() called on Joses-MacBook-Pro-2.local
*** at Thu Jul 17 11:39:11 2025


         ------------------------------------------------------------
                                   SCF GRAD                          
                          Rob Parrish, Justin Turney,                
                       Andy Simmonett, and Alex Sokolov              
         ------------------------------------------------------------

  ==> Geometry <==

    Molecular point group: c2v
    Full point group: C_inf_v

    Geometry (in Angstrom), charge = -1, multiplicity = 1:

       Center              X                  Y                   Z               Mass       
    ------------   -----------------  -----------------  -----------------  -----------------
         AL           0.000000000000     0.000000000000     0.654068270389    26.981538530000
         S            0.000000000000     0.000000000000    -0.551974507453    31.972071174400

  Nuclear repulsion =   91.264474064796332

  ==> Basis Set <==

  Basis Set: CC-PVDZ
    Blend: CC-PVDZ
    Number of shells: 16
    Number of basis functions: 36
    Number of Cartesian functions: 38
    Spherical Harmonics?: true
    Max angular momentum: 2

  ==> DFJKGrad: Density-Fitted SCF Gradients <==

    Gradient:                    1
    J tasked:                  Yes
    K tasked:                  Yes
    wK tasked:                  No
    OpenMP threads:              1
    Integrals threads:           1
    Memory [MiB]:              375
    Schwarz Cutoff:          1E-12
    Fitting Condition:       1E-10

   => Auxiliary Basis Set <=

  Basis Set: (CC-PVDZ AUX)
    Blend: CC-PVDZ-JKFIT
    Number of shells: 72
    Number of basis functions: 224
    Number of Cartesian functions: 260
    Spherical Harmonics?: true
    Max angular momentum: 3

  ==> DFT Potential <==

   => LibXC <=

    Version 6.2.2
    S. Lehtola, C. Steigemann, M. J.T. Oliveira, and M. A.L. Marques.,  SoftwareX 7, 1–5 (2018) (10.1016/j.softx.2017.11.002)

   => Composite Functional: B3LYP <= 

    B3LYP Hyb-GGA Exchange-Correlation Functional

    P. J. Stephens, F. J. Devlin, C. F. Chabalowski, and M. J. Frisch.,  J. Phys. Chem. 98, 11623 (1994) (10.1021/j100096a001)

    Deriv               =              1
    GGA                 =           TRUE
    Meta                =          FALSE

    Exchange Hybrid     =           TRUE
    MP2 Hybrid          =          FALSE

   => Exchange Functionals <=

    0.0800   Slater exchange
    0.7200         Becke 88

   => Exact (HF) Exchange <=

    0.2000               HF 

   => Correlation Functionals <=

    0.1900   Vosko, Wilk & Nusair (VWN5_RPA)
    0.8100   Lee, Yang & Parr

   => LibXC Density Thresholds  <==

    XC_HYB_GGA_XC_B3LYP:  1.00E-15 

   => Molecular Quadrature <=

    Radial Scheme          =       TREUTLER
    Pruning Scheme         =           NONE
    Nuclear Scheme         =       TREUTLER

    Blocking Scheme        =         OCTREE
    BS radius alpha        =              1
    Pruning alpha          =              1
    Radial Points          =             75
    Spherical Points       =            302
    Total Points           =          42559
    Total Blocks           =            402
    Max Points             =            254
    Max Functions          =             36
    Weights Tolerance      =       1.00E-15


  -Total Gradient:
     Atom            X                  Y                   Z
    ------   -----------------  -----------------  -----------------
       1       -0.000000000000     0.000000000000    -2.440378085782
       2        0.000000000000     0.000000000000     2.440460663435


*** tstop() called on Joses-MacBook-Pro-2.local at Thu Jul 17 11:39:12 2025
Module time:
	user time   =       2.88 seconds =       0.05 minutes
	system time =       1.32 seconds =       0.02 minutes
	total time  =          1 seconds =       0.02 minutes
Total time:
	user time   =      32.14 seconds =       0.54 minutes
	system time =       7.99 seconds =       0.13 minutes
	total time  =          4 seconds =       0.07 minutes

    			-----------------------------------------

    			 OPTKING 3.0: for geometry optimizations 

    			     By R.A. King, Bethel University     

    			        with contributions from          

    			    A.V. Copan, J. Cayton, A. Heide      

    			-----------------------------------------

    
	                            ===> Fragment 1 <== 

	 Z (Atomic Numbers)          Masses                          Geom                  
	      13.000000            26.981539          0.00000000  0.00000000  1.23600990   
	      16.000000            31.972071          0.00000000  0.00000000 -1.04308065   

	 - Coordinate -           - BOHR/RAD -       - ANG/DEG -
	 R(1,2)           =         2.279091           1.206043


	        --- Internal Coordinate Step in ANG or DEG, aJ/ANG or AJ/DEG ---
	-------------------------------------------------------------------------------
	           Coordinate      Previous         Force          Change          New 
	           ----------      --------        ------          ------        ------
	               R(1,2)       1.20604       20.10594        0.01185       1.21789
	-------------------------------------------------------------------------------

	                                 ==> Convergence Check <==                                  
    
	Measures of convergence in internal coordinates in au.
    
	Criteria marked as inactive (o), active & met (*), and active & unmet ( ).

	----------------------------------------------------------------------------------------------
	   Step    Total Energy     Delta E     Max Force     RMS Force      Max Disp      RMS Disp   
	----------------------------------------------------------------------------------------------
	  Convergence Criteria     1.00e-06 *    3.00e-04 *             o    1.20e-03 *             o
	----------------------------------------------------------------------------------------------
	     2    -639.56549531   -2.81e-02      2.44e+00      2.44e+00 o    2.24e-02      2.24e-02 o  ~
	----------------------------------------------------------------------------------------------

Next Geometry in Ang 
	Fragment 1 (Ang)

	   Al   0.0000000000   0.0000000000   0.6599940552
	    S   0.0000000000   0.0000000000  -0.5579002923


    Structure for next step:
    Molecular point group: c2v
    Full point group: C_inf_v

    Geometry (in Angstrom), charge = -1, multiplicity = 1:

    AL           0.000000000000     0.000000000000     0.660495683914
    S            0.000000000000     0.000000000000    -0.557398663578


Scratch directory: /tmp/
gradient() will perform analytic gradient computation.
   => Libint2 <=

    Primary   basis highest AM E, G, H:  6, 6, 3
    Auxiliary basis highest AM E, G, H:  7, 7, 4
    Onebody   basis highest AM E, G, H:  -, -, -
    Solid Harmonics ordering:            Gaussian

*** tstart() called on Joses-MacBook-Pro-2.local
*** at Thu Jul 17 11:39:12 2025

   => Loading Basis Set <=

    Name: CC-PVDZ
    Role: ORBITAL
    Keyword: BASIS
    atoms 1 entry AL         line   418 file /Users/joseantoniorodriguesromero/anaconda3/share/psi4/basis/cc-pvdz.gbs 
    atoms 2 entry S          line   598 file /Users/joseantoniorodriguesromero/anaconda3/share/psi4/basis/cc-pvdz.gbs 


         ---------------------------------------------------------
                                   SCF
               by Justin Turney, Rob Parrish, Andy Simmonett
                          and Daniel G. A. Smith
                              UKS Reference
                        1 Threads,    500 MiB Core
         ---------------------------------------------------------

  ==> Geometry <==

    Molecular point group: c2v
    Full point group: C_inf_v

    Geometry (in Angstrom), charge = -1, multiplicity = 1:

       Center              X                  Y                   Z               Mass       
    ------------   -----------------  -----------------  -----------------  -----------------
         AL           0.000000000000     0.000000000000     0.660495683914    26.981538530000
         S            0.000000000000     0.000000000000    -0.557398663578    31.972071174400

  Running in c2v symmetry.

  Rotational constants: A = ************  B =      0.77669  C =      0.77669 [cm^-1]
  Rotational constants: A = ************  B =  23284.71305  C =  23284.71305 [MHz]
  Nuclear repulsion =   90.376361501367541

  Charge       = -1
  Multiplicity = 1
  Electrons    = 30
  Nalpha       = 15
  Nbeta        = 15

  ==> Algorithm <==

  SCF Algorithm Type is DF.
  DIIS enabled.
  MOM disabled.
  Fractional occupation disabled.
  Guess Type is READ.
  Energy threshold   = 1.00e-08
  Density threshold  = 1.00e-08
  Integral threshold = 1.00e-12

  ==> Primary Basis <==

  Basis Set: CC-PVDZ
    Blend: CC-PVDZ
    Number of shells: 16
    Number of basis functions: 36
    Number of Cartesian functions: 38
    Spherical Harmonics?: true
    Max angular momentum: 2

  ==> DFT Potential <==

   => LibXC <=

    Version 6.2.2
    S. Lehtola, C. Steigemann, M. J.T. Oliveira, and M. A.L. Marques.,  SoftwareX 7, 1–5 (2018) (10.1016/j.softx.2017.11.002)

   => Composite Functional: B3LYP <= 

    B3LYP Hyb-GGA Exchange-Correlation Functional

    P. J. Stephens, F. J. Devlin, C. F. Chabalowski, and M. J. Frisch.,  J. Phys. Chem. 98, 11623 (1994) (10.1021/j100096a001)

    Deriv               =              1
    GGA                 =           TRUE
    Meta                =          FALSE

    Exchange Hybrid     =           TRUE
    MP2 Hybrid          =          FALSE

   => Exchange Functionals <=

    0.0800   Slater exchange
    0.7200         Becke 88

   => Exact (HF) Exchange <=

    0.2000               HF 

   => Correlation Functionals <=

    0.1900   Vosko, Wilk & Nusair (VWN5_RPA)
    0.8100   Lee, Yang & Parr

   => LibXC Density Thresholds  <==

    XC_HYB_GGA_XC_B3LYP:  1.00E-15 

   => Molecular Quadrature <=

    Radial Scheme          =       TREUTLER
    Pruning Scheme         =           NONE
    Nuclear Scheme         =       TREUTLER

    Blocking Scheme        =         OCTREE
    BS radius alpha        =              1
    Pruning alpha          =              1
    Radial Points          =             75
    Spherical Points       =            302
    Total Points           =          42559
    Total Blocks           =            401
    Max Points             =            253
    Max Functions          =             36
    Weights Tolerance      =       1.00E-15

   => Loading Basis Set <=

    Name: (CC-PVDZ AUX)
    Role: JKFIT
    Keyword: DF_BASIS_SCF
    atoms 1 entry AL         line   371 file /Users/joseantoniorodriguesromero/anaconda3/share/psi4/basis/cc-pvdz-jkfit.gbs 
    atoms 2 entry S          line   593 file /Users/joseantoniorodriguesromero/anaconda3/share/psi4/basis/cc-pvdz-jkfit.gbs 

   => Loading Basis Set <=

    Name: CC-PVDZ
    Role: ORBITAL
    Keyword: BASIS
    atoms 1 entry AL         line   418 file /Users/joseantoniorodriguesromero/anaconda3/share/psi4/basis/cc-pvdz.gbs 
    atoms 2 entry S          line   598 file /Users/joseantoniorodriguesromero/anaconda3/share/psi4/basis/cc-pvdz.gbs 

  Reading orbitals from file /tmp/singlet_AlS.default.73234.180.npy, no projection.

  ==> Integral Setup <==

  DFHelper Memory: AOs need 0.003 GiB; user supplied 0.323 GiB. 
  Using in-core AOs.

  ==> MemDFJK: Density-Fitted J/K Matrices <==

    J tasked:                   Yes
    K tasked:                   Yes
    wK tasked:                   No
    OpenMP threads:               1
    Memory [MiB]:               330
    Algorithm:                 Core
    Schwarz Cutoff:           1E-12
    Mask sparsity (%):       0.0000
    Fitting Condition:        1E-10

   => Auxiliary Basis Set <=

  Basis Set: (CC-PVDZ AUX)
    Blend: CC-PVDZ-JKFIT
    Number of shells: 72
    Number of basis functions: 224
    Number of Cartesian functions: 260
    Spherical Harmonics?: true
    Max angular momentum: 3

  Cached 100.0% of DFT collocation blocks in 0.043 [GiB].

  Minimum eigenvalue in the overlap matrix is 4.1288417725E-03.
  Reciprocal condition number of the overlap matrix is 1.3092741845E-03.
    Using symmetric orthogonalization.

  ==> Pre-Iterations <==

  SCF Guess: Orbitals guess was supplied from a previous computation.

   -------------------------------------------------------
    Irrep   Nso     Nmo     Nalpha   Nbeta   Ndocc  Nsocc
   -------------------------------------------------------
     A1        18      18       9       9       9       0
     A2         2       2       0       0       0       0
     B1         8       8       3       3       3       0
     B2         8       8       3       3       3       0
   -------------------------------------------------------
    Total      36      36      15      15      15       0
   -------------------------------------------------------

  ==> Iterations <==

                           Total Energy        Delta E     RMS |[F,P]|

   @DF-UKS iter   0:  -639.60949769948718   -6.39609e+02   4.94125e-03 
   @DF-UKS iter   1:  -639.61904321954796   -9.54552e-03   5.27447e-04 DIIS/ADIIS
   @DF-UKS iter   2:  -639.61904228621768    9.33330e-07   5.48218e-04 DIIS/ADIIS/DAMP=1%
   @DF-UKS iter   3:  -639.62017742844114   -1.13514e-03   2.66054e-05 DIIS/DAMP=1%
   @DF-UKS iter   4:  -639.61913889611242    1.03853e-03   8.59213e-06 DIIS/DAMP=1%
   @DF-UKS iter   5:  -639.61913936849760   -4.72385e-07   1.15357e-06 DIIS/DAMP=1%
   @DF-UKS iter   6:  -639.61913398814067    5.38036e-06   3.11554e-08 DIIS/DAMP=1%
   @DF-UKS iter   7:  -639.61913229847971    1.68966e-06   7.26724e-09 DIIS/DAMP=1%
   @DF-UKS iter   8:  -639.61913234160556   -4.31259e-08   3.07604e-10 DIIS/DAMP=1%
   @DF-UKS iter   9:  -639.61913233022972    1.13758e-08   3.41375e-11 DIIS/DAMP=1%
   @DF-UKS iter  10:  -639.61913233027633   -4.66116e-11   3.03635e-12 DIIS/DAMP=1%
  Energy and wave function converged.


  ==> Post-Iterations <==

   Electrons on quadrature grid:
      Nalpha   =   14.9999984795 ; deviation = -1.521e-06
      Nbeta    =   14.9999984795 ; deviation = -1.521e-06
      Ntotal   =   29.9999969590 ; deviation = -3.041e-06 

   @Spin Contamination Metric:  -2.309263891E-14
   @S^2 Expected:                0.000000000E+00
   @S^2 Observed:               -2.309263891E-14
   @S   Expected:                0.000000000E+00
   @S   Observed:                0.000000000E+00

    Orbital Energies [Eh]
    ---------------------

    Alpha Occupied:                                                       

       1A1   -88.605929     2A1   -55.794461     3A1    -7.738589  
       4A1    -5.712763     1B2    -5.679005     1B1    -5.679005  
       5A1    -3.995909     6A1    -2.577198     2B1    -2.511221  
       2B2    -2.511221     7A1    -0.483177     3B2    -0.128930  
       3B1    -0.128930     8A1    -0.078370     9A1     0.070589  

    Alpha Virtual:                                                        

       4B1     0.204951     4B2     0.204951    10A1     0.242707  
       5B2     0.393189     5B1     0.393189    11A1     0.398112  
       1A2     0.438643    12A1     0.438643    13A1     0.556824  
       6B2     0.557970     6B1     0.557970    14A1     0.641149  
       7B2     0.800953     7B1     0.800953     2A2     0.915691  
      15A1     0.915693    16A1     0.931612     8B2     1.149176  
       8B1     1.149176    17A1     1.310915    18A1     1.751871  

    Beta Occupied:                                                        

       1A1   -88.605929     2A1   -55.794461     3A1    -7.738589  
       4A1    -5.712763     1B2    -5.679005     1B1    -5.679005  
       5A1    -3.995909     6A1    -2.577198     2B1    -2.511221  
       2B2    -2.511221     7A1    -0.483177     3B2    -0.128930  
       3B1    -0.128930     8A1    -0.078370     9A1     0.070589  

    Beta Virtual:                                                         

       4B1     0.204951     4B2     0.204951    10A1     0.242707  
       5B2     0.393189     5B1     0.393189    11A1     0.398112  
       1A2     0.438643    12A1     0.438643    13A1     0.556824  
       6B2     0.557970     6B1     0.557970    14A1     0.641149  
       7B2     0.800953     7B1     0.800953     2A2     0.915691  
      15A1     0.915693    16A1     0.931612     8B2     1.149176  
       8B1     1.149176    17A1     1.310915    18A1     1.751871  

    Final Occupation by Irrep:
             A1    A2    B1    B2 
    DOCC [     9,    0,    3,    3 ]
    SOCC [     0,    0,    0,    0 ]
    NA   [     9,    0,    3,    3 ]
    NB   [     9,    0,    3,    3 ]

  @DF-UKS Final Energy:  -639.61913233027633

   => Energetics <=

    Nuclear Repulsion Energy =             90.3763615013675405
    One-Electron Energy =               -1071.0208941257023980
    Two-Electron Energy =                 377.3631547989459136
    DFT Exchange-Correlation Energy =     -36.3377545048873998
    Empirical Dispersion Energy =           0.0000000000000000
    VV10 Nonlocal Energy =                  0.0000000000000000
    Total Energy =                       -639.6191323302763294

  UHF NO Occupations:
  HONO-2 :    2 B1 2.0000000
  HONO-1 :    9 A1 2.0000000
  HONO-0 :    3 B1 2.0000000
  LUNO+0 :   10 A1 0.0000000
  LUNO+1 :   11 A1 0.0000000
  LUNO+2 :    4 B2 0.0000000
  LUNO+3 :   12 A1 0.0000000


Computation Completed


Properties will be evaluated at   0.000000,   0.000000,   0.000000 [a0]

Properties computed using the SCF density matrix


 Multipole Moments:

 ------------------------------------------------------------------------------------
     Multipole            Electronic (a.u.)      Nuclear  (a.u.)        Total (a.u.)
 ------------------------------------------------------------------------------------

 L = 1.  Multiply by 2.5417464519 to convert [e a0] to [Debye]
 Dipole X            :          0.0000000            0.0000000            0.0000000
 Dipole Y            :          0.0000000            0.0000000            0.0000000
 Dipole Z            :         -0.6142271           -0.6272657           -1.2414928
 Magnitude           :                                                    1.2414928

 ------------------------------------------------------------------------------------

*** tstop() called on Joses-MacBook-Pro-2.local at Thu Jul 17 11:39:13 2025
Module time:
	user time   =      11.94 seconds =       0.20 minutes
	system time =       2.81 seconds =       0.05 minutes
	total time  =          1 seconds =       0.02 minutes
Total time:
	user time   =      44.28 seconds =       0.74 minutes
	system time =      10.88 seconds =       0.18 minutes
	total time  =          5 seconds =       0.08 minutes

*** tstart() called on Joses-MacBook-Pro-2.local
*** at Thu Jul 17 11:39:13 2025


         ------------------------------------------------------------
                                   SCF GRAD                          
                          Rob Parrish, Justin Turney,                
                       Andy Simmonett, and Alex Sokolov              
         ------------------------------------------------------------

  ==> Geometry <==

    Molecular point group: c2v
    Full point group: C_inf_v

    Geometry (in Angstrom), charge = -1, multiplicity = 1:

       Center              X                  Y                   Z               Mass       
    ------------   -----------------  -----------------  -----------------  -----------------
         AL           0.000000000000     0.000000000000     0.660495683914    26.981538530000
         S            0.000000000000     0.000000000000    -0.557398663578    31.972071174400

  Nuclear repulsion =   90.376361501367541

  ==> Basis Set <==

  Basis Set: CC-PVDZ
    Blend: CC-PVDZ
    Number of shells: 16
    Number of basis functions: 36
    Number of Cartesian functions: 38
    Spherical Harmonics?: true
    Max angular momentum: 2

  ==> DFJKGrad: Density-Fitted SCF Gradients <==

    Gradient:                    1
    J tasked:                  Yes
    K tasked:                  Yes
    wK tasked:                  No
    OpenMP threads:              1
    Integrals threads:           1
    Memory [MiB]:              375
    Schwarz Cutoff:          1E-12
    Fitting Condition:       1E-10

   => Auxiliary Basis Set <=

  Basis Set: (CC-PVDZ AUX)
    Blend: CC-PVDZ-JKFIT
    Number of shells: 72
    Number of basis functions: 224
    Number of Cartesian functions: 260
    Spherical Harmonics?: true
    Max angular momentum: 3

  ==> DFT Potential <==

   => LibXC <=

    Version 6.2.2
    S. Lehtola, C. Steigemann, M. J.T. Oliveira, and M. A.L. Marques.,  SoftwareX 7, 1–5 (2018) (10.1016/j.softx.2017.11.002)

   => Composite Functional: B3LYP <= 

    B3LYP Hyb-GGA Exchange-Correlation Functional

    P. J. Stephens, F. J. Devlin, C. F. Chabalowski, and M. J. Frisch.,  J. Phys. Chem. 98, 11623 (1994) (10.1021/j100096a001)

    Deriv               =              1
    GGA                 =           TRUE
    Meta                =          FALSE

    Exchange Hybrid     =           TRUE
    MP2 Hybrid          =          FALSE

   => Exchange Functionals <=

    0.0800   Slater exchange
    0.7200         Becke 88

   => Exact (HF) Exchange <=

    0.2000               HF 

   => Correlation Functionals <=

    0.1900   Vosko, Wilk & Nusair (VWN5_RPA)
    0.8100   Lee, Yang & Parr

   => LibXC Density Thresholds  <==

    XC_HYB_GGA_XC_B3LYP:  1.00E-15 

   => Molecular Quadrature <=

    Radial Scheme          =       TREUTLER
    Pruning Scheme         =           NONE
    Nuclear Scheme         =       TREUTLER

    Blocking Scheme        =         OCTREE
    BS radius alpha        =              1
    Pruning alpha          =              1
    Radial Points          =             75
    Spherical Points       =            302
    Total Points           =          42559
    Total Blocks           =            401
    Max Points             =            253
    Max Functions          =             36
    Weights Tolerance      =       1.00E-15


  -Total Gradient:
     Atom            X                  Y                   Z
    ------   -----------------  -----------------  -----------------
       1        0.000000000000    -0.000000000000    -2.349738739951
       2        0.000000000000     0.000000000000     2.349804024776


*** tstop() called on Joses-MacBook-Pro-2.local at Thu Jul 17 11:39:14 2025
Module time:
	user time   =       3.33 seconds =       0.06 minutes
	system time =       1.58 seconds =       0.03 minutes
	total time  =          1 seconds =       0.02 minutes
Total time:
	user time   =      47.61 seconds =       0.79 minutes
	system time =      12.46 seconds =       0.21 minutes
	total time  =          6 seconds =       0.10 minutes

    			-----------------------------------------

    			 OPTKING 3.0: for geometry optimizations 

    			     By R.A. King, Bethel University     

    			        with contributions from          

    			    A.V. Copan, J. Cayton, A. Heide      

    			-----------------------------------------

    
	                            ===> Fragment 1 <== 

	 Z (Atomic Numbers)          Masses                          Geom                  
	      13.000000            26.981539          0.00000000  0.00000000  1.24815595   
	      16.000000            31.972071          0.00000000  0.00000000 -1.05333082   

	 - Coordinate -           - BOHR/RAD -       - ANG/DEG -
	 R(1,2)           =         2.301487           1.217894


	        --- Internal Coordinate Step in ANG or DEG, aJ/ANG or AJ/DEG ---
	-------------------------------------------------------------------------------
	           Coordinate      Previous         Force          Change          New 
	           ----------      --------        ------          ------        ------
	               R(1,2)       1.21789       19.35912        0.04533       1.26323
	-------------------------------------------------------------------------------

	                                 ==> Convergence Check <==                                  
    
	Measures of convergence in internal coordinates in au.
    
	Criteria marked as inactive (o), active & met (*), and active & unmet ( ).

	----------------------------------------------------------------------------------------------
	   Step    Total Energy     Delta E     Max Force     RMS Force      Max Disp      RMS Disp   
	----------------------------------------------------------------------------------------------
	  Convergence Criteria     1.00e-06 *    3.00e-04 *             o    1.20e-03 *             o
	----------------------------------------------------------------------------------------------
	     3    -639.61913233   -5.36e-02      2.35e+00      2.35e+00 o    8.57e-02      8.57e-02 o  ~
	----------------------------------------------------------------------------------------------

Next Geometry in Ang 
	Fragment 1 (Ang)

	   Al   0.0000000000   0.0000000000   0.6831622599
	    S   0.0000000000   0.0000000000  -0.5800652396


    Structure for next step:
    Molecular point group: c2v
    Full point group: C_inf_v

    Geometry (in Angstrom), charge = -1, multiplicity = 1:

    AL           0.000000000000     0.000000000000     0.685081027727
    S            0.000000000000     0.000000000000    -0.578146471806


Scratch directory: /tmp/
gradient() will perform analytic gradient computation.
   => Libint2 <=

    Primary   basis highest AM E, G, H:  6, 6, 3
    Auxiliary basis highest AM E, G, H:  7, 7, 4
    Onebody   basis highest AM E, G, H:  -, -, -
    Solid Harmonics ordering:            Gaussian

*** tstart() called on Joses-MacBook-Pro-2.local
*** at Thu Jul 17 11:39:14 2025

   => Loading Basis Set <=

    Name: CC-PVDZ
    Role: ORBITAL
    Keyword: BASIS
    atoms 1 entry AL         line   418 file /Users/joseantoniorodriguesromero/anaconda3/share/psi4/basis/cc-pvdz.gbs 
    atoms 2 entry S          line   598 file /Users/joseantoniorodriguesromero/anaconda3/share/psi4/basis/cc-pvdz.gbs 


         ---------------------------------------------------------
                                   SCF
               by Justin Turney, Rob Parrish, Andy Simmonett
                          and Daniel G. A. Smith
                              UKS Reference
                        1 Threads,    500 MiB Core
         ---------------------------------------------------------

  ==> Geometry <==

    Molecular point group: c2v
    Full point group: C_inf_v

    Geometry (in Angstrom), charge = -1, multiplicity = 1:

       Center              X                  Y                   Z               Mass       
    ------------   -----------------  -----------------  -----------------  -----------------
         AL           0.000000000000     0.000000000000     0.685081027727    26.981538530000
         S            0.000000000000     0.000000000000    -0.578146471806    31.972071174400

  Running in c2v symmetry.

  Rotational constants: A = ************  B =      0.72195  C =      0.72195 [cm^-1]
  Rotational constants: A = ************  B =  21643.47432  C =  21643.47432 [MHz]
  Nuclear repulsion =   87.133045995321027

  Charge       = -1
  Multiplicity = 1
  Electrons    = 30
  Nalpha       = 15
  Nbeta        = 15

  ==> Algorithm <==

  SCF Algorithm Type is DF.
  DIIS enabled.
  MOM disabled.
  Fractional occupation disabled.
  Guess Type is READ.
  Energy threshold   = 1.00e-08
  Density threshold  = 1.00e-08
  Integral threshold = 1.00e-12

  ==> Primary Basis <==

  Basis Set: CC-PVDZ
    Blend: CC-PVDZ
    Number of shells: 16
    Number of basis functions: 36
    Number of Cartesian functions: 38
    Spherical Harmonics?: true
    Max angular momentum: 2

  ==> DFT Potential <==

   => LibXC <=

    Version 6.2.2
    S. Lehtola, C. Steigemann, M. J.T. Oliveira, and M. A.L. Marques.,  SoftwareX 7, 1–5 (2018) (10.1016/j.softx.2017.11.002)

   => Composite Functional: B3LYP <= 

    B3LYP Hyb-GGA Exchange-Correlation Functional

    P. J. Stephens, F. J. Devlin, C. F. Chabalowski, and M. J. Frisch.,  J. Phys. Chem. 98, 11623 (1994) (10.1021/j100096a001)

    Deriv               =              1
    GGA                 =           TRUE
    Meta                =          FALSE

    Exchange Hybrid     =           TRUE
    MP2 Hybrid          =          FALSE

   => Exchange Functionals <=

    0.0800   Slater exchange
    0.7200         Becke 88

   => Exact (HF) Exchange <=

    0.2000               HF 

   => Correlation Functionals <=

    0.1900   Vosko, Wilk & Nusair (VWN5_RPA)
    0.8100   Lee, Yang & Parr

   => LibXC Density Thresholds  <==

    XC_HYB_GGA_XC_B3LYP:  1.00E-15 

   => Molecular Quadrature <=

    Radial Scheme          =       TREUTLER
    Pruning Scheme         =           NONE
    Nuclear Scheme         =       TREUTLER

    Blocking Scheme        =         OCTREE
    BS radius alpha        =              1
    Pruning alpha          =              1
    Radial Points          =             75
    Spherical Points       =            302
    Total Points           =          42572
    Total Blocks           =            400
    Max Points             =            256
    Max Functions          =             36
    Weights Tolerance      =       1.00E-15

   => Loading Basis Set <=

    Name: (CC-PVDZ AUX)
    Role: JKFIT
    Keyword: DF_BASIS_SCF
    atoms 1 entry AL         line   371 file /Users/joseantoniorodriguesromero/anaconda3/share/psi4/basis/cc-pvdz-jkfit.gbs 
    atoms 2 entry S          line   593 file /Users/joseantoniorodriguesromero/anaconda3/share/psi4/basis/cc-pvdz-jkfit.gbs 

   => Loading Basis Set <=

    Name: CC-PVDZ
    Role: ORBITAL
    Keyword: BASIS
    atoms 1 entry AL         line   418 file /Users/joseantoniorodriguesromero/anaconda3/share/psi4/basis/cc-pvdz.gbs 
    atoms 2 entry S          line   598 file /Users/joseantoniorodriguesromero/anaconda3/share/psi4/basis/cc-pvdz.gbs 

  Reading orbitals from file /tmp/singlet_AlS.default.73234.180.npy, no projection.

  ==> Integral Setup <==

  DFHelper Memory: AOs need 0.003 GiB; user supplied 0.323 GiB. 
  Using in-core AOs.

  ==> MemDFJK: Density-Fitted J/K Matrices <==

    J tasked:                   Yes
    K tasked:                   Yes
    wK tasked:                   No
    OpenMP threads:               1
    Memory [MiB]:               330
    Algorithm:                 Core
    Schwarz Cutoff:           1E-12
    Mask sparsity (%):       0.0000
    Fitting Condition:        1E-10

   => Auxiliary Basis Set <=

  Basis Set: (CC-PVDZ AUX)
    Blend: CC-PVDZ-JKFIT
    Number of shells: 72
    Number of basis functions: 224
    Number of Cartesian functions: 260
    Spherical Harmonics?: true
    Max angular momentum: 3

  Cached 100.0% of DFT collocation blocks in 0.043 [GiB].

  Minimum eigenvalue in the overlap matrix is 4.6132763133E-03.
  Reciprocal condition number of the overlap matrix is 1.4639211133E-03.
    Using symmetric orthogonalization.

  ==> Pre-Iterations <==

  SCF Guess: Orbitals guess was supplied from a previous computation.

   -------------------------------------------------------
    Irrep   Nso     Nmo     Nalpha   Nbeta   Ndocc  Nsocc
   -------------------------------------------------------
     A1        18      18       9       9       9       0
     A2         2       2       0       0       0       0
     B1         8       8       3       3       3       0
     B2         8       8       3       3       3       0
   -------------------------------------------------------
    Total      36      36      15      15      15       0
   -------------------------------------------------------

  ==> Iterations <==

                           Total Energy        Delta E     RMS |[F,P]|

   @DF-UKS iter   0:  -639.77707515055135   -6.39777e+02   1.85946e-02 
   @DF-UKS iter   1:  -639.80501083391982   -2.79357e-02   2.02440e-03 DIIS/ADIIS
   @DF-UKS iter   2:  -639.80501014959395    6.84326e-07   2.07951e-03 DIIS/ADIIS/DAMP=1%
   @DF-UKS iter   3:  -639.81023000122377   -5.21985e-03   1.05596e-04 DIIS/ADIIS/DAMP=1%
   @DF-UKS iter   4:  -639.80632866858139    3.90133e-03   3.26290e-05 DIIS/DAMP=1%
   @DF-UKS iter   5:  -639.80634305095907   -1.43824e-05   4.33890e-06 DIIS/DAMP=1%
   @DF-UKS iter   6:  -639.80632366181328    1.93891e-05   1.10112e-07 DIIS/DAMP=1%
   @DF-UKS iter   7:  -639.80631724833097    6.41348e-06   3.53457e-08 DIIS/DAMP=1%
   @DF-UKS iter   8:  -639.80631741343666   -1.65106e-07   1.27979e-09 DIIS/DAMP=1%
   @DF-UKS iter   9:  -639.80631736117800    5.22587e-08   1.16451e-10 DIIS/DAMP=1%
   @DF-UKS iter  10:  -639.80631736020757    9.70431e-10   1.13827e-11 DIIS/DAMP=1%
  Energy and wave function converged.


  ==> Post-Iterations <==

   Electrons on quadrature grid:
      Nalpha   =   14.9999991710 ; deviation = -8.290e-07
      Nbeta    =   14.9999991710 ; deviation = -8.290e-07
      Ntotal   =   29.9999983421 ; deviation = -1.658e-06 

   @Spin Contamination Metric:   0.000000000E+00
   @S^2 Expected:                0.000000000E+00
   @S^2 Observed:                0.000000000E+00
   @S   Expected:                0.000000000E+00
   @S   Observed:                0.000000000E+00

    Orbital Energies [Eh]
    ---------------------

    Alpha Occupied:                                                       

       1A1   -88.586857     2A1   -55.771350     3A1    -7.714765  
       4A1    -5.685924     1B2    -5.658546     1B1    -5.658546  
       5A1    -3.962002     6A1    -2.541190     2B1    -2.484490  
       2B2    -2.484490     7A1    -0.484272     3B1    -0.119406  
       3B2    -0.119406     8A1    -0.084617     9A1     0.062288  

    Alpha Virtual:                                                        

       4B1     0.203551     4B2     0.203551    10A1     0.241687  
       5B1     0.394348     5B2     0.394348    11A1     0.397160  
       1A2     0.444052    12A1     0.444052    13A1     0.547686  
       6B1     0.556715     6B2     0.556715    14A1     0.626567  
       7B1     0.796865     7B2     0.796865     2A2     0.913358  
      15A1     0.913359    16A1     0.922520     8B1     1.149906  
       8B2     1.149906    17A1     1.289281    18A1     1.657046  

    Beta Occupied:                                                        

       1A1   -88.586857     2A1   -55.771350     3A1    -7.714765  
       4A1    -5.685924     1B2    -5.658546     1B1    -5.658546  
       5A1    -3.962002     6A1    -2.541190     2B1    -2.484490  
       2B2    -2.484490     7A1    -0.484272     3B1    -0.119406  
       3B2    -0.119406     8A1    -0.084617     9A1     0.062288  

    Beta Virtual:                                                         

       4B1     0.203551     4B2     0.203551    10A1     0.241687  
       5B1     0.394348     5B2     0.394348    11A1     0.397160  
       1A2     0.444052    12A1     0.444052    13A1     0.547686  
       6B1     0.556715     6B2     0.556715    14A1     0.626567  
       7B1     0.796865     7B2     0.796865     2A2     0.913358  
      15A1     0.913359    16A1     0.922520     8B1     1.149906  
       8B2     1.149906    17A1     1.289281    18A1     1.657046  

    Final Occupation by Irrep:
             A1    A2    B1    B2 
    DOCC [     9,    0,    3,    3 ]
    SOCC [     0,    0,    0,    0 ]
    NA   [     9,    0,    3,    3 ]
    NB   [     9,    0,    3,    3 ]

  @DF-UKS Final Energy:  -639.80631736020757

   => Energetics <=

    Nuclear Repulsion Energy =             87.1330459953210266
    One-Electron Energy =               -1065.4501571316945956
    Two-Electron Energy =                 374.8185312990398756
    DFT Exchange-Correlation Energy =     -36.3077375228739569
    Empirical Dispersion Energy =           0.0000000000000000
    VV10 Nonlocal Energy =                  0.0000000000000000
    Total Energy =                       -639.8063173602075722

  UHF NO Occupations:
  HONO-2 :    8 A1 2.0000000
  HONO-1 :    9 A1 2.0000000
  HONO-0 :    3 B2 2.0000000
  LUNO+0 :    4 B2 0.0000000
  LUNO+1 :    4 B1 0.0000000
  LUNO+2 :   10 A1 0.0000000
  LUNO+3 :    5 B1 0.0000000


Computation Completed


Properties will be evaluated at   0.000000,   0.000000,   0.000000 [a0]

Properties computed using the SCF density matrix


 Multipole Moments:

 ------------------------------------------------------------------------------------
     Multipole            Electronic (a.u.)      Nuclear  (a.u.)        Total (a.u.)
 ------------------------------------------------------------------------------------

 L = 1.  Multiply by 2.5417464519 to convert [e a0] to [Debye]
 Dipole X            :          0.0000000            0.0000000            0.0000000
 Dipole Y            :          0.0000000            0.0000000            0.0000000
 Dipole Z            :         -0.5465148           -0.6506142           -1.1971289
 Magnitude           :                                                    1.1971289

 ------------------------------------------------------------------------------------

*** tstop() called on Joses-MacBook-Pro-2.local at Thu Jul 17 11:39:15 2025
Module time:
	user time   =      12.10 seconds =       0.20 minutes
	system time =       2.52 seconds =       0.04 minutes
	total time  =          1 seconds =       0.02 minutes
Total time:
	user time   =      59.91 seconds =       1.00 minutes
	system time =      15.09 seconds =       0.25 minutes
	total time  =          7 seconds =       0.12 minutes

*** tstart() called on Joses-MacBook-Pro-2.local
*** at Thu Jul 17 11:39:15 2025


         ------------------------------------------------------------
                                   SCF GRAD                          
                          Rob Parrish, Justin Turney,                
                       Andy Simmonett, and Alex Sokolov              
         ------------------------------------------------------------

  ==> Geometry <==

    Molecular point group: c2v
    Full point group: C_inf_v

    Geometry (in Angstrom), charge = -1, multiplicity = 1:

       Center              X                  Y                   Z               Mass       
    ------------   -----------------  -----------------  -----------------  -----------------
         AL           0.000000000000     0.000000000000     0.685081027727    26.981538530000
         S            0.000000000000     0.000000000000    -0.578146471806    31.972071174400

  Nuclear repulsion =   87.133045995321027

  ==> Basis Set <==

  Basis Set: CC-PVDZ
    Blend: CC-PVDZ
    Number of shells: 16
    Number of basis functions: 36
    Number of Cartesian functions: 38
    Spherical Harmonics?: true
    Max angular momentum: 2

  ==> DFJKGrad: Density-Fitted SCF Gradients <==

    Gradient:                    1
    J tasked:                  Yes
    K tasked:                  Yes
    wK tasked:                  No
    OpenMP threads:              1
    Integrals threads:           1
    Memory [MiB]:              375
    Schwarz Cutoff:          1E-12
    Fitting Condition:       1E-10

   => Auxiliary Basis Set <=

  Basis Set: (CC-PVDZ AUX)
    Blend: CC-PVDZ-JKFIT
    Number of shells: 72
    Number of basis functions: 224
    Number of Cartesian functions: 260
    Spherical Harmonics?: true
    Max angular momentum: 3

  ==> DFT Potential <==

   => LibXC <=

    Version 6.2.2
    S. Lehtola, C. Steigemann, M. J.T. Oliveira, and M. A.L. Marques.,  SoftwareX 7, 1–5 (2018) (10.1016/j.softx.2017.11.002)

   => Composite Functional: B3LYP <= 

    B3LYP Hyb-GGA Exchange-Correlation Functional

    P. J. Stephens, F. J. Devlin, C. F. Chabalowski, and M. J. Frisch.,  J. Phys. Chem. 98, 11623 (1994) (10.1021/j100096a001)

    Deriv               =              1
    GGA                 =           TRUE
    Meta                =          FALSE

    Exchange Hybrid     =           TRUE
    MP2 Hybrid          =          FALSE

   => Exchange Functionals <=

    0.0800   Slater exchange
    0.7200         Becke 88

   => Exact (HF) Exchange <=

    0.2000               HF 

   => Correlation Functionals <=

    0.1900   Vosko, Wilk & Nusair (VWN5_RPA)
    0.8100   Lee, Yang & Parr

   => LibXC Density Thresholds  <==

    XC_HYB_GGA_XC_B3LYP:  1.00E-15 

   => Molecular Quadrature <=

    Radial Scheme          =       TREUTLER
    Pruning Scheme         =           NONE
    Nuclear Scheme         =       TREUTLER

    Blocking Scheme        =         OCTREE
    BS radius alpha        =              1
    Pruning alpha          =              1
    Radial Points          =             75
    Spherical Points       =            302
    Total Points           =          42572
    Total Blocks           =            400
    Max Points             =            256
    Max Functions          =             36
    Weights Tolerance      =       1.00E-15


  -Total Gradient:
     Atom            X                  Y                   Z
    ------   -----------------  -----------------  -----------------
       1        0.000000000000    -0.000000000000    -2.026059344791
       2        0.000000000000     0.000000000000     2.026081928590


*** tstop() called on Joses-MacBook-Pro-2.local at Thu Jul 17 11:39:16 2025
Module time:
	user time   =       2.90 seconds =       0.05 minutes
	system time =       1.64 seconds =       0.03 minutes
	total time  =          1 seconds =       0.02 minutes
Total time:
	user time   =      62.81 seconds =       1.05 minutes
	system time =      16.74 seconds =       0.28 minutes
	total time  =          8 seconds =       0.13 minutes

    			-----------------------------------------

    			 OPTKING 3.0: for geometry optimizations 

    			     By R.A. King, Bethel University     

    			        with contributions from          

    			    A.V. Copan, J. Cayton, A. Heide      

    			-----------------------------------------

    
	                            ===> Fragment 1 <== 

	 Z (Atomic Numbers)          Masses                          Geom                  
	      13.000000            26.981539          0.00000000  0.00000000  1.29461552   
	      16.000000            31.972071          0.00000000  0.00000000 -1.09253849   

	 - Coordinate -           - BOHR/RAD -       - ANG/DEG -
	 R(1,2)           =         2.387154           1.263227


	        --- Internal Coordinate Step in ANG or DEG, aJ/ANG or AJ/DEG ---
	-------------------------------------------------------------------------------
	           Coordinate      Previous         Force          Change          New 
	           ----------      --------        ------          ------        ------
	               R(1,2)       1.26323       16.69224        0.22662       1.48985
	-------------------------------------------------------------------------------

	                                 ==> Convergence Check <==                                  
    
	Measures of convergence in internal coordinates in au.
    
	Criteria marked as inactive (o), active & met (*), and active & unmet ( ).

	----------------------------------------------------------------------------------------------
	   Step    Total Energy     Delta E     Max Force     RMS Force      Max Disp      RMS Disp   
	----------------------------------------------------------------------------------------------
	  Convergence Criteria     1.00e-06 *    3.00e-04 *             o    1.20e-03 *             o
	----------------------------------------------------------------------------------------------
	     4    -639.80631736   -1.87e-01      2.03e+00      2.03e+00 o    4.28e-01      4.28e-01 o  ~
	----------------------------------------------------------------------------------------------

Next Geometry in Ang 
	Fragment 1 (Ang)

	   Al   0.0000000000   0.0000000000   0.7983912577
	    S   0.0000000000   0.0000000000  -0.6914567018


    Structure for next step:
    Molecular point group: c2v
    Full point group: C_inf_v

    Geometry (in Angstrom), charge = -1, multiplicity = 1:

    AL           0.000000000000     0.000000000000     0.807983179329
    S            0.000000000000     0.000000000000    -0.681864780224


Scratch directory: /tmp/
gradient() will perform analytic gradient computation.
   => Libint2 <=

    Primary   basis highest AM E, G, H:  6, 6, 3
    Auxiliary basis highest AM E, G, H:  7, 7, 4
    Onebody   basis highest AM E, G, H:  -, -, -
    Solid Harmonics ordering:            Gaussian

*** tstart() called on Joses-MacBook-Pro-2.local
*** at Thu Jul 17 11:39:16 2025

   => Loading Basis Set <=

    Name: CC-PVDZ
    Role: ORBITAL
    Keyword: BASIS
    atoms 1 entry AL         line   418 file /Users/joseantoniorodriguesromero/anaconda3/share/psi4/basis/cc-pvdz.gbs 
    atoms 2 entry S          line   598 file /Users/joseantoniorodriguesromero/anaconda3/share/psi4/basis/cc-pvdz.gbs 


         ---------------------------------------------------------
                                   SCF
               by Justin Turney, Rob Parrish, Andy Simmonett
                          and Daniel G. A. Smith
                              UKS Reference
                        1 Threads,    500 MiB Core
         ---------------------------------------------------------

  ==> Geometry <==

    Molecular point group: c2v
    Full point group: C_inf_v

    Geometry (in Angstrom), charge = -1, multiplicity = 1:

       Center              X                  Y                   Z               Mass       
    ------------   -----------------  -----------------  -----------------  -----------------
         AL           0.000000000000     0.000000000000     0.807983179329    26.981538530000
         S            0.000000000000     0.000000000000    -0.681864780224    31.972071174400

  Running in c2v symmetry.

  Rotational constants: A = ************  B =      0.51902  C =      0.51902 [cm^-1]
  Rotational constants: A = ************  B =  15559.87913  C =  15559.87913 [MHz]
  Nuclear repulsion =   73.879256680932130

  Charge       = -1
  Multiplicity = 1
  Electrons    = 30
  Nalpha       = 15
  Nbeta        = 15

  ==> Algorithm <==

  SCF Algorithm Type is DF.
  DIIS enabled.
  MOM disabled.
  Fractional occupation disabled.
  Guess Type is READ.
  Energy threshold   = 1.00e-08
  Density threshold  = 1.00e-08
  Integral threshold = 1.00e-12

  ==> Primary Basis <==

  Basis Set: CC-PVDZ
    Blend: CC-PVDZ
[...]
    
	Criteria marked as inactive (o), active & met (*), and active & unmet ( ).

	----------------------------------------------------------------------------------------------
	   Step    Total Energy     Delta E     Max Force     RMS Force      Max Disp      RMS Disp   
	----------------------------------------------------------------------------------------------
	  Convergence Criteria     1.00e-06 *    3.00e-04 *             o    1.20e-03 *             o
	----------------------------------------------------------------------------------------------
	    13    -640.73830048   -7.01e-06      5.61e-04      5.61e-04 o    2.67e-03      2.67e-03 o  ~
	----------------------------------------------------------------------------------------------

Next Geometry in Ang 
	Fragment 1 (Ang)

	   Al   0.0000000000   0.0000000000   1.1528885787
	    S   0.0000000000   0.0000000000  -0.9730441677


    Structure for next step:
    Molecular point group: c2v
    Full point group: C_inf_v

    Geometry (in Angstrom), charge = -1, multiplicity = 1:

    AL           0.000000000000     0.000000000000     1.152948452527
    S            0.000000000000     0.000000000000    -0.972984293863


Scratch directory: /tmp/
gradient() will perform analytic gradient computation.
   => Libint2 <=

    Primary   basis highest AM E, G, H:  6, 6, 3
    Auxiliary basis highest AM E, G, H:  7, 7, 4
    Onebody   basis highest AM E, G, H:  -, -, -
    Solid Harmonics ordering:            Gaussian

*** tstart() called on Joses-MacBook-Pro-2.local
*** at Thu Jul 17 11:39:34 2025

   => Loading Basis Set <=

    Name: CC-PVDZ
    Role: ORBITAL
    Keyword: BASIS
    atoms 1 entry AL         line   418 file /Users/joseantoniorodriguesromero/anaconda3/share/psi4/basis/cc-pvdz.gbs 
    atoms 2 entry S          line   598 file /Users/joseantoniorodriguesromero/anaconda3/share/psi4/basis/cc-pvdz.gbs 


         ---------------------------------------------------------
                                   SCF
               by Justin Turney, Rob Parrish, Andy Simmonett
                          and Daniel G. A. Smith
                              UKS Reference
                        1 Threads,    500 MiB Core
         ---------------------------------------------------------

  ==> Geometry <==

    Molecular point group: c2v
    Full point group: C_inf_v

    Geometry (in Angstrom), charge = -1, multiplicity = 1:

       Center              X                  Y                   Z               Mass       
    ------------   -----------------  -----------------  -----------------  -----------------
         AL           0.000000000000     0.000000000000     1.152948452527    26.981538530000
         S            0.000000000000     0.000000000000    -0.972984293863    31.972071174400

  Running in c2v symmetry.

  Rotational constants: A = ************  B =      0.25490  C =      0.25490 [cm^-1]
  Rotational constants: A = ************  B =   7641.71923  C =   7641.71923 [MHz]
  Nuclear repulsion =   51.774384681862919

  Charge       = -1
  Multiplicity = 1
  Electrons    = 30
  Nalpha       = 15
  Nbeta        = 15

  ==> Algorithm <==

  SCF Algorithm Type is DF.
  DIIS enabled.
  MOM disabled.
  Fractional occupation disabled.
  Guess Type is READ.
  Energy threshold   = 1.00e-08
  Density threshold  = 1.00e-08
  Integral threshold = 1.00e-12

  ==> Primary Basis <==

  Basis Set: CC-PVDZ
    Blend: CC-PVDZ
    Number of shells: 16
    Number of basis functions: 36
    Number of Cartesian functions: 38
    Spherical Harmonics?: true
    Max angular momentum: 2

  ==> DFT Potential <==

   => LibXC <=

    Version 6.2.2
    S. Lehtola, C. Steigemann, M. J.T. Oliveira, and M. A.L. Marques.,  SoftwareX 7, 1–5 (2018) (10.1016/j.softx.2017.11.002)

   => Composite Functional: B3LYP <= 

    B3LYP Hyb-GGA Exchange-Correlation Functional

    P. J. Stephens, F. J. Devlin, C. F. Chabalowski, and M. J. Frisch.,  J. Phys. Chem. 98, 11623 (1994) (10.1021/j100096a001)

    Deriv               =              1
    GGA                 =           TRUE
    Meta                =          FALSE

    Exchange Hybrid     =           TRUE
    MP2 Hybrid          =          FALSE

   => Exchange Functionals <=

    0.0800   Slater exchange
    0.7200         Becke 88

   => Exact (HF) Exchange <=

    0.2000               HF 

   => Correlation Functionals <=

    0.1900   Vosko, Wilk & Nusair (VWN5_RPA)
    0.8100   Lee, Yang & Parr

   => LibXC Density Thresholds  <==

    XC_HYB_GGA_XC_B3LYP:  1.00E-15 

   => Molecular Quadrature <=

    Radial Scheme          =       TREUTLER
    Pruning Scheme         =           NONE
    Nuclear Scheme         =       TREUTLER

    Blocking Scheme        =         OCTREE
    BS radius alpha        =              1
    Pruning alpha          =              1
    Radial Points          =             75
    Spherical Points       =            302
    Total Points           =          42653
    Total Blocks           =            399
    Max Points             =            256
    Max Functions          =             36
    Weights Tolerance      =       1.00E-15

   => Loading Basis Set <=

    Name: (CC-PVDZ AUX)
    Role: JKFIT
    Keyword: DF_BASIS_SCF
    atoms 1 entry AL         line   371 file /Users/joseantoniorodriguesromero/anaconda3/share/psi4/basis/cc-pvdz-jkfit.gbs 
    atoms 2 entry S          line   593 file /Users/joseantoniorodriguesromero/anaconda3/share/psi4/basis/cc-pvdz-jkfit.gbs 

   => Loading Basis Set <=

    Name: CC-PVDZ
    Role: ORBITAL
    Keyword: BASIS
    atoms 1 entry AL         line   418 file /Users/joseantoniorodriguesromero/anaconda3/share/psi4/basis/cc-pvdz.gbs 
    atoms 2 entry S          line   598 file /Users/joseantoniorodriguesromero/anaconda3/share/psi4/basis/cc-pvdz.gbs 

  Reading orbitals from file /tmp/singlet_AlS.default.73234.180.npy, no projection.

  ==> Integral Setup <==

  DFHelper Memory: AOs need 0.003 GiB; user supplied 0.323 GiB. 
  Using in-core AOs.

  ==> MemDFJK: Density-Fitted J/K Matrices <==

    J tasked:                   Yes
    K tasked:                   Yes
    wK tasked:                   No
    OpenMP threads:               1
    Memory [MiB]:               330
    Algorithm:                 Core
    Schwarz Cutoff:           1E-12
    Mask sparsity (%):       0.0000
    Fitting Condition:        1E-10

   => Auxiliary Basis Set <=

  Basis Set: (CC-PVDZ AUX)
    Blend: CC-PVDZ-JKFIT
    Number of shells: 72
    Number of basis functions: 224
    Number of Cartesian functions: 260
    Spherical Harmonics?: true
    Max angular momentum: 3

  Cached 100.0% of DFT collocation blocks in 0.043 [GiB].

  Minimum eigenvalue in the overlap matrix is 2.3146959385E-02.
  Reciprocal condition number of the overlap matrix is 7.8901782963E-03.
    Using symmetric orthogonalization.

  ==> Pre-Iterations <==

  SCF Guess: Orbitals guess was supplied from a previous computation.

   -------------------------------------------------------
    Irrep   Nso     Nmo     Nalpha   Nbeta   Ndocc  Nsocc
   -------------------------------------------------------
     A1        18      18       9       9       9       0
     A2         2       2       0       0       0       0
     B1         8       8       3       3       3       0
     B2         8       8       3       3       3       0
   -------------------------------------------------------
    Total      36      36      15      15      15       0
   -------------------------------------------------------

  ==> Iterations <==

                           Total Energy        Delta E     RMS |[F,P]|

   @DF-UKS iter   0:  -640.73809590718588   -6.40738e+02   1.19561e-04 
   @DF-UKS iter   1:  -640.73830098684539   -2.05080e-04   2.74511e-05 DIIS
   @DF-UKS iter   2:  -640.73829991685398    1.06999e-06   6.04085e-05 DIIS/DAMP=1%
   @DF-UKS iter   3:  -640.73823538551994    6.45313e-05   3.87131e-06 DIIS/DAMP=1%
   @DF-UKS iter   4:  -640.73829705843650   -6.16729e-05   1.37277e-06 DIIS/DAMP=1%
   @DF-UKS iter   5:  -640.73830006038838   -3.00195e-06   6.64791e-08 DIIS/DAMP=1%
   @DF-UKS iter   6:  -640.73830123535151   -1.17496e-06   1.36150e-08 DIIS/DAMP=1%
   @DF-UKS iter   7:  -640.73830131844136   -8.30898e-08   9.08989e-10 DIIS/DAMP=1%
   @DF-UKS iter   8:  -640.73830132733281   -8.89145e-09   1.07449e-10 DIIS/DAMP=1%
  Energy and wave function converged.


  ==> Post-Iterations <==

   Electrons on quadrature grid:
      Nalpha   =   15.0000009309 ; deviation = 9.309e-07
      Nbeta    =   15.0000009309 ; deviation = 9.309e-07
      Ntotal   =   30.0000018618 ; deviation = 1.862e-06 

   @Spin Contamination Metric:  -3.552713679E-15
   @S^2 Expected:                0.000000000E+00
   @S^2 Observed:               -3.552713679E-15
   @S   Expected:                0.000000000E+00
   @S   Observed:                0.000000000E+00

    Orbital Energies [Eh]
    ---------------------

    Alpha Occupied:                                                       

       1A1   -88.602505     2A1   -55.833198     3A1    -7.664446  
       1B1    -5.624315     1B2    -5.624315     4A1    -5.624275  
       5A1    -3.916440     2B1    -2.470177     2B2    -2.470177  
       6A1    -2.465667     7A1    -0.419414     8A1    -0.120926  
       3B1    -0.024907     3B2    -0.024907     9A1    -0.004697  

    Alpha Virtual:                                                        

       4B2     0.147604     4B1     0.147604    10A1     0.224079  
      11A1     0.352654     5B1     0.405148     5B2     0.405148  
      12A1     0.444723     1A2     0.472033    13A1     0.472034  
       6B2     0.499471     6B1     0.499471    14A1     0.543412  
       7B2     0.761940     7B1     0.761940    15A1     0.849699  
       2A2     0.880922    16A1     0.880925    17A1     0.914060  
       8B2     1.007763     8B1     1.007763    18A1     1.315617  

    Beta Occupied:                                                        

       1A1   -88.602505     2A1   -55.833198     3A1    -7.664446  
       1B1    -5.624315     1B2    -5.624315     4A1    -5.624275  
       5A1    -3.916440     2B1    -2.470177     2B2    -2.470177  
       6A1    -2.465667     7A1    -0.419414     8A1    -0.120926  
       3B1    -0.024907     3B2    -0.024907     9A1    -0.004697  

    Beta Virtual:                                                         

       4B2     0.147604     4B1     0.147604    10A1     0.224079  
      11A1     0.352654     5B1     0.405148     5B2     0.405148  
      12A1     0.444723     1A2     0.472033    13A1     0.472034  
       6B2     0.499471     6B1     0.499471    14A1     0.543412  
       7B2     0.761940     7B1     0.761940    15A1     0.849699  
       2A2     0.880922    16A1     0.880925    17A1     0.914060  
       8B2     1.007763     8B1     1.007763    18A1     1.315617  

    Final Occupation by Irrep:
             A1    A2    B1    B2 
    DOCC [     9,    0,    3,    3 ]
    SOCC [     0,    0,    0,    0 ]
    NA   [     9,    0,    3,    3 ]
    NB   [     9,    0,    3,    3 ]

  @DF-UKS Final Energy:  -640.73830132733281

   => Energetics <=

    Nuclear Repulsion Energy =             51.7743846818629194
    One-Electron Energy =                -997.6838825880587365
    Two-Electron Energy =                 341.0668595766390467
    DFT Exchange-Correlation Energy =     -35.8956629977760215
    Empirical Dispersion Energy =           0.0000000000000000
    VV10 Nonlocal Energy =                  0.0000000000000000
    Total Energy =                       -640.7383013273329198

  UHF NO Occupations:
  HONO-2 :    2 B1 2.0000000
  HONO-1 :    9 A1 2.0000000
  HONO-0 :    3 B1 2.0000000
  LUNO+0 :    4 B1 0.0000000
  LUNO+1 :   10 A1 0.0000000
  LUNO+2 :   11 A1 0.0000000
  LUNO+3 :    5 B1 0.0000000


Computation Completed


Properties will be evaluated at   0.000000,   0.000000,   0.000000 [a0]

Properties computed using the SCF density matrix


 Multipole Moments:

 ------------------------------------------------------------------------------------
     Multipole            Electronic (a.u.)      Nuclear  (a.u.)        Total (a.u.)
 ------------------------------------------------------------------------------------

 L = 1.  Multiply by 2.5417464519 to convert [e a0] to [Debye]
 Dipole X            :          0.0000000            0.0000000            0.0000000
 Dipole Y            :          0.0000000            0.0000000            0.0000000
 Dipole Z            :          0.9514216           -1.0949429           -0.1435213
 Magnitude           :                                                    0.1435213

 ------------------------------------------------------------------------------------

*** tstop() called on Joses-MacBook-Pro-2.local at Thu Jul 17 11:39:35 2025
Module time:
	user time   =      10.14 seconds =       0.17 minutes
	system time =       2.16 seconds =       0.04 minutes
	total time  =          1 seconds =       0.02 minutes
Total time:
	user time   =     210.55 seconds =       3.51 minutes
	system time =      61.32 seconds =       1.02 minutes
	total time  =         27 seconds =       0.45 minutes

*** tstart() called on Joses-MacBook-Pro-2.local
*** at Thu Jul 17 11:39:35 2025


         ------------------------------------------------------------
                                   SCF GRAD                          
                          Rob Parrish, Justin Turney,                
                       Andy Simmonett, and Alex Sokolov              
         ------------------------------------------------------------

  ==> Geometry <==

    Molecular point group: c2v
    Full point group: C_inf_v

    Geometry (in Angstrom), charge = -1, multiplicity = 1:

       Center              X                  Y                   Z               Mass       
    ------------   -----------------  -----------------  -----------------  -----------------
         AL           0.000000000000     0.000000000000     1.152948452527    26.981538530000
         S            0.000000000000     0.000000000000    -0.972984293863    31.972071174400

  Nuclear repulsion =   51.774384681862919

  ==> Basis Set <==

  Basis Set: CC-PVDZ
    Blend: CC-PVDZ
    Number of shells: 16
    Number of basis functions: 36
    Number of Cartesian functions: 38
    Spherical Harmonics?: true
    Max angular momentum: 2

  ==> DFJKGrad: Density-Fitted SCF Gradients <==

    Gradient:                    1
    J tasked:                  Yes
    K tasked:                  Yes
    wK tasked:                  No
    OpenMP threads:              1
    Integrals threads:           1
    Memory [MiB]:              375
    Schwarz Cutoff:          1E-12
    Fitting Condition:       1E-10

   => Auxiliary Basis Set <=

  Basis Set: (CC-PVDZ AUX)
    Blend: CC-PVDZ-JKFIT
    Number of shells: 72
    Number of basis functions: 224
    Number of Cartesian functions: 260
    Spherical Harmonics?: true
    Max angular momentum: 3

  ==> DFT Potential <==

   => LibXC <=

    Version 6.2.2
    S. Lehtola, C. Steigemann, M. J.T. Oliveira, and M. A.L. Marques.,  SoftwareX 7, 1–5 (2018) (10.1016/j.softx.2017.11.002)

   => Composite Functional: B3LYP <= 

    B3LYP Hyb-GGA Exchange-Correlation Functional

    P. J. Stephens, F. J. Devlin, C. F. Chabalowski, and M. J. Frisch.,  J. Phys. Chem. 98, 11623 (1994) (10.1021/j100096a001)

    Deriv               =              1
    GGA                 =           TRUE
    Meta                =          FALSE

    Exchange Hybrid     =           TRUE
    MP2 Hybrid          =          FALSE

   => Exchange Functionals <=

    0.0800   Slater exchange
    0.7200         Becke 88

   => Exact (HF) Exchange <=

    0.2000               HF 

   => Correlation Functionals <=

    0.1900   Vosko, Wilk & Nusair (VWN5_RPA)
    0.8100   Lee, Yang & Parr

   => LibXC Density Thresholds  <==

    XC_HYB_GGA_XC_B3LYP:  1.00E-15 

   => Molecular Quadrature <=

    Radial Scheme          =       TREUTLER
    Pruning Scheme         =           NONE
    Nuclear Scheme         =       TREUTLER

    Blocking Scheme        =         OCTREE
    BS radius alpha        =              1
    Pruning alpha          =              1
    Radial Points          =             75
    Spherical Points       =            302
    Total Points           =          42653
    Total Blocks           =            399
    Max Points             =            256
    Max Functions          =             36
    Weights Tolerance      =       1.00E-15


  -Total Gradient:
     Atom            X                  Y                   Z
    ------   -----------------  -----------------  -----------------
       1        0.000000000000     0.000000000000    -0.000089074036
       2       -0.000000000000     0.000000000000     0.000108677403


*** tstop() called on Joses-MacBook-Pro-2.local at Thu Jul 17 11:39:36 2025
Module time:
	user time   =       3.48 seconds =       0.06 minutes
	system time =       1.35 seconds =       0.02 minutes
	total time  =          1 seconds =       0.02 minutes
Total time:
	user time   =     214.04 seconds =       3.57 minutes
	system time =      62.67 seconds =       1.04 minutes
	total time  =         28 seconds =       0.47 minutes

    			-----------------------------------------

    			 OPTKING 3.0: for geometry optimizations 

    			     By R.A. King, Bethel University     

    			        with contributions from          

    			    A.V. Copan, J. Cayton, A. Heide      

    			-----------------------------------------

    
	                            ===> Fragment 1 <== 

	 Z (Atomic Numbers)          Masses                          Geom                  
	      13.000000            26.981539          0.00000000  0.00000000  2.17875681   
	      16.000000            31.972071          0.00000000  0.00000000 -1.83867384   

	 - Coordinate -           - BOHR/RAD -       - ANG/DEG -
	 R(1,2)           =         4.017431           2.125933


	        --- Internal Coordinate Step in ANG or DEG, aJ/ANG or AJ/DEG ---
	-------------------------------------------------------------------------------
	           Coordinate      Previous         Force          Change          New 
	           ----------      --------        ------          ------        ------
	               R(1,2)       2.12593        0.00081        0.00028       2.12621
	-------------------------------------------------------------------------------

	                                 ==> Convergence Check <==                                  
    
	Measures of convergence in internal coordinates in au.
    
	Criteria marked as inactive (o), active & met (*), and active & unmet ( ).

	----------------------------------------------------------------------------------------------
	   Step    Total Energy     Delta E     Max Force     RMS Force      Max Disp      RMS Disp   
	----------------------------------------------------------------------------------------------
	  Convergence Criteria     1.00e-06 *    3.00e-04 *             o    1.20e-03 *             o
	----------------------------------------------------------------------------------------------
	    14    -640.73830133   -8.47e-07 *    9.89e-05 *    9.89e-05 o    5.23e-04 *    5.23e-04 o  ~
	----------------------------------------------------------------------------------------------

Next Geometry in Ang 
	Fragment 1 (Ang)

	   Al   0.0000000000   0.0000000000   1.1530867837
	    S   0.0000000000   0.0000000000  -0.9731226250


    Final optimized geometry and variables:
    Molecular point group: c2v
    Full point group: C_inf_v

    Geometry (in Angstrom), charge = -1, multiplicity = 1:

    AL           0.000000000000     0.000000000000     1.152948452527
    S            0.000000000000     0.000000000000    -0.972984293863


    Psi4 stopped on: Thursday, 17 July 2025 11:39AM
    Psi4 wall time for execution: 0:00:28.58

*** Psi4 exiting successfully. Buy a developer a beer!
