
    -----------------------------------------------------------------------
          Psi4: An Open-Source Ab Initio Electronic Structure Package
                               Psi4 1.9.1 release

                         Git: Rev {} zzzzzzz 


    D. G. A. Smith, L. A. Burns, A. C. Simmonett, R. M. Parrish,
    M. C. Schieber, R. Galvelis, P. Kraus, H. Kruse, R. Di Remigio,
    A. Alenaizan, A. M. James, S. Lehtola, J. P. Misiewicz, M. Scheurer,
    R. A. Shaw, J. B. Schriber, Y. Xie, Z. L. Glick, D. A. Sirianni,
    J. S. O'Brien, J. M. Waldrop, A. Kumar, E. G. Hohenstein,
    B. P. Pritchard, B. R. Brooks, H. F. Schaefer III, A. Yu. Sokolov,
    K. Patkowski, A. E. DePrince III, U. Bozkaya, R. A. King,
    F. A. Evangelista, J. M. Turney, T. D. Crawford, C. D. Sherrill,
    J. Chem. Phys. 152(18) 184108 (2020). https://doi.org/10.1063/5.0006002

                            Additional Code Authors
    E. T. Seidl, C. L. Janssen, E. F. Valeev, M. L. Leininger,
    J. F. Gonthier, R. M. Richard, H. R. McAlexander, M. Saitow, X. Wang,
    P. Verma, M. H. Lechner, A. Jiang, S. Behnle, A. G. Heide,
    M. F. Herbst, and D. L. Poole

             Previous Authors, Complete List of Code Contributors,
                       and Citations for Specific Modules
    https://github.com/psi4/psi4/blob/master/codemeta.json
    https://github.com/psi4/psi4/graphs/contributors
    http://psicode.org/psi4manual/master/introduction.html#citing-psifour

    -----------------------------------------------------------------------


    Psi4 started on: Thursday, 17 July 2025 11:26AM

    Process ID: 73132
    Host:       Joses-MacBook-Pro-2.local
    PSIDATADIR: /Users/joseantoniorodriguesromero/anaconda3/share/psi4
    Memory:     500.0 MiB
    Threads:    1
    
  ==> Input File <==

--------------------------------------------------------------------------
molecule { 
-1 3
Mg   0.00000        0.60000        0.00000
P   0.00000       -0.60000        0.00000
}

set { 
basis              cc-pvdz
reference          uks
maxiter            500
geom_maxiter       500
DAMPING_PERCENTAGE 1
guess              SAP
}

optimize('b3lyp')
--------------------------------------------------------------------------

Scratch directory: /tmp/
gradient() will perform analytic gradient computation.
   => Libint2 <=

    Primary   basis highest AM E, G, H:  6, 6, 3
    Auxiliary basis highest AM E, G, H:  7, 7, 4
    Onebody   basis highest AM E, G, H:  -, -, -
    Solid Harmonics ordering:            Gaussian

*** tstart() called on Joses-MacBook-Pro-2.local
*** at Thu Jul 17 11:26:36 2025

   => Loading Basis Set <=

    Name: CC-PVDZ
    Role: ORBITAL
    Keyword: BASIS
    atoms 1 entry MG         line   353 file /Users/joseantoniorodriguesromero/anaconda3/share/psi4/basis/cc-pvdz.gbs 
    atoms 2 entry P          line   538 file /Users/joseantoniorodriguesromero/anaconda3/share/psi4/basis/cc-pvdz.gbs 


         ---------------------------------------------------------
                                   SCF
               by Justin Turney, Rob Parrish, Andy Simmonett
                          and Daniel G. A. Smith
                              UKS Reference
                        1 Threads,    500 MiB Core
         ---------------------------------------------------------

  ==> Geometry <==

    Molecular point group: c2v
    Full point group: C_inf_v

    Geometry (in Angstrom), charge = -1, multiplicity = 3:

       Center              X                  Y                   Z               Mass       
    ------------   -----------------  -----------------  -----------------  -----------------
         MG           0.000000000000     0.000000000000     0.676297733919    23.985041697000
         P            0.000000000000     0.000000000000    -0.523702266081    30.973761998420

  Running in c2v symmetry.

  Rotational constants: A = ************  B =      0.86604  C =      0.86604 [cm^-1]
  Rotational constants: A = ************  B =  25963.15961  C =  25963.15961 [MHz]
  Nuclear repulsion =   79.376581600500018

  Charge       = -1
  Multiplicity = 3
  Electrons    = 28
  Nalpha       = 15
  Nbeta        = 13

  ==> Algorithm <==

  SCF Algorithm Type is DF.
  DIIS enabled.
  MOM disabled.
  Fractional occupation disabled.
  Guess Type is SAP.
  Energy threshold   = 1.00e-08
  Density threshold  = 1.00e-08
  Integral threshold = 1.00e-12

  ==> Primary Basis <==

  Basis Set: CC-PVDZ
    Blend: CC-PVDZ
    Number of shells: 16
    Number of basis functions: 36
    Number of Cartesian functions: 38
    Spherical Harmonics?: true
    Max angular momentum: 2

  ==> DFT Potential <==

   => LibXC <=

    Version 6.2.2
    S. Lehtola, C. Steigemann, M. J.T. Oliveira, and M. A.L. Marques.,  SoftwareX 7, 1–5 (2018) (10.1016/j.softx.2017.11.002)

   => Composite Functional: B3LYP <= 

    B3LYP Hyb-GGA Exchange-Correlation Functional

    P. J. Stephens, F. J. Devlin, C. F. Chabalowski, and M. J. Frisch.,  J. Phys. Chem. 98, 11623 (1994) (10.1021/j100096a001)

    Deriv               =              1
    GGA                 =           TRUE
    Meta                =          FALSE

    Exchange Hybrid     =           TRUE
    MP2 Hybrid          =          FALSE

   => Exchange Functionals <=

    0.0800   Slater exchange
    0.7200         Becke 88

   => Exact (HF) Exchange <=

    0.2000               HF 

   => Correlation Functionals <=

    0.1900   Vosko, Wilk & Nusair (VWN5_RPA)
    0.8100   Lee, Yang & Parr

   => LibXC Density Thresholds  <==

    XC_HYB_GGA_XC_B3LYP:  1.00E-15 

   => Molecular Quadrature <=

    Radial Scheme          =       TREUTLER
    Pruning Scheme         =           NONE
    Nuclear Scheme         =       TREUTLER

    Blocking Scheme        =         OCTREE
    BS radius alpha        =              1
    Pruning alpha          =              1
    Radial Points          =             75
    Spherical Points       =            302
    Total Points           =          42910
    Total Blocks           =            415
    Max Points             =            255
    Max Functions          =             36
    Weights Tolerance      =       1.00E-15

   => Loading Basis Set <=

    Name: (CC-PVDZ AUX)
    Role: JKFIT
    Keyword: DF_BASIS_SCF
    atoms 1 entry MG         line   576 file /Users/joseantoniorodriguesromero/anaconda3/share/psi4/basis/def2-universal-jkfit.gbs 
    atoms 2 entry P          line   519 file /Users/joseantoniorodriguesromero/anaconda3/share/psi4/basis/cc-pvdz-jkfit.gbs 

  ==> Integral Setup <==

  DFHelper Memory: AOs need 0.003 GiB; user supplied 0.323 GiB. 
  Using in-core AOs.

  ==> MemDFJK: Density-Fitted J/K Matrices <==

    J tasked:                   Yes
    K tasked:                   Yes
    wK tasked:                   No
    OpenMP threads:               1
    Memory [MiB]:               330
    Algorithm:                 Core
    Schwarz Cutoff:           1E-12
    Mask sparsity (%):       0.0000
    Fitting Condition:        1E-10

   => Auxiliary Basis Set <=

  Basis Set: (CC-PVDZ AUX)
    Blend: CC-PVDZ-JKFIT + DEF2-UNIVERSAL-JKFIT
    Number of shells: 70
    Number of basis functions: 224
    Number of Cartesian functions: 267
    Spherical Harmonics?: true
    Max angular momentum: 4

  Cached 100.0% of DFT collocation blocks in 0.044 [GiB].

  Minimum eigenvalue in the overlap matrix is 4.9914315352E-04.
  Reciprocal condition number of the overlap matrix is 1.5100198151E-04.
    Using symmetric orthogonalization.

  ==> Pre-Iterations <==

  SCF Guess: Superposition of Atomic Potentials (doi:10.1021/acs.jctc.8b01089).

  ==> SAP guess <==

   => Molecular Quadrature <=

    Radial Scheme          =       TREUTLER
    Pruning Scheme         =           NONE
    Nuclear Scheme         =       TREUTLER

    Blocking Scheme        =         OCTREE
    BS radius alpha        =              1
    Pruning alpha          =              1
    Radial Points          =             75
    Spherical Points       =            302
    Total Points           =          42910
    Total Blocks           =            415
    Max Points             =            255
    Max Functions          =             36
    Weights Tolerance      =       1.00E-15

   -------------------------------------------------------
    Irrep   Nso     Nmo     Nalpha   Nbeta   Ndocc  Nsocc
   -------------------------------------------------------
     A1        18      18       9       7       7       2
     A2         2       2       0       0       0       0
     B1         8       8       3       3       3       0
     B2         8       8       3       3       3       0
   -------------------------------------------------------
    Total      36      36      15      13      13       2
   -------------------------------------------------------

  ==> Iterations <==

                           Total Energy        Delta E     RMS |[F,P]|

    Occupation by irrep:
             A1    A2    B1    B2 
    DOCC [     8,    0,    2,    3 ]
    SOCC [     1,    0,    1,    0 ]
    NA   [     9,    0,    3,    3 ]
    NB   [     8,    0,    2,    3 ]

   @DF-UKS iter   1:  -540.06471768438928   -5.40065e+02   2.70585e-02 DIIS/ADIIS
    Occupation by irrep:
             A1    A2    B1    B2 
    DOCC [     7,    0,    3,    3 ]
    SOCC [     2,    0,    0,    0 ]
    NA   [     9,    0,    3,    3 ]
    NB   [     7,    0,    3,    3 ]

   @DF-UKS iter   2:  -539.17754269004251    8.87175e-01   4.52956e-02 DIIS/ADIIS/DAMP=1%
   @DF-UKS iter   3:  -540.26027798925293   -1.08274e+00   6.11674e-03 DIIS/ADIIS/DAMP=1%
   @DF-UKS iter   4:  -540.37750156313359   -1.17224e-01   4.07585e-03 DIIS/ADIIS/DAMP=1%
   @DF-UKS iter   5:  -540.38976249862390   -1.22609e-02   5.24737e-04 DIIS/ADIIS/DAMP=1%
   @DF-UKS iter   6:  -540.38850635087272    1.25615e-03   6.98881e-05 DIIS/DAMP=1%
   @DF-UKS iter   7:  -540.38929828582184   -7.91935e-04   1.24821e-05 DIIS/DAMP=1%
   @DF-UKS iter   8:  -540.38941952375080   -1.21238e-04   3.15220e-06 DIIS/DAMP=1%
   @DF-UKS iter   9:  -540.38941814644897    1.37730e-06   7.32019e-07 DIIS/DAMP=1%
   @DF-UKS iter  10:  -540.38941541027123    2.73618e-06   9.78270e-08 DIIS/DAMP=1%
   @DF-UKS iter  11:  -540.38941585366342   -4.43392e-07   1.41831e-08 DIIS/DAMP=1%
   @DF-UKS iter  12:  -540.38941599291968   -1.39256e-07   1.71616e-09 DIIS/DAMP=1%
   @DF-UKS iter  13:  -540.38941598146891    1.14508e-08   1.93111e-10 DIIS/DAMP=1%
   @DF-UKS iter  14:  -540.38941597866256    2.80636e-09   4.34346e-11 DIIS/DAMP=1%
  Energy and wave function converged.


  ==> Post-Iterations <==

   Electrons on quadrature grid:
      Nalpha   =   14.9999958859 ; deviation = -4.114e-06
      Nbeta    =   12.9999958702 ; deviation = -4.130e-06
      Ntotal   =   27.9999917561 ; deviation = -8.244e-06 

   @Spin Contamination Metric:   2.362550966E-03
   @S^2 Expected:                2.000000000E+00
   @S^2 Observed:                2.002362551E+00
   @S   Expected:                1.000000000E+00
   @S   Observed:                1.000000000E+00

    Orbital Energies [Eh]
    ---------------------

    Alpha Occupied:                                                       

       1A1   -76.895973     2A1   -46.787782     3A1    -6.417681  
       4A1    -4.607094     1B2    -4.553293     1B1    -4.553293  
       5A1    -3.154007     6A1    -1.924737     2B2    -1.848181  
       2B1    -1.848181     7A1    -0.327023     3B2    -0.051600  
       3B1    -0.051600     8A1    -0.031165     9A1     0.087072  

    Alpha Virtual:                                                        

       4B2     0.173724     4B1     0.173724    10A1     0.196504  
      11A1     0.266158     5B2     0.311848     5B1     0.311848  
       1A2     0.429380    12A1     0.429380     6B2     0.514526  
       6B1     0.514526    13A1     0.538775    14A1     0.667972  
       7B2     0.740469     7B1     0.740469     2A2     0.824399  
      15A1     0.824401    16A1     0.825411     8B2     0.977861  
       8B1     0.977861    17A1     1.193049    18A1     2.871864  

    Beta Occupied:                                                        

       1A1   -76.892645     2A1   -46.782453     3A1    -6.413977  
       4A1    -4.596434     1B2    -4.551155     1B1    -4.551155  
       5A1    -3.145384     6A1    -1.915327     2B2    -1.842825  
       2B1    -1.842825     7A1    -0.294561     3B2    -0.038880  
       3B1    -0.038880  

    Beta Virtual:                                                         

       8A1     0.069979     9A1     0.177284     4B2     0.187754  
       4B1     0.187754    10A1     0.211376    11A1     0.304955  
       5B2     0.333896     5B1     0.333896    12A1     0.444949  
       1A2     0.444951     6B2     0.541308     6B1     0.541308  
      13A1     0.581823    14A1     0.707761     7B2     0.762193  
       7B1     0.762193    15A1     0.834281     2A2     0.834282  
      16A1     0.847833     8B2     1.007387     8B1     1.007387  
      17A1     1.226951    18A1     2.890021  

    Final Occupation by Irrep:
             A1    A2    B1    B2 
    DOCC [     7,    0,    3,    3 ]
    SOCC [     2,    0,    0,    0 ]
    NA   [     9,    0,    3,    3 ]
    NB   [     7,    0,    3,    3 ]

  @DF-UKS Final Energy:  -540.38941597866256

   => Energetics <=

    Nuclear Repulsion Energy =             79.3765816005000175
    One-Electron Energy =                -910.5213568381955156
    Two-Electron Energy =                 323.2333378477677002
    DFT Exchange-Correlation Energy =     -32.4779785887347643
    Empirical Dispersion Energy =           0.0000000000000000
    VV10 Nonlocal Energy =                  0.0000000000000000
    Total Energy =                       -540.3894159786625551

  UHF NO Occupations:
  HONO-2 :    7 A1 1.9993348
  HONO-1 :    8 A1 1.0000000
  HONO-0 :    9 A1 1.0000000
  LUNO+0 :   10 A1 0.0006652
  LUNO+1 :    4 B1 0.0002576
  LUNO+2 :    4 B2 0.0002576
  LUNO+3 :   11 A1 0.0000004


Computation Completed


Properties will be evaluated at   0.000000,   0.000000,   0.000000 [a0]

Properties computed using the SCF density matrix


 Multipole Moments:

 ------------------------------------------------------------------------------------
     Multipole            Electronic (a.u.)      Nuclear  (a.u.)        Total (a.u.)
 ------------------------------------------------------------------------------------

 L = 1.  Multiply by 2.5417464519 to convert [e a0] to [Debye]
 Dipole X            :          0.0000000            0.0000000            0.0000000
 Dipole Y            :          0.0000000            0.0000000            0.0000000
 Dipole Z            :         -1.3511042            0.4914021           -0.8597020
 Magnitude           :                                                    0.8597020

 ------------------------------------------------------------------------------------

*** tstop() called on Joses-MacBook-Pro-2.local at Thu Jul 17 11:26:38 2025
Module time:
	user time   =      16.42 seconds =       0.27 minutes
	system time =       2.20 seconds =       0.04 minutes
	total time  =          2 seconds =       0.03 minutes
Total time:
	user time   =      16.42 seconds =       0.27 minutes
	system time =       2.20 seconds =       0.04 minutes
	total time  =          2 seconds =       0.03 minutes

*** tstart() called on Joses-MacBook-Pro-2.local
*** at Thu Jul 17 11:26:38 2025


         ------------------------------------------------------------
                                   SCF GRAD                          
                          Rob Parrish, Justin Turney,                
                       Andy Simmonett, and Alex Sokolov              
         ------------------------------------------------------------

  ==> Geometry <==

    Molecular point group: c2v
    Full point group: C_inf_v

    Geometry (in Angstrom), charge = -1, multiplicity = 3:

       Center              X                  Y                   Z               Mass       
    ------------   -----------------  -----------------  -----------------  -----------------
         MG           0.000000000000     0.000000000000     0.676297733919    23.985041697000
         P            0.000000000000     0.000000000000    -0.523702266081    30.973761998420

  Nuclear repulsion =   79.376581600500018

  ==> Basis Set <==

  Basis Set: CC-PVDZ
    Blend: CC-PVDZ
    Number of shells: 16
    Number of basis functions: 36
    Number of Cartesian functions: 38
    Spherical Harmonics?: true
    Max angular momentum: 2

  ==> DFJKGrad: Density-Fitted SCF Gradients <==

    Gradient:                    1
    J tasked:                  Yes
    K tasked:                  Yes
    wK tasked:                  No
    OpenMP threads:              1
    Integrals threads:           1
    Memory [MiB]:              375
    Schwarz Cutoff:          1E-12
    Fitting Condition:       1E-10

   => Auxiliary Basis Set <=

  Basis Set: (CC-PVDZ AUX)
    Blend: CC-PVDZ-JKFIT + DEF2-UNIVERSAL-JKFIT
    Number of shells: 70
    Number of basis functions: 224
    Number of Cartesian functions: 267
    Spherical Harmonics?: true
    Max angular momentum: 4

  ==> DFT Potential <==

   => LibXC <=

    Version 6.2.2
    S. Lehtola, C. Steigemann, M. J.T. Oliveira, and M. A.L. Marques.,  SoftwareX 7, 1–5 (2018) (10.1016/j.softx.2017.11.002)

   => Composite Functional: B3LYP <= 

    B3LYP Hyb-GGA Exchange-Correlation Functional

    P. J. Stephens, F. J. Devlin, C. F. Chabalowski, and M. J. Frisch.,  J. Phys. Chem. 98, 11623 (1994) (10.1021/j100096a001)

    Deriv               =              1
    GGA                 =           TRUE
    Meta                =          FALSE

    Exchange Hybrid     =           TRUE
    MP2 Hybrid          =          FALSE

   => Exchange Functionals <=

    0.0800   Slater exchange
    0.7200         Becke 88

   => Exact (HF) Exchange <=

    0.2000               HF 

   => Correlation Functionals <=

    0.1900   Vosko, Wilk & Nusair (VWN5_RPA)
    0.8100   Lee, Yang & Parr

   => LibXC Density Thresholds  <==

    XC_HYB_GGA_XC_B3LYP:  1.00E-15 

   => Molecular Quadrature <=

    Radial Scheme          =       TREUTLER
    Pruning Scheme         =           NONE
    Nuclear Scheme         =       TREUTLER

    Blocking Scheme        =         OCTREE
    BS radius alpha        =              1
    Pruning alpha          =              1
    Radial Points          =             75
    Spherical Points       =            302
    Total Points           =          42910
    Total Blocks           =            415
    Max Points             =            255
    Max Functions          =             36
    Weights Tolerance      =       1.00E-15


  -Total Gradient:
     Atom            X                  Y                   Z
    ------   -----------------  -----------------  -----------------
       1        0.000000000000    -0.000000000000    -1.779978353244
       2       -0.000000000000     0.000000000000     1.780107154362


*** tstop() called on Joses-MacBook-Pro-2.local at Thu Jul 17 11:26:39 2025
Module time:
	user time   =       2.89 seconds =       0.05 minutes
	system time =       1.71 seconds =       0.03 minutes
	total time  =          1 seconds =       0.02 minutes
Total time:
	user time   =      19.31 seconds =       0.32 minutes
	system time =       3.92 seconds =       0.07 minutes
	total time  =          3 seconds =       0.05 minutes

    			-----------------------------------------

    			 OPTKING 3.0: for geometry optimizations 

    			     By R.A. King, Bethel University     

    			        with contributions from          

    			    A.V. Copan, J. Cayton, A. Heide      

    			-----------------------------------------

    
	                            ===> Fragment 1 <== 

	 Z (Atomic Numbers)          Masses                          Geom                  
	      12.000000            23.985042          0.00000000  0.00000000  1.27801750   
	      15.000000            30.973762          0.00000000  0.00000000 -0.98965385   

	 - Coordinate -           - BOHR/RAD -       - ANG/DEG -
	 R(1,2)           =         2.267671           1.200000


	        --- Internal Coordinate Step in ANG or DEG, aJ/ANG or AJ/DEG ---
	-------------------------------------------------------------------------------
	           Coordinate      Previous         Force          Change          New 
	           ----------      --------        ------          ------        ------
	               R(1,2)       1.20000       14.66528        0.00432       1.20432
	-------------------------------------------------------------------------------

	                                 ==> Convergence Check <==                                  
    
	Measures of convergence in internal coordinates in au.
    
	Criteria marked as inactive (o), active & met (*), and active & unmet ( ).

	----------------------------------------------------------------------------------------------
	   Step    Total Energy     Delta E     Max Force     RMS Force      Max Disp      RMS Disp   
	----------------------------------------------------------------------------------------------
	  Convergence Criteria     1.00e-06 *    3.00e-04 *             o    1.20e-03 *             o
	----------------------------------------------------------------------------------------------
	     1    -540.38941598   -5.40e+02      1.78e+00      1.78e+00 o    8.17e-03      8.17e-03 o  ~
	----------------------------------------------------------------------------------------------

Next Geometry in Ang 
	Fragment 1 (Ang)

	   Mg   0.0000000000   0.0000000000   0.6784598089
	    P   0.0000000000   0.0000000000  -0.5258643410


    Structure for next step:
    Molecular point group: c2v
    Full point group: C_inf_v

    Geometry (in Angstrom), charge = -1, multiplicity = 3:

    MG           0.000000000000     0.000000000000     0.678734744561
    P            0.000000000000     0.000000000000    -0.525589405327


Scratch directory: /tmp/
gradient() will perform analytic gradient computation.
   => Libint2 <=

    Primary   basis highest AM E, G, H:  6, 6, 3
    Auxiliary basis highest AM E, G, H:  7, 7, 4
    Onebody   basis highest AM E, G, H:  -, -, -
    Solid Harmonics ordering:            Gaussian

*** tstart() called on Joses-MacBook-Pro-2.local
*** at Thu Jul 17 11:26:39 2025

   => Loading Basis Set <=

    Name: CC-PVDZ
    Role: ORBITAL
    Keyword: BASIS
    atoms 1 entry MG         line   353 file /Users/joseantoniorodriguesromero/anaconda3/share/psi4/basis/cc-pvdz.gbs 
    atoms 2 entry P          line   538 file /Users/joseantoniorodriguesromero/anaconda3/share/psi4/basis/cc-pvdz.gbs 


         ---------------------------------------------------------
                                   SCF
               by Justin Turney, Rob Parrish, Andy Simmonett
                          and Daniel G. A. Smith
                              UKS Reference
                        1 Threads,    500 MiB Core
         ---------------------------------------------------------

  ==> Geometry <==

    Molecular point group: c2v
    Full point group: C_inf_v

    Geometry (in Angstrom), charge = -1, multiplicity = 3:

       Center              X                  Y                   Z               Mass       
    ------------   -----------------  -----------------  -----------------  -----------------
         MG           0.000000000000     0.000000000000     0.678734744561    23.985041697000
         P            0.000000000000     0.000000000000    -0.525589405327    30.973761998420

  Running in c2v symmetry.

  Rotational constants: A = ************  B =      0.85983  C =      0.85983 [cm^-1]
  Rotational constants: A = ************  B =  25777.05184  C =  25777.05184 [MHz]
  Nuclear repulsion =   79.091578400603694

  Charge       = -1
  Multiplicity = 3
  Electrons    = 28
  Nalpha       = 15
  Nbeta        = 13

  ==> Algorithm <==

  SCF Algorithm Type is DF.
  DIIS enabled.
  MOM disabled.
  Fractional occupation disabled.
  Guess Type is READ.
  Energy threshold   = 1.00e-08
  Density threshold  = 1.00e-08
  Integral threshold = 1.00e-12

  ==> Primary Basis <==

  Basis Set: CC-PVDZ
    Blend: CC-PVDZ
    Number of shells: 16
    Number of basis functions: 36
    Number of Cartesian functions: 38
    Spherical Harmonics?: true
    Max angular momentum: 2

  ==> DFT Potential <==

   => LibXC <=

    Version 6.2.2
    S. Lehtola, C. Steigemann, M. J.T. Oliveira, and M. A.L. Marques.,  SoftwareX 7, 1–5 (2018) (10.1016/j.softx.2017.11.002)

   => Composite Functional: B3LYP <= 

    B3LYP Hyb-GGA Exchange-Correlation Functional

    P. J. Stephens, F. J. Devlin, C. F. Chabalowski, and M. J. Frisch.,  J. Phys. Chem. 98, 11623 (1994) (10.1021/j100096a001)

    Deriv               =              1
    GGA                 =           TRUE
    Meta                =          FALSE

    Exchange Hybrid     =           TRUE
    MP2 Hybrid          =          FALSE

   => Exchange Functionals <=

    0.0800   Slater exchange
    0.7200         Becke 88

   => Exact (HF) Exchange <=

    0.2000               HF 

   => Correlation Functionals <=

    0.1900   Vosko, Wilk & Nusair (VWN5_RPA)
    0.8100   Lee, Yang & Parr

   => LibXC Density Thresholds  <==

    XC_HYB_GGA_XC_B3LYP:  1.00E-15 

   => Molecular Quadrature <=

    Radial Scheme          =       TREUTLER
    Pruning Scheme         =           NONE
    Nuclear Scheme         =       TREUTLER

    Blocking Scheme        =         OCTREE
    BS radius alpha        =              1
    Pruning alpha          =              1
    Radial Points          =             75
    Spherical Points       =            302
    Total Points           =          42910
    Total Blocks           =            416
    Max Points             =            255
    Max Functions          =             36
    Weights Tolerance      =       1.00E-15

   => Loading Basis Set <=

    Name: (CC-PVDZ AUX)
    Role: JKFIT
    Keyword: DF_BASIS_SCF
    atoms 1 entry MG         line   576 file /Users/joseantoniorodriguesromero/anaconda3/share/psi4/basis/def2-universal-jkfit.gbs 
    atoms 2 entry P          line   519 file /Users/joseantoniorodriguesromero/anaconda3/share/psi4/basis/cc-pvdz-jkfit.gbs 

   => Loading Basis Set <=

    Name: CC-PVDZ
    Role: ORBITAL
    Keyword: BASIS
    atoms 1 entry MG         line   353 file /Users/joseantoniorodriguesromero/anaconda3/share/psi4/basis/cc-pvdz.gbs 
    atoms 2 entry P          line   538 file /Users/joseantoniorodriguesromero/anaconda3/share/psi4/basis/cc-pvdz.gbs 

  Reading orbitals from file /tmp/triplet_MgP.default.73132.180.npy, no projection.

  ==> Integral Setup <==

  DFHelper Memory: AOs need 0.003 GiB; user supplied 0.323 GiB. 
  Using in-core AOs.

  ==> MemDFJK: Density-Fitted J/K Matrices <==

    J tasked:                   Yes
    K tasked:                   Yes
    wK tasked:                   No
    OpenMP threads:               1
    Memory [MiB]:               330
    Algorithm:                 Core
    Schwarz Cutoff:           1E-12
    Mask sparsity (%):       0.0000
    Fitting Condition:        1E-10

   => Auxiliary Basis Set <=

  Basis Set: (CC-PVDZ AUX)
    Blend: CC-PVDZ-JKFIT + DEF2-UNIVERSAL-JKFIT
    Number of shells: 70
    Number of basis functions: 224
    Number of Cartesian functions: 267
    Spherical Harmonics?: true
    Max angular momentum: 4

  Cached 100.0% of DFT collocation blocks in 0.044 [GiB].

  Minimum eigenvalue in the overlap matrix is 5.0174205231E-04.
  Reciprocal condition number of the overlap matrix is 1.5178953582E-04.
    Using symmetric orthogonalization.

  ==> Pre-Iterations <==

  SCF Guess: Orbitals guess was supplied from a previous computation.

   -------------------------------------------------------
    Irrep   Nso     Nmo     Nalpha   Nbeta   Ndocc  Nsocc
   -------------------------------------------------------
     A1        18      18       9       7       7       2
     A2         2       2       0       0       0       0
     B1         8       8       3       3       3       0
     B2         8       8       3       3       3       0
   -------------------------------------------------------
    Total      36      36      15      13      13       2
   -------------------------------------------------------

  ==> Iterations <==

                           Total Energy        Delta E     RMS |[F,P]|

   @DF-UKS iter   0:  -540.40204084783852   -5.40402e+02   9.98172e-04 
   @DF-UKS iter   1:  -540.40385410793704   -1.81326e-03   1.15480e-04 DIIS/ADIIS
   @DF-UKS iter   2:  -540.40385255762760    1.55031e-06   1.30218e-04 DIIS/ADIIS/DAMP=1%
   @DF-UKS iter   3:  -540.40411562734073   -2.63070e-04   9.16470e-06 DIIS/DAMP=1%
   @DF-UKS iter   4:  -540.40385916054151    2.56467e-04   2.39273e-06 DIIS/DAMP=1%
   @DF-UKS iter   5:  -540.40385879597795    3.64564e-07   5.10882e-07 DIIS/DAMP=1%
   @DF-UKS iter   6:  -540.40385966455165   -8.68574e-07   1.05966e-07 DIIS/DAMP=1%
   @DF-UKS iter   7:  -540.40385888304695    7.81505e-07   2.16647e-08 DIIS/DAMP=1%
   @DF-UKS iter   8:  -540.40385915405238   -2.71005e-07   2.32039e-09 DIIS/DAMP=1%
   @DF-UKS iter   9:  -540.40385911375029    4.03021e-08   2.68416e-10 DIIS/DAMP=1%
   @DF-UKS iter  10:  -540.40385911486021   -1.10992e-09   5.95939e-11 DIIS/DAMP=1%
  Energy and wave function converged.


  ==> Post-Iterations <==

   Electrons on quadrature grid:
      Nalpha   =   14.9999959005 ; deviation = -4.099e-06
      Nbeta    =   12.9999958811 ; deviation = -4.119e-06
      Ntotal   =   27.9999917816 ; deviation = -8.218e-06 

   @Spin Contamination Metric:   2.360632049E-03
   @S^2 Expected:                2.000000000E+00
   @S^2 Observed:                2.002360632E+00
   @S   Expected:                1.000000000E+00
   @S   Observed:                1.000000000E+00

    Orbital Energies [Eh]
    ---------------------

    Alpha Occupied:                                                       

       1A1   -76.894141     2A1   -46.784961     3A1    -6.415250  
       4A1    -4.604421     1B1    -4.551239     1B2    -4.551239  
       5A1    -3.150205     6A1    -1.921420     2B1    -1.845045  
       2B2    -1.845045     7A1    -0.327120     3B2    -0.051128  
       3B1    -0.051128     8A1    -0.031346     9A1     0.086455  

    Alpha Virtual:                                                        

       4B2     0.173672     4B1     0.173672    10A1     0.196480  
      11A1     0.266106     5B2     0.311904     5B1     0.311904  
       1A2     0.429946    12A1     0.429946     6B1     0.514382  
       6B2     0.514382    13A1     0.537891    14A1     0.667132  
       7B1     0.740019     7B2     0.740019    15A1     0.823136  
       2A2     0.824034    16A1     0.824036     8B1     0.978370  
       8B2     0.978370    17A1     1.190786    18A1     2.862350  

    Beta Occupied:                                                        

       1A1   -76.890786     2A1   -46.779618     3A1    -6.411517  
       4A1    -4.593674     1B1    -4.549084     1B2    -4.549084  
       5A1    -3.141561     6A1    -1.911936     2B1    -1.839685  
       2B2    -1.839685     7A1    -0.294573     3B2    -0.038411  
       3B1    -0.038411  

    Beta Virtual:                                                         

       8A1     0.069848     9A1     0.176877     4B2     0.187715  
       4B1     0.187715    10A1     0.211252    11A1     0.304813  
       5B2     0.333925     5B1     0.333925    12A1     0.445493  
       1A2     0.445495     6B1     0.541297     6B2     0.541297  
      13A1     0.580911    14A1     0.706786     7B1     0.761643  
       7B2     0.761643    15A1     0.833908     2A2     0.833908  
      16A1     0.845887     8B1     1.008066     8B2     1.008066  
      17A1     1.224676    18A1     2.880498  

    Final Occupation by Irrep:
             A1    A2    B1    B2 
    DOCC [     7,    0,    3,    3 ]
    SOCC [     2,    0,    0,    0 ]
    NA   [     9,    0,    3,    3 ]
    NB   [     7,    0,    3,    3 ]

  @DF-UKS Final Energy:  -540.40385911486021

   => Energetics <=

    Nuclear Repulsion Energy =             79.0915784006036944
    One-Electron Energy =                -910.0376516061724033
    Two-Electron Energy =                 323.0177933490093665
    DFT Exchange-Correlation Energy =     -32.4755792583008613
    Empirical Dispersion Energy =           0.0000000000000000
    VV10 Nonlocal Energy =                  0.0000000000000000
    Total Energy =                       -540.4038591148602109

  UHF NO Occupations:
  HONO-2 :    7 A1 1.9993336
  HONO-1 :    8 A1 1.0000000
  HONO-0 :    9 A1 1.0000000
  LUNO+0 :   10 A1 0.0006664
  LUNO+1 :    4 B2 0.0002565
  LUNO+2 :    4 B1 0.0002565
  LUNO+3 :   11 A1 0.0000004


Computation Completed


Properties will be evaluated at   0.000000,   0.000000,   0.000000 [a0]

Properties computed using the SCF density matrix


 Multipole Moments:

 ------------------------------------------------------------------------------------
     Multipole            Electronic (a.u.)      Nuclear  (a.u.)        Total (a.u.)
 ------------------------------------------------------------------------------------

 L = 1.  Multiply by 2.5417464519 to convert [e a0] to [Debye]
 Dipole X            :          0.0000000            0.0000000            0.0000000
 Dipole Y            :          0.0000000            0.0000000            0.0000000
 Dipole Z            :         -1.3497482            0.4931729           -0.8565753
 Magnitude           :                                                    0.8565753

 ------------------------------------------------------------------------------------

*** tstop() called on Joses-MacBook-Pro-2.local at Thu Jul 17 11:26:40 2025
Module time:
	user time   =       7.86 seconds =       0.13 minutes
	system time =       2.64 seconds =       0.04 minutes
	total time  =          1 seconds =       0.02 minutes
Total time:
	user time   =      27.32 seconds =       0.46 minutes
	system time =       6.70 seconds =       0.11 minutes
	total time  =          4 seconds =       0.07 minutes

*** tstart() called on Joses-MacBook-Pro-2.local
*** at Thu Jul 17 11:26:40 2025


         ------------------------------------------------------------
                                   SCF GRAD                          
                          Rob Parrish, Justin Turney,                
                       Andy Simmonett, and Alex Sokolov              
         ------------------------------------------------------------

  ==> Geometry <==

    Molecular point group: c2v
    Full point group: C_inf_v

    Geometry (in Angstrom), charge = -1, multiplicity = 3:

       Center              X                  Y                   Z               Mass       
    ------------   -----------------  -----------------  -----------------  -----------------
         MG           0.000000000000     0.000000000000     0.678734744561    23.985041697000
         P            0.000000000000     0.000000000000    -0.525589405327    30.973761998420

  Nuclear repulsion =   79.091578400603694

  ==> Basis Set <==

  Basis Set: CC-PVDZ
    Blend: CC-PVDZ
    Number of shells: 16
    Number of basis functions: 36
    Number of Cartesian functions: 38
    Spherical Harmonics?: true
    Max angular momentum: 2

  ==> DFJKGrad: Density-Fitted SCF Gradients <==

    Gradient:                    1
    J tasked:                  Yes
    K tasked:                  Yes
    wK tasked:                  No
    OpenMP threads:              1
    Integrals threads:           1
    Memory [MiB]:              375
    Schwarz Cutoff:          1E-12
    Fitting Condition:       1E-10

   => Auxiliary Basis Set <=

  Basis Set: (CC-PVDZ AUX)
    Blend: CC-PVDZ-JKFIT + DEF2-UNIVERSAL-JKFIT
    Number of shells: 70
    Number of basis functions: 224
    Number of Cartesian functions: 267
    Spherical Harmonics?: true
    Max angular momentum: 4

  ==> DFT Potential <==

   => LibXC <=

    Version 6.2.2
    S. Lehtola, C. Steigemann, M. J.T. Oliveira, and M. A.L. Marques.,  SoftwareX 7, 1–5 (2018) (10.1016/j.softx.2017.11.002)

   => Composite Functional: B3LYP <= 

    B3LYP Hyb-GGA Exchange-Correlation Functional

    P. J. Stephens, F. J. Devlin, C. F. Chabalowski, and M. J. Frisch.,  J. Phys. Chem. 98, 11623 (1994) (10.1021/j100096a001)

    Deriv               =              1
    GGA                 =           TRUE
    Meta                =          FALSE

    Exchange Hybrid     =           TRUE
    MP2 Hybrid          =          FALSE

   => Exchange Functionals <=

    0.0800   Slater exchange
    0.7200         Becke 88

   => Exact (HF) Exchange <=

    0.2000               HF 

   => Correlation Functionals <=

    0.1900   Vosko, Wilk & Nusair (VWN5_RPA)
    0.8100   Lee, Yang & Parr

   => LibXC Density Thresholds  <==

    XC_HYB_GGA_XC_B3LYP:  1.00E-15 

   => Molecular Quadrature <=

    Radial Scheme          =       TREUTLER
    Pruning Scheme         =           NONE
    Nuclear Scheme         =       TREUTLER

    Blocking Scheme        =         OCTREE
    BS radius alpha        =              1
    Pruning alpha          =              1
    Radial Points          =             75
    Spherical Points       =            302
    Total Points           =          42910
    Total Blocks           =            416
    Max Points             =            255
    Max Functions          =             36
    Weights Tolerance      =       1.00E-15


  -Total Gradient:
     Atom            X                  Y                   Z
    ------   -----------------  -----------------  -----------------
       1        0.000000000000     0.000000000000    -1.755135355862
       2       -0.000000000000     0.000000000000     1.755245516167


*** tstop() called on Joses-MacBook-Pro-2.local at Thu Jul 17 11:26:40 2025
Module time:
	user time   =       2.51 seconds =       0.04 minutes
	system time =       1.39 seconds =       0.02 minutes
	total time  =          0 seconds =       0.00 minutes
Total time:
	user time   =      29.84 seconds =       0.50 minutes
	system time =       8.09 seconds =       0.13 minutes
	total time  =          4 seconds =       0.07 minutes

    			-----------------------------------------

    			 OPTKING 3.0: for geometry optimizations 

    			     By R.A. King, Bethel University     

    			        with contributions from          

    			    A.V. Copan, J. Cayton, A. Heide      

    			-----------------------------------------

    
	                            ===> Fragment 1 <== 

	 Z (Atomic Numbers)          Masses                          Geom                  
	      12.000000            23.985042          0.00000000  0.00000000  1.28262278   
	      15.000000            30.973762          0.00000000  0.00000000 -0.99322003   

	 - Coordinate -           - BOHR/RAD -       - ANG/DEG -
	 R(1,2)           =         2.275843           1.204324


	        --- Internal Coordinate Step in ANG or DEG, aJ/ANG or AJ/DEG ---
	-------------------------------------------------------------------------------
	           Coordinate      Previous         Force          Change          New 
	           ----------      --------        ------          ------        ------
	               R(1,2)       1.20432       14.46053        0.00853       1.21285
	-------------------------------------------------------------------------------

	                                 ==> Convergence Check <==                                  
    
	Measures of convergence in internal coordinates in au.
    
	Criteria marked as inactive (o), active & met (*), and active & unmet ( ).

	----------------------------------------------------------------------------------------------
	   Step    Total Energy     Delta E     Max Force     RMS Force      Max Disp      RMS Disp   
	----------------------------------------------------------------------------------------------
	  Convergence Criteria     1.00e-06 *    3.00e-04 *             o    1.20e-03 *             o
	----------------------------------------------------------------------------------------------
	     2    -540.40385911   -1.44e-02      1.76e+00      1.76e+00 o    1.61e-02      1.61e-02 o  ~
	----------------------------------------------------------------------------------------------

Next Geometry in Ang 
	Fragment 1 (Ang)

	   Mg   0.0000000000   0.0000000000   0.6829977001
	    P   0.0000000000   0.0000000000  -0.5298523608


    Structure for next step:
    Molecular point group: c2v
    Full point group: C_inf_v

    Geometry (in Angstrom), charge = -1, multiplicity = 3:

    MG           0.000000000000     0.000000000000     0.683539789798
    P            0.000000000000     0.000000000000    -0.529310271084


Scratch directory: /tmp/
gradient() will perform analytic gradient computation.
   => Libint2 <=

    Primary   basis highest AM E, G, H:  6, 6, 3
    Auxiliary basis highest AM E, G, H:  7, 7, 4
    Onebody   basis highest AM E, G, H:  -, -, -
    Solid Harmonics ordering:            Gaussian

*** tstart() called on Joses-MacBook-Pro-2.local
*** at Thu Jul 17 11:26:40 2025

   => Loading Basis Set <=

    Name: CC-PVDZ
    Role: ORBITAL
    Keyword: BASIS
    atoms 1 entry MG         line   353 file /Users/joseantoniorodriguesromero/anaconda3/share/psi4/basis/cc-pvdz.gbs 
    atoms 2 entry P          line   538 file /Users/joseantoniorodriguesromero/anaconda3/share/psi4/basis/cc-pvdz.gbs 


         ---------------------------------------------------------
                                   SCF
               by Justin Turney, Rob Parrish, Andy Simmonett
                          and Daniel G. A. Smith
                              UKS Reference
                        1 Threads,    500 MiB Core
         ---------------------------------------------------------

  ==> Geometry <==

    Molecular point group: c2v
    Full point group: C_inf_v

    Geometry (in Angstrom), charge = -1, multiplicity = 3:

       Center              X                  Y                   Z               Mass       
    ------------   -----------------  -----------------  -----------------  -----------------
         MG           0.000000000000     0.000000000000     0.683539789798    23.985041697000
         P            0.000000000000     0.000000000000    -0.529310271084    30.973761998420

  Running in c2v symmetry.

  Rotational constants: A = ************  B =      0.84778  C =      0.84778 [cm^-1]
  Rotational constants: A = ************  B =  25415.91835  C =  25415.91835 [MHz]
  Nuclear repulsion =   78.535592314964163

  Charge       = -1
  Multiplicity = 3
  Electrons    = 28
  Nalpha       = 15
  Nbeta        = 13

  ==> Algorithm <==

  SCF Algorithm Type is DF.
  DIIS enabled.
  MOM disabled.
  Fractional occupation disabled.
  Guess Type is READ.
  Energy threshold   = 1.00e-08
  Density threshold  = 1.00e-08
  Integral threshold = 1.00e-12

  ==> Primary Basis <==

  Basis Set: CC-PVDZ
    Blend: CC-PVDZ
    Number of shells: 16
    Number of basis functions: 36
    Number of Cartesian functions: 38
    Spherical Harmonics?: true
    Max angular momentum: 2

  ==> DFT Potential <==

   => LibXC <=

    Version 6.2.2
    S. Lehtola, C. Steigemann, M. J.T. Oliveira, and M. A.L. Marques.,  SoftwareX 7, 1–5 (2018) (10.1016/j.softx.2017.11.002)

   => Composite Functional: B3LYP <= 

    B3LYP Hyb-GGA Exchange-Correlation Functional

    P. J. Stephens, F. J. Devlin, C. F. Chabalowski, and M. J. Frisch.,  J. Phys. Chem. 98, 11623 (1994) (10.1021/j100096a001)

    Deriv               =              1
    GGA                 =           TRUE
    Meta                =          FALSE

    Exchange Hybrid     =           TRUE
    MP2 Hybrid          =          FALSE

   => Exchange Functionals <=

    0.0800   Slater exchange
    0.7200         Becke 88

   => Exact (HF) Exchange <=

    0.2000               HF 

   => Correlation Functionals <=

    0.1900   Vosko, Wilk & Nusair (VWN5_RPA)
    0.8100   Lee, Yang & Parr

   => LibXC Density Thresholds  <==

    XC_HYB_GGA_XC_B3LYP:  1.00E-15 

   => Molecular Quadrature <=

    Radial Scheme          =       TREUTLER
    Pruning Scheme         =           NONE
    Nuclear Scheme         =       TREUTLER

    Blocking Scheme        =         OCTREE
    BS radius alpha        =              1
    Pruning alpha          =              1
    Radial Points          =             75
    Spherical Points       =            302
    Total Points           =          42914
    Total Blocks           =            417
    Max Points             =            255
    Max Functions          =             36
    Weights Tolerance      =       1.00E-15

   => Loading Basis Set <=

    Name: (CC-PVDZ AUX)
    Role: JKFIT
    Keyword: DF_BASIS_SCF
    atoms 1 entry MG         line   576 file /Users/joseantoniorodriguesromero/anaconda3/share/psi4/basis/def2-universal-jkfit.gbs 
    atoms 2 entry P          line   519 file /Users/joseantoniorodriguesromero/anaconda3/share/psi4/basis/cc-pvdz-jkfit.gbs 

   => Loading Basis Set <=

    Name: CC-PVDZ
    Role: ORBITAL
    Keyword: BASIS
    atoms 1 entry MG         line   353 file /Users/joseantoniorodriguesromero/anaconda3/share/psi4/basis/cc-pvdz.gbs 
    atoms 2 entry P          line   538 file /Users/joseantoniorodriguesromero/anaconda3/share/psi4/basis/cc-pvdz.gbs 

  Reading orbitals from file /tmp/triplet_MgP.default.73132.180.npy, no projection.

  ==> Integral Setup <==

  DFHelper Memory: AOs need 0.003 GiB; user supplied 0.323 GiB. 
  Using in-core AOs.

  ==> MemDFJK: Density-Fitted J/K Matrices <==

    J tasked:                   Yes
    K tasked:                   Yes
    wK tasked:                   No
    OpenMP threads:               1
    Memory [MiB]:               330
    Algorithm:                 Core
    Schwarz Cutoff:           1E-12
    Mask sparsity (%):       0.0000
    Fitting Condition:        1E-10

   => Auxiliary Basis Set <=

  Basis Set: (CC-PVDZ AUX)
    Blend: CC-PVDZ-JKFIT + DEF2-UNIVERSAL-JKFIT
    Number of shells: 70
    Number of basis functions: 224
    Number of Cartesian functions: 267
    Spherical Harmonics?: true
    Max angular momentum: 4

  Cached 100.0% of DFT collocation blocks in 0.044 [GiB].

  Minimum eigenvalue in the overlap matrix is 5.0693771265E-04.
  Reciprocal condition number of the overlap matrix is 1.5336435840E-04.
    Using symmetric orthogonalization.

  ==> Pre-Iterations <==

  SCF Guess: Orbitals guess was supplied from a previous computation.

   -------------------------------------------------------
    Irrep   Nso     Nmo     Nalpha   Nbeta   Ndocc  Nsocc
   -------------------------------------------------------
     A1        18      18       9       7       7       2
     A2         2       2       0       0       0       0
     B1         8       8       3       3       3       0
     B2         8       8       3       3       3       0
   -------------------------------------------------------
    Total      36      36      15      13      13       2
   -------------------------------------------------------

  ==> Iterations <==

                           Total Energy        Delta E     RMS |[F,P]|

   @DF-UKS iter   0:  -540.42811040611571   -5.40428e+02   1.94702e-03 
   @DF-UKS iter   1:  -540.43173213252487   -3.62173e-03   2.22111e-04 DIIS/ADIIS
   @DF-UKS iter   2:  -540.43172619105655    5.94147e-06   2.51858e-04 DIIS/ADIIS/DAMP=1%
   @DF-UKS iter   3:  -540.43224482634855   -5.18635e-04   1.73332e-05 DIIS/DAMP=1%
   @DF-UKS iter   4:  -540.43175153511152    4.93291e-04   4.61385e-06 DIIS/DAMP=1%
   @DF-UKS iter   5:  -540.43175017500323    1.36011e-06   1.00364e-06 DIIS/DAMP=1%
   @DF-UKS iter   6:  -540.43175182566301   -1.65066e-06   2.05888e-07 DIIS/DAMP=1%
   @DF-UKS iter   7:  -540.43175032438398    1.50128e-06   4.21484e-08 DIIS/DAMP=1%
   @DF-UKS iter   8:  -540.43175084831137   -5.23927e-07   4.66375e-09 DIIS/DAMP=1%
   @DF-UKS iter   9:  -540.43175076833040    7.99810e-08   5.13653e-10 DIIS/DAMP=1%
   @DF-UKS iter  10:  -540.43175077152773   -3.19733e-09   1.02862e-10 DIIS/DAMP=1%
  Energy and wave function converged.


  ==> Post-Iterations <==

   Electrons on quadrature grid:
      Nalpha   =   14.9999959827 ; deviation = -4.017e-06
      Nbeta    =   12.9999959559 ; deviation = -4.044e-06
      Ntotal   =   27.9999919387 ; deviation = -8.061e-06 

   @Spin Contamination Metric:   2.357205516E-03
   @S^2 Expected:                2.000000000E+00
   @S^2 Observed:                2.002357206E+00
   @S   Expected:                1.000000000E+00
   @S   Observed:                1.000000000E+00

    Orbital Energies [Eh]
    ---------------------

    Alpha Occupied:                                                       

       1A1   -76.890584     2A1   -46.779432     3A1    -6.410557  
       4A1    -4.599259     1B2    -4.547265     1B1    -4.547265  
       5A1    -3.142792     6A1    -1.914903     2B1    -1.838941  
       2B2    -1.838941     7A1    -0.327331     3B2    -0.050199  
       3B1    -0.050199     8A1    -0.031715     9A1     0.085226  

    Alpha Virtual:                                                        

       4B2     0.173567     4B1     0.173567    10A1     0.196428  
      11A1     0.266000     5B1     0.312012     5B2     0.312012  
       1A2     0.431054    12A1     0.431055     6B2     0.514103  
       6B1     0.514103    13A1     0.536147    14A1     0.665437  
       7B1     0.739138     7B2     0.739138    15A1     0.818725  
       2A2     0.823308    16A1     0.823310     8B1     0.979374  
       8B2     0.979374    17A1     1.186444    18A1     2.843041  

    Beta Occupied:                                                        

       1A1   -76.887178     2A1   -46.774064     3A1    -6.406767  
       4A1    -4.588342     1B2    -4.545075     1B1    -4.545075  
       5A1    -3.134110     6A1    -1.905273     2B1    -1.833573  
       2B2    -1.833573     7A1    -0.294616     3B2    -0.037487  
       3B1    -0.037487  

    Beta Virtual:                                                         

       8A1     0.069584     9A1     0.176051     4B2     0.187638  
       4B1     0.187638    10A1     0.211012    11A1     0.304530  
       5B1     0.333980     5B2     0.333980    12A1     0.446557  
       1A2     0.446559     6B2     0.541281     6B1     0.541281  
      13A1     0.579109    14A1     0.704835     7B1     0.760563  
       7B2     0.760563     2A2     0.833165    15A1     0.833166  
      16A1     0.842125     8B1     1.009404     8B2     1.009404  
      17A1     1.220304    18A1     2.861171  

    Final Occupation by Irrep:
             A1    A2    B1    B2 
    DOCC [     7,    0,    3,    3 ]
    SOCC [     2,    0,    0,    0 ]
    NA   [     9,    0,    3,    3 ]
    NB   [     7,    0,    3,    3 ]

  @DF-UKS Final Energy:  -540.43175077152773

   => Energetics <=

    Nuclear Repulsion Energy =             78.5355923149641626
    One-Electron Energy =                -909.0930898677825098
    Two-Electron Energy =                 322.5966975324510599
    DFT Exchange-Correlation Energy =     -32.4709507511603803
    Empirical Dispersion Energy =           0.0000000000000000
    VV10 Nonlocal Energy =                  0.0000000000000000
    Total Energy =                       -540.4317507715277316

  UHF NO Occupations:
  HONO-2 :    7 A1 1.9993308
  HONO-1 :    8 A1 1.0000000
  HONO-0 :    9 A1 1.0000000
  LUNO+0 :   10 A1 0.0006692
  LUNO+1 :    4 B1 0.0002543
  LUNO+2 :    4 B2 0.0002543
  LUNO+3 :   11 A1 0.0000004


Computation Completed


Properties will be evaluated at   0.000000,   0.000000,   0.000000 [a0]

Properties computed using the SCF density matrix


 Multipole Moments:

 ------------------------------------------------------------------------------------
     Multipole            Electronic (a.u.)      Nuclear  (a.u.)        Total (a.u.)
 ------------------------------------------------------------------------------------

 L = 1.  Multiply by 2.5417464519 to convert [e a0] to [Debye]
 Dipole X            :          0.0000000            0.0000000            0.0000000
 Dipole Y            :          0.0000000            0.0000000            0.0000000
 Dipole Z            :         -1.3470185            0.4966643           -0.8503543
 Magnitude           :                                                    0.8503543

 ------------------------------------------------------------------------------------

*** tstop() called on Joses-MacBook-Pro-2.local at Thu Jul 17 11:26:41 2025
Module time:
	user time   =       7.63 seconds =       0.13 minutes
	system time =       3.16 seconds =       0.05 minutes
	total time  =          1 seconds =       0.02 minutes
Total time:
	user time   =      37.66 seconds =       0.63 minutes
	system time =      11.34 seconds =       0.19 minutes
	total time  =          5 seconds =       0.08 minutes

*** tstart() called on Joses-MacBook-Pro-2.local
*** at Thu Jul 17 11:26:41 2025


         ------------------------------------------------------------
                                   SCF GRAD                          
                          Rob Parrish, Justin Turney,                
                       Andy Simmonett, and Alex Sokolov              
         ------------------------------------------------------------

  ==> Geometry <==

    Molecular point group: c2v
    Full point group: C_inf_v

    Geometry (in Angstrom), charge = -1, multiplicity = 3:

       Center              X                  Y                   Z               Mass       
    ------------   -----------------  -----------------  -----------------  -----------------
         MG           0.000000000000     0.000000000000     0.683539789798    23.985041697000
         P            0.000000000000     0.000000000000    -0.529310271084    30.973761998420

  Nuclear repulsion =   78.535592314964163

  ==> Basis Set <==

  Basis Set: CC-PVDZ
    Blend: CC-PVDZ
    Number of shells: 16
    Number of basis functions: 36
    Number of Cartesian functions: 38
    Spherical Harmonics?: true
    Max angular momentum: 2

  ==> DFJKGrad: Density-Fitted SCF Gradients <==

    Gradient:                    1
    J tasked:                  Yes
    K tasked:                  Yes
    wK tasked:                  No
    OpenMP threads:              1
    Integrals threads:           1
    Memory [MiB]:              375
    Schwarz Cutoff:          1E-12
    Fitting Condition:       1E-10

   => Auxiliary Basis Set <=

  Basis Set: (CC-PVDZ AUX)
    Blend: CC-PVDZ-JKFIT + DEF2-UNIVERSAL-JKFIT
    Number of shells: 70
    Number of basis functions: 224
    Number of Cartesian functions: 267
    Spherical Harmonics?: true
    Max angular momentum: 4

  ==> DFT Potential <==

   => LibXC <=

    Version 6.2.2
    S. Lehtola, C. Steigemann, M. J.T. Oliveira, and M. A.L. Marques.,  SoftwareX 7, 1–5 (2018) (10.1016/j.softx.2017.11.002)

   => Composite Functional: B3LYP <= 

    B3LYP Hyb-GGA Exchange-Correlation Functional

    P. J. Stephens, F. J. Devlin, C. F. Chabalowski, and M. J. Frisch.,  J. Phys. Chem. 98, 11623 (1994) (10.1021/j100096a001)

    Deriv               =              1
    GGA                 =           TRUE
    Meta                =          FALSE

    Exchange Hybrid     =           TRUE
    MP2 Hybrid          =          FALSE

   => Exchange Functionals <=

    0.0800   Slater exchange
    0.7200         Becke 88

   => Exact (HF) Exchange <=

    0.2000               HF 

   => Correlation Functionals <=

    0.1900   Vosko, Wilk & Nusair (VWN5_RPA)
    0.8100   Lee, Yang & Parr

   => LibXC Density Thresholds  <==

    XC_HYB_GGA_XC_B3LYP:  1.00E-15 

   => Molecular Quadrature <=

    Radial Scheme          =       TREUTLER
    Pruning Scheme         =           NONE
    Nuclear Scheme         =       TREUTLER

    Blocking Scheme        =         OCTREE
    BS radius alpha        =              1
    Pruning alpha          =              1
    Radial Points          =             75
    Spherical Points       =            302
    Total Points           =          42914
    Total Blocks           =            417
    Max Points             =            255
    Max Functions          =             36
    Weights Tolerance      =       1.00E-15


  -Total Gradient:
     Atom            X                  Y                   Z
    ------   -----------------  -----------------  -----------------
       1        0.000000000000     0.000000000000    -1.707498020728
       2       -0.000000000000     0.000000000000     1.707566026224


*** tstop() called on Joses-MacBook-Pro-2.local at Thu Jul 17 11:26:42 2025
Module time:
	user time   =       2.42 seconds =       0.04 minutes
	system time =       1.92 seconds =       0.03 minutes
	total time  =          1 seconds =       0.02 minutes
Total time:
	user time   =      40.08 seconds =       0.67 minutes
	system time =      13.27 seconds =       0.22 minutes
	total time  =          6 seconds =       0.10 minutes

    			-----------------------------------------

    			 OPTKING 3.0: for geometry optimizations 

    			     By R.A. King, Bethel University     

    			        with contributions from          

    			    A.V. Copan, J. Cayton, A. Heide      

    			-----------------------------------------

    
	                            ===> Fragment 1 <== 

	 Z (Atomic Numbers)          Masses                          Geom                  
	      12.000000            23.985042          0.00000000  0.00000000  1.29170300   
	      15.000000            30.973762          0.00000000  0.00000000 -1.00025145   

	 - Coordinate -           - BOHR/RAD -       - ANG/DEG -
	 R(1,2)           =         2.291954           1.212850


	        --- Internal Coordinate Step in ANG or DEG, aJ/ANG or AJ/DEG ---
	-------------------------------------------------------------------------------
	           Coordinate      Previous         Force          Change          New 
	           ----------      --------        ------          ------        ------
	               R(1,2)       1.21285       14.06788        0.03306       1.24591
	-------------------------------------------------------------------------------

	                                 ==> Convergence Check <==                                  
    
	Measures of convergence in internal coordinates in au.
    
	Criteria marked as inactive (o), active & met (*), and active & unmet ( ).

	----------------------------------------------------------------------------------------------
	   Step    Total Energy     Delta E     Max Force     RMS Force      Max Disp      RMS Disp   
	----------------------------------------------------------------------------------------------
	  Convergence Criteria     1.00e-06 *    3.00e-04 *             o    1.20e-03 *             o
	----------------------------------------------------------------------------------------------
	     3    -540.43175077   -2.79e-02      1.71e+00      1.71e+00 o    6.25e-02      6.25e-02 o  ~
	----------------------------------------------------------------------------------------------

Next Geometry in Ang 
	Fragment 1 (Ang)

	   Mg   0.0000000000   0.0000000000   0.7000681627
	    P   0.0000000000   0.0000000000  -0.5458386440


    Structure for next step:
    Molecular point group: c2v
    Full point group: C_inf_v

    Geometry (in Angstrom), charge = -1, multiplicity = 3:

    MG           0.000000000000     0.000000000000     0.702169958365
    P            0.000000000000     0.000000000000    -0.543736848324


Scratch directory: /tmp/
gradient() will perform analytic gradient computation.
   => Libint2 <=

    Primary   basis highest AM E, G, H:  6, 6, 3
    Auxiliary basis highest AM E, G, H:  7, 7, 4
    Onebody   basis highest AM E, G, H:  -, -, -
    Solid Harmonics ordering:            Gaussian

*** tstart() called on Joses-MacBook-Pro-2.local
*** at Thu Jul 17 11:26:42 2025

   => Loading Basis Set <=

    Name: CC-PVDZ
    Role: ORBITAL
    Keyword: BASIS
    atoms 1 entry MG         line   353 file /Users/joseantoniorodriguesromero/anaconda3/share/psi4/basis/cc-pvdz.gbs 
    atoms 2 entry P          line   538 file /Users/joseantoniorodriguesromero/anaconda3/share/psi4/basis/cc-pvdz.gbs 


         ---------------------------------------------------------
                                   SCF
               by Justin Turney, Rob Parrish, Andy Simmonett
                          and Daniel G. A. Smith
                              UKS Reference
                        1 Threads,    500 MiB Core
         ---------------------------------------------------------

  ==> Geometry <==

    Molecular point group: c2v
    Full point group: C_inf_v

    Geometry (in Angstrom), charge = -1, multiplicity = 3:

       Center              X                  Y                   Z               Mass       
    ------------   -----------------  -----------------  -----------------  -----------------
         MG           0.000000000000     0.000000000000     0.702169958365    23.985041697000
         P            0.000000000000     0.000000000000    -0.543736848324    30.973761998420

  Running in c2v symmetry.

  Rotational constants: A = ************  B =      0.80339  C =      0.80339 [cm^-1]
  Rotational constants: A = ************  B =  24085.12576  C =  24085.12576 [MHz]
  Nuclear repulsion =   76.451864143624292

  Charge       = -1
  Multiplicity = 3
  Electrons    = 28
  Nalpha       = 15
  Nbeta        = 13

  ==> Algorithm <==

  SCF Algorithm Type is DF.
  DIIS enabled.
  MOM disabled.
  Fractional occupation disabled.
  Guess Type is READ.
  Energy threshold   = 1.00e-08
  Density threshold  = 1.00e-08
  Integral threshold = 1.00e-12

  ==> Primary Basis <==

  Basis Set: CC-PVDZ
    Blend: CC-PVDZ
    Number of shells: 16
    Number of basis functions: 36
    Number of Cartesian functions: 38
    Spherical Harmonics?: true
    Max angular momentum: 2

  ==> DFT Potential <==

   => LibXC <=

    Version 6.2.2
    S. Lehtola, C. Steigemann, M. J.T. Oliveira, and M. A.L. Marques.,  SoftwareX 7, 1–5 (2018) (10.1016/j.softx.2017.11.002)

   => Composite Functional: B3LYP <= 

    B3LYP Hyb-GGA Exchange-Correlation Functional

    P. J. Stephens, F. J. Devlin, C. F. Chabalowski, and M. J. Frisch.,  J. Phys. Chem. 98, 11623 (1994) (10.1021/j100096a001)

    Deriv               =              1
    GGA                 =           TRUE
    Meta                =          FALSE

    Exchange Hybrid     =           TRUE
    MP2 Hybrid          =          FALSE

   => Exchange Functionals <=

    0.0800   Slater exchange
    0.7200         Becke 88

   => Exact (HF) Exchange <=

    0.2000               HF 

   => Correlation Functionals <=

    0.1900   Vosko, Wilk & Nusair (VWN5_RPA)
    0.8100   Lee, Yang & Parr

   => LibXC Density Thresholds  <==

    XC_HYB_GGA_XC_B3LYP:  1.00E-15 

   => Molecular Quadrature <=

    Radial Scheme          =       TREUTLER
    Pruning Scheme         =           NONE
    Nuclear Scheme         =       TREUTLER

    Blocking Scheme        =         OCTREE
    BS radius alpha        =              1
    Pruning alpha          =              1
    Radial Points          =             75
    Spherical Points       =            302
    Total Points           =          42918
    Total Blocks           =            417
    Max Points             =            255
    Max Functions          =             36
    Weights Tolerance      =       1.00E-15

   => Loading Basis Set <=

    Name: (CC-PVDZ AUX)
    Role: JKFIT
    Keyword: DF_BASIS_SCF
    atoms 1 entry MG         line   576 file /Users/joseantoniorodriguesromero/anaconda3/share/psi4/basis/def2-universal-jkfit.gbs 
    atoms 2 entry P          line   519 file /Users/joseantoniorodriguesromero/anaconda3/share/psi4/basis/cc-pvdz-jkfit.gbs 

   => Loading Basis Set <=

    Name: CC-PVDZ
    Role: ORBITAL
    Keyword: BASIS
    atoms 1 entry MG         line   353 file /Users/joseantoniorodriguesromero/anaconda3/share/psi4/basis/cc-pvdz.gbs 
    atoms 2 entry P          line   538 file /Users/joseantoniorodriguesromero/anaconda3/share/psi4/basis/cc-pvdz.gbs 

  Reading orbitals from file /tmp/triplet_MgP.default.73132.180.npy, no projection.

  ==> Integral Setup <==

  DFHelper Memory: AOs need 0.003 GiB; user supplied 0.323 GiB. 
  Using in-core AOs.

  ==> MemDFJK: Density-Fitted J/K Matrices <==

    J tasked:                   Yes
    K tasked:                   Yes
    wK tasked:                   No
    OpenMP threads:               1
    Memory [MiB]:               330
    Algorithm:                 Core
    Schwarz Cutoff:           1E-12
    Mask sparsity (%):       0.0000
    Fitting Condition:        1E-10

   => Auxiliary Basis Set <=

  Basis Set: (CC-PVDZ AUX)
    Blend: CC-PVDZ-JKFIT + DEF2-UNIVERSAL-JKFIT
    Number of shells: 70
    Number of basis functions: 224
    Number of Cartesian functions: 267
    Spherical Harmonics?: true
    Max angular momentum: 4

  Cached 100.0% of DFT collocation blocks in 0.044 [GiB].

  Minimum eigenvalue in the overlap matrix is 5.2817205719E-04.
  Reciprocal condition number of the overlap matrix is 1.5980526504E-04.
    Using symmetric orthogonalization.

  ==> Pre-Iterations <==

  SCF Guess: Orbitals guess was supplied from a previous computation.

   -------------------------------------------------------
    Irrep   Nso     Nmo     Nalpha   Nbeta   Ndocc  Nsocc
   -------------------------------------------------------
     A1        18      18       9       7       7       2
     A2         2       2       0       0       0       0
     B1         8       8       3       3       3       0
     B2         8       8       3       3       3       0
   -------------------------------------------------------
    Total      36      36      15      13      13       2
   -------------------------------------------------------

  ==> Iterations <==

                           Total Energy        Delta E     RMS |[F,P]|

   @DF-UKS iter   0:  -540.51908851298049   -5.40519e+02   7.28929e-03 
   @DF-UKS iter   1:  -540.53274815287534   -1.36596e-02   8.06694e-04 DIIS/ADIIS
   @DF-UKS iter   2:  -540.53266158810015    8.65648e-05   9.30176e-04 DIIS/ADIIS/DAMP=1%
   @DF-UKS iter   3:  -540.53479536651014   -2.13378e-03   5.91790e-05 DIIS/DAMP=1%
   @DF-UKS iter   4:  -540.53300988869216    1.78548e-03   1.71254e-05 DIIS/DAMP=1%
   @DF-UKS iter   5:  -540.53299764600627    1.22427e-05   3.82826e-06 DIIS/DAMP=1%
   @DF-UKS iter   6:  -540.53300287541208   -5.22941e-06   7.67811e-07 DIIS/DAMP=1%
   @DF-UKS iter   7:  -540.53299752499925    5.35041e-06   1.56179e-07 DIIS/DAMP=1%
   @DF-UKS iter   8:  -540.53299944015180   -1.91515e-06   2.02237e-08 DIIS/DAMP=1%
   @DF-UKS iter   9:  -540.53299912116631    3.18985e-07   2.73501e-09 DIIS/DAMP=1%
   @DF-UKS iter  10:  -540.53299915041111   -2.92448e-08   2.79643e-10 DIIS/DAMP=1%
   @DF-UKS iter  11:  -540.53299914775471    2.65641e-09   6.36723e-11 DIIS/DAMP=1%
  Energy and wave function converged.


  ==> Post-Iterations <==

   Electrons on quadrature grid:
      Nalpha   =   14.9999966880 ; deviation = -3.312e-06
      Nbeta    =   12.9999966396 ; deviation = -3.360e-06
      Ntotal   =   27.9999933276 ; deviation = -6.672e-06 

   @Spin Contamination Metric:   2.349376172E-03
   @S^2 Expected:                2.000000000E+00
   @S^2 Observed:                2.002349376E+00
   @S   Expected:                1.000000000E+00
   @S   Observed:                1.000000000E+00

    Orbital Energies [Eh]
    ---------------------

    Alpha Occupied:                                                       

       1A1   -76.877534     2A1   -46.758502     3A1    -6.393579  
       4A1    -4.580570     1B2    -4.532802     1B1    -4.532802  
       5A1    -3.115186     6A1    -1.890019     2B2    -1.816301  
       2B1    -1.816301     7A1    -0.328380     3B2    -0.046620  
       3B1    -0.046620     8A1    -0.033311     9A1     0.080309  

    Alpha Virtual:                                                        

       4B2     0.173126     4B1     0.173126    10A1     0.196170  
      11A1     0.265554     5B1     0.312385     5B2     0.312385  
       1A2     0.435252    12A1     0.435253     6B1     0.513063  
       6B2     0.513063    13A1     0.529398    14A1     0.658411  
       7B2     0.735774     7B1     0.735774    15A1     0.802710  
       2A2     0.820410    16A1     0.820414     8B2     0.983196  
       8B1     0.983196    17A1     1.170949    18A1     2.761338  

    Beta Occupied:                                                        

       1A1   -76.873931     2A1   -46.753049     3A1    -6.389569  
       4A1    -4.568993     1B2    -4.530480     1B1    -4.530480  
       5A1    -3.106387     6A1    -1.879823     2B2    -1.810920  
       2B1    -1.810920     7A1    -0.294995     3B2    -0.033940  
       3B1    -0.033940  

    Beta Virtual:                                                         

       8A1     0.068462     9A1     0.172574     4B2     0.187311  
       4B1     0.187311    10A1     0.210125    11A1     0.303400  
       5B1     0.334155     5B2     0.334155    12A1     0.450581  
       1A2     0.450581     6B1     0.541267     6B2     0.541267  
      13A1     0.572122    14A1     0.696936     7B2     0.756442  
       7B1     0.756442    15A1     0.828550     2A2     0.830216  
      16A1     0.830218     8B2     1.014490     8B1     1.014490  
      17A1     1.204641    18A1     2.779426  

    Final Occupation by Irrep:
             A1    A2    B1    B2 
    DOCC [     7,    0,    3,    3 ]
    SOCC [     2,    0,    0,    0 ]
    NA   [     9,    0,    3,    3 ]
    NB   [     7,    0,    3,    3 ]

  @DF-UKS Final Energy:  -540.53299914775471

   => Energetics <=

    Nuclear Repulsion Energy =             76.4518641436242916
    One-Electron Energy =                -905.5406898000569527
    Two-Electron Energy =                 321.0099763538404432
    DFT Exchange-Correlation Energy =     -32.4541498451625685
    Empirical Dispersion Energy =           0.0000000000000000
    VV10 Nonlocal Energy =                  0.0000000000000000
    Total Energy =                       -540.5329991477547082

  UHF NO Occupations:
  HONO-2 :    7 A1 1.9993171
  HONO-1 :    8 A1 1.0000000
  HONO-0 :    9 A1 1.0000000
  LUNO+0 :   10 A1 0.0006829
  LUNO+1 :    4 B1 0.0002454
  LUNO+2 :    4 B2 0.0002454
  LUNO+3 :   11 A1 0.0000005


Computation Completed


Properties will be evaluated at   0.000000,   0.000000,   0.000000 [a0]

Properties computed using the SCF density matrix


 Multipole Moments:

 ------------------------------------------------------------------------------------
     Multipole            Electronic (a.u.)      Nuclear  (a.u.)        Total (a.u.)
 ------------------------------------------------------------------------------------

 L = 1.  Multiply by 2.5417464519 to convert [e a0] to [Debye]
 Dipole X            :          0.0000000            0.0000000            0.0000000
 Dipole Y            :          0.0000000            0.0000000            0.0000000
 Dipole Z            :         -1.3360542            0.5102011           -0.8258532
 Magnitude           :                                                    0.8258532

 ------------------------------------------------------------------------------------

*** tstop() called on Joses-MacBook-Pro-2.local at Thu Jul 17 11:26:43 2025
Module time:
	user time   =      10.17 seconds =       0.17 minutes
	system time =       3.17 seconds =       0.05 minutes
	total time  =          1 seconds =       0.02 minutes
Total time:
	user time   =      50.32 seconds =       0.84 minutes
	system time =      16.68 seconds =       0.28 minutes
	total time  =          7 seconds =       0.12 minutes

*** tstart() called on Joses-MacBook-Pro-2.local
*** at Thu Jul 17 11:26:43 2025


         ------------------------------------------------------------
                                   SCF GRAD                          
                          Rob Parrish, Justin Turney,                
                       Andy Simmonett, and Alex Sokolov              
         ------------------------------------------------------------

  ==> Geometry <==

    Molecular point group: c2v
    Full point group: C_inf_v

    Geometry (in Angstrom), charge = -1, multiplicity = 3:

       Center              X                  Y                   Z               Mass       
    ------------   -----------------  -----------------  -----------------  -----------------
         MG           0.000000000000     0.000000000000     0.702169958365    23.985041697000
         P            0.000000000000     0.000000000000    -0.543736848324    30.973761998420

  Nuclear repulsion =   76.451864143624292

  ==> Basis Set <==

  Basis Set: CC-PVDZ
    Blend: CC-PVDZ
    Number of shells: 16
    Number of basis functions: 36
    Number of Cartesian functions: 38
    Spherical Harmonics?: true
    Max angular momentum: 2

  ==> DFJKGrad: Density-Fitted SCF Gradients <==

    Gradient:                    1
    J tasked:                  Yes
    K tasked:                  Yes
    wK tasked:                  No
    OpenMP threads:              1
    Integrals threads:           1
    Memory [MiB]:              375
    Schwarz Cutoff:          1E-12
    Fitting Condition:       1E-10

   => Auxiliary Basis Set <=

  Basis Set: (CC-PVDZ AUX)
    Blend: CC-PVDZ-JKFIT + DEF2-UNIVERSAL-JKFIT
    Number of shells: 70
    Number of basis functions: 224
    Number of Cartesian functions: 267
    Spherical Harmonics?: true
    Max angular momentum: 4

  ==> DFT Potential <==

   => LibXC <=

    Version 6.2.2
    S. Lehtola, C. Steigemann, M. J.T. Oliveira, and M. A.L. Marques.,  SoftwareX 7, 1–5 (2018) (10.1016/j.softx.2017.11.002)

   => Composite Functional: B3LYP <= 

    B3LYP Hyb-GGA Exchange-Correlation Functional

    P. J. Stephens, F. J. Devlin, C. F. Chabalowski, and M. J. Frisch.,  J. Phys. Chem. 98, 11623 (1994) (10.1021/j100096a001)

    Deriv               =              1
    GGA                 =           TRUE
    Meta                =          FALSE

    Exchange Hybrid     =           TRUE
    MP2 Hybrid          =          FALSE

   => Exchange Functionals <=

    0.0800   Slater exchange
    0.7200         Becke 88

   => Exact (HF) Exchange <=

    0.2000               HF 

   => Correlation Functionals <=

    0.1900   Vosko, Wilk & Nusair (VWN5_RPA)
    0.8100   Lee, Yang & Parr

   => LibXC Density Thresholds  <==

    XC_HYB_GGA_XC_B3LYP:  1.00E-15 

   => Molecular Quadrature <=

    Radial Scheme          =       TREUTLER
    Pruning Scheme         =           NONE
    Nuclear Scheme         =       TREUTLER

    Blocking Scheme        =         OCTREE
    BS radius alpha        =              1
    Pruning alpha          =              1
    Radial Points          =             75
    Spherical Points       =            302
    Total Points           =          42918
    Total Blocks           =            417
    Max Points             =            255
    Max Functions          =             36
    Weights Tolerance      =       1.00E-15


  -Total Gradient:
     Atom            X                  Y                   Z
    ------   -----------------  -----------------  -----------------
       1        0.000000000000     0.000000000000    -1.538029225870
       2        0.000000000000     0.000000000000     1.537999220154


*** tstop() called on Joses-MacBook-Pro-2.local at Thu Jul 17 11:26:43 2025
Module time:
	user time   =       2.44 seconds =       0.04 minutes
	system time =       1.98 seconds =       0.03 minutes
	total time  =          0 seconds =       0.00 minutes
Total time:
	user time   =      52.76 seconds =       0.88 minutes
	system time =      18.67 seconds =       0.31 minutes
	total time  =          7 seconds =       0.12 minutes

    			-----------------------------------------

    			 OPTKING 3.0: for geometry optimizations 

    			     By R.A. King, Bethel University     

    			        with contributions from          

    			    A.V. Copan, J. Cayton, A. Heide      

    			-----------------------------------------

    
	                            ===> Fragment 1 <== 

	 Z (Atomic Numbers)          Masses                          Geom                  
	      12.000000            23.985042          0.00000000  0.00000000  1.32690891   
	      15.000000            30.973762          0.00000000  0.00000000 -1.02751373   

	 - Coordinate -           - BOHR/RAD -       - ANG/DEG -
	 R(1,2)           =         2.354423           1.245907


	        --- Internal Coordinate Step in ANG or DEG, aJ/ANG or AJ/DEG ---
	-------------------------------------------------------------------------------
	           Coordinate      Previous         Force          Change          New 
	           ----------      --------        ------          ------        ------
	               R(1,2)       1.24591       12.67127        0.20370       1.44961
	-------------------------------------------------------------------------------

	                                 ==> Convergence Check <==                                  
    
	Measures of convergence in internal coordinates in au.
    
	Criteria marked as inactive (o), active & met (*), and active & unmet ( ).

	----------------------------------------------------------------------------------------------
	   Step    Total Energy     Delta E     Max Force     RMS Force      Max Disp      RMS Disp   
	----------------------------------------------------------------------------------------------
	  Convergence Criteria     1.00e-06 *    3.00e-04 *             o    1.20e-03 *             o
	----------------------------------------------------------------------------------------------
	     4    -540.53299915   -1.01e-01      1.54e+00      1.54e+00 o    3.85e-01      3.85e-01 o  ~
	----------------------------------------------------------------------------------------------

Next Geometry in Ang 
	Fragment 1 (Ang)

	   Mg   0.0000000000   0.0000000000   0.8040196347
	    P   0.0000000000   0.0000000000  -0.6455865247


    Structure for next step:
    Molecular point group: c2v
    Full point group: C_inf_v

    Geometry (in Angstrom), charge = -1, multiplicity = 3:

    MG           0.000000000000     0.000000000000     0.816971133886
    P            0.000000000000     0.000000000000    -0.632635025493


Scratch directory: /tmp/
gradient() will perform analytic gradient computation.
   => Libint2 <=

    Primary   basis highest AM E, G, H:  6, 6, 3
    Auxiliary basis highest AM E, G, H:  7, 7, 4
    Onebody   basis highest AM E, G, H:  -, -, -
    Solid Harmonics ordering:            Gaussian

*** tstart() called on Joses-MacBook-Pro-2.local
*** at Thu Jul 17 11:26:43 2025

   => Loading Basis Set <=

    Name: CC-PVDZ
    Role: ORBITAL
    Keyword: BASIS
    atoms 1 entry MG         line   353 file /Users/joseantoniorodriguesromero/anaconda3/share/psi4/basis/cc-pvdz.gbs 
    atoms 2 entry P          line   538 file /Users/joseantoniorodriguesromero/anaconda3/share/psi4/basis/cc-pvdz.gbs 


         ---------------------------------------------------------
                                   SCF
               by Justin Turney, Rob Parrish, Andy Simmonett
                          and Daniel G. A. Smith
                              UKS Reference
                        1 Threads,    500 MiB Core
         ---------------------------------------------------------

  ==> Geometry <==

    Molecular point group: c2v
    Full point group: C_inf_v

    Geometry (in Angstrom), charge = -1, multiplicity = 3:

[...]
	  Convergence Criteria     1.00e-06 *    3.00e-04 *             o    1.20e-03 *             o
	----------------------------------------------------------------------------------------------
	    12    -541.43596961   -1.02e-04      4.62e-04      4.62e-04 o    6.47e-03      6.47e-03 o  ~
	----------------------------------------------------------------------------------------------

Next Geometry in Ang 
	Fragment 1 (Ang)

	   Mg   0.0000000000   0.0000000000   1.3691671594
	    P   0.0000000000   0.0000000000  -1.0606235460


    Structure for next step:
    Molecular point group: c2v
    Full point group: C_inf_v

    Geometry (in Angstrom), charge = -1, multiplicity = 3:

    MG           0.000000000000     0.000000000000     1.369384956643
    P            0.000000000000     0.000000000000    -1.060405748775


Scratch directory: /tmp/
gradient() will perform analytic gradient computation.
   => Libint2 <=

    Primary   basis highest AM E, G, H:  6, 6, 3
    Auxiliary basis highest AM E, G, H:  7, 7, 4
    Onebody   basis highest AM E, G, H:  -, -, -
    Solid Harmonics ordering:            Gaussian

*** tstart() called on Joses-MacBook-Pro-2.local
*** at Thu Jul 17 11:27:13 2025

   => Loading Basis Set <=

    Name: CC-PVDZ
    Role: ORBITAL
    Keyword: BASIS
    atoms 1 entry MG         line   353 file /Users/joseantoniorodriguesromero/anaconda3/share/psi4/basis/cc-pvdz.gbs 
    atoms 2 entry P          line   538 file /Users/joseantoniorodriguesromero/anaconda3/share/psi4/basis/cc-pvdz.gbs 


         ---------------------------------------------------------
                                   SCF
               by Justin Turney, Rob Parrish, Andy Simmonett
                          and Daniel G. A. Smith
                              UKS Reference
                        1 Threads,    500 MiB Core
         ---------------------------------------------------------

  ==> Geometry <==

    Molecular point group: c2v
    Full point group: C_inf_v

    Geometry (in Angstrom), charge = -1, multiplicity = 3:

       Center              X                  Y                   Z               Mass       
    ------------   -----------------  -----------------  -----------------  -----------------
         MG           0.000000000000     0.000000000000     1.369384956643    23.985041697000
         P            0.000000000000     0.000000000000    -1.060405748775    30.973761998420

  Running in c2v symmetry.

  Rotational constants: A = ************  B =      0.21123  C =      0.21123 [cm^-1]
  Rotational constants: A = ************  B =   6332.60359  C =   6332.60359 [MHz]
  Nuclear repulsion =   39.201688321630591

  Charge       = -1
  Multiplicity = 3
  Electrons    = 28
  Nalpha       = 15
  Nbeta        = 13

  ==> Algorithm <==

  SCF Algorithm Type is DF.
  DIIS enabled.
  MOM disabled.
  Fractional occupation disabled.
  Guess Type is READ.
  Energy threshold   = 1.00e-08
  Density threshold  = 1.00e-08
  Integral threshold = 1.00e-12

  ==> Primary Basis <==

  Basis Set: CC-PVDZ
    Blend: CC-PVDZ
    Number of shells: 16
    Number of basis functions: 36
    Number of Cartesian functions: 38
    Spherical Harmonics?: true
    Max angular momentum: 2

  ==> DFT Potential <==

   => LibXC <=

    Version 6.2.2
    S. Lehtola, C. Steigemann, M. J.T. Oliveira, and M. A.L. Marques.,  SoftwareX 7, 1–5 (2018) (10.1016/j.softx.2017.11.002)

   => Composite Functional: B3LYP <= 

    B3LYP Hyb-GGA Exchange-Correlation Functional

    P. J. Stephens, F. J. Devlin, C. F. Chabalowski, and M. J. Frisch.,  J. Phys. Chem. 98, 11623 (1994) (10.1021/j100096a001)

    Deriv               =              1
    GGA                 =           TRUE
    Meta                =          FALSE

    Exchange Hybrid     =           TRUE
    MP2 Hybrid          =          FALSE

   => Exchange Functionals <=

    0.0800   Slater exchange
    0.7200         Becke 88

   => Exact (HF) Exchange <=

    0.2000               HF 

   => Correlation Functionals <=

    0.1900   Vosko, Wilk & Nusair (VWN5_RPA)
    0.8100   Lee, Yang & Parr

   => LibXC Density Thresholds  <==

    XC_HYB_GGA_XC_B3LYP:  1.00E-15 

   => Molecular Quadrature <=

    Radial Scheme          =       TREUTLER
    Pruning Scheme         =           NONE
    Nuclear Scheme         =       TREUTLER

    Blocking Scheme        =         OCTREE
    BS radius alpha        =              1
    Pruning alpha          =              1
    Radial Points          =             75
    Spherical Points       =            302
    Total Points           =          43012
    Total Blocks           =            419
    Max Points             =            256
    Max Functions          =             36
    Weights Tolerance      =       1.00E-15

   => Loading Basis Set <=

    Name: (CC-PVDZ AUX)
    Role: JKFIT
    Keyword: DF_BASIS_SCF
    atoms 1 entry MG         line   576 file /Users/joseantoniorodriguesromero/anaconda3/share/psi4/basis/def2-universal-jkfit.gbs 
    atoms 2 entry P          line   519 file /Users/joseantoniorodriguesromero/anaconda3/share/psi4/basis/cc-pvdz-jkfit.gbs 

   => Loading Basis Set <=

    Name: CC-PVDZ
    Role: ORBITAL
    Keyword: BASIS
    atoms 1 entry MG         line   353 file /Users/joseantoniorodriguesromero/anaconda3/share/psi4/basis/cc-pvdz.gbs 
    atoms 2 entry P          line   538 file /Users/joseantoniorodriguesromero/anaconda3/share/psi4/basis/cc-pvdz.gbs 

  Reading orbitals from file /tmp/triplet_MgP.default.73132.180.npy, no projection.

  ==> Integral Setup <==

  DFHelper Memory: AOs need 0.003 GiB; user supplied 0.323 GiB. 
  Using in-core AOs.

  ==> MemDFJK: Density-Fitted J/K Matrices <==

    J tasked:                   Yes
    K tasked:                   Yes
    wK tasked:                   No
    OpenMP threads:               1
    Memory [MiB]:               330
    Algorithm:                 Core
    Schwarz Cutoff:           1E-12
    Mask sparsity (%):       0.0000
    Fitting Condition:        1E-10

   => Auxiliary Basis Set <=

  Basis Set: (CC-PVDZ AUX)
    Blend: CC-PVDZ-JKFIT + DEF2-UNIVERSAL-JKFIT
    Number of shells: 70
    Number of basis functions: 224
    Number of Cartesian functions: 267
    Spherical Harmonics?: true
    Max angular momentum: 4

  Cached 100.0% of DFT collocation blocks in 0.043 [GiB].

  Minimum eigenvalue in the overlap matrix is 1.8068102315E-02.
  Reciprocal condition number of the overlap matrix is 5.7837310508E-03.
    Using symmetric orthogonalization.

  ==> Pre-Iterations <==

  SCF Guess: Orbitals guess was supplied from a previous computation.

   -------------------------------------------------------
    Irrep   Nso     Nmo     Nalpha   Nbeta   Ndocc  Nsocc
   -------------------------------------------------------
     A1        18      18       9       8       8       1
     A2         2       2       0       0       0       0
     B1         8       8       3       2       2       1
     B2         8       8       3       3       3       0
   -------------------------------------------------------
    Total      36      36      15      13      13       2
   -------------------------------------------------------

  ==> Iterations <==

                           Total Energy        Delta E     RMS |[F,P]|

   @DF-UKS iter   0:  -541.43576554505353   -5.41436e+02   1.74278e-04 
   @DF-UKS iter   1:  -541.43597067721691   -2.05132e-04   2.56223e-05 DIIS
   @DF-UKS iter   2:  -541.43596948831691    1.18890e-06   5.51279e-05 DIIS/DAMP=1%
   @DF-UKS iter   3:  -541.43589516807185    7.43202e-05   5.65453e-06 DIIS/DAMP=1%
   @DF-UKS iter   4:  -541.43596940207146   -7.42340e-05   2.66780e-06 DIIS/DAMP=1%
   @DF-UKS iter   5:  -541.43596801947308    1.38260e-06   4.14444e-07 DIIS/DAMP=1%
   @DF-UKS iter   6:  -541.43597157114448   -3.55167e-06   1.08186e-07 DIIS/DAMP=1%
   @DF-UKS iter   7:  -541.43597107140215    4.99742e-07   2.07521e-08 DIIS/DAMP=1%
   @DF-UKS iter   8:  -541.43597116964884   -9.82467e-08   1.08392e-08 DIIS/DAMP=1%
   @DF-UKS iter   9:  -541.43597113564749    3.40013e-08   2.91833e-09 DIIS/DAMP=1%
   @DF-UKS iter  10:  -541.43597115123509   -1.55876e-08   5.14756e-10 DIIS/DAMP=1%
   @DF-UKS iter  11:  -541.43597115028933    9.45761e-10   7.05220e-11 DIIS/DAMP=1%
  Energy and wave function converged.


  ==> Post-Iterations <==

   Electrons on quadrature grid:
      Nalpha   =   15.0000025603 ; deviation = 2.560e-06
      Nbeta    =   13.0000019751 ; deviation = 1.975e-06
      Ntotal   =   28.0000045354 ; deviation = 4.535e-06 

   @Spin Contamination Metric:   1.328413646E-02
   @S^2 Expected:                2.000000000E+00
   @S^2 Observed:                2.013284136E+00
   @S   Expected:                1.000000000E+00
   @S   Observed:                1.000000000E+00

    Orbital Energies [Eh]
    ---------------------

    Alpha Occupied:                                                       

       1A1   -76.849450     2A1   -46.631710     3A1    -6.317216  
       1B1    -4.484453     4A1    -4.479562     1B2    -4.473247  
       5A1    -2.915645     2B1    -1.660426     2B2    -1.658996  
       6A1    -1.658509     7A1    -0.336811     8A1    -0.063383  
       3B1    -0.025650     3B2     0.006612     9A1     0.013178  

    Alpha Virtual:                                                        

       4B1     0.131408     4B2     0.139080    10A1     0.178371  
      11A1     0.247709     5B1     0.312250     5B2     0.317571  
      12A1     0.364769     6B1     0.472544     6B2     0.484671  
      13A1     0.491241     1A2     0.491978    14A1     0.502582  
       7B1     0.640118     7B2     0.665147    15A1     0.683008  
       2A2     0.710103    16A1     0.713348    17A1     0.766706  
       8B1     0.817684     8B2     0.840432    18A1     1.111079  

    Beta Occupied:                                                        

       1A1   -76.844103     2A1   -46.630883     3A1    -6.311524  
       1B1    -4.471820     4A1    -4.470703     1B2    -4.469431  
       5A1    -2.914449     2B1    -1.659508     2B2    -1.658591  
       6A1    -1.655657     7A1    -0.282362     8A1    -0.028807  
       3B2     0.022579  

    Beta Virtual:                                                         

       3B1     0.080145     9A1     0.083755     4B2     0.147782  
       4B1     0.155828    10A1     0.189165    11A1     0.258631  
       5B2     0.319240     5B1     0.319381    12A1     0.386662  
       1A2     0.497425    13A1     0.497785     6B2     0.502606  
       6B1     0.504735    14A1     0.526854     7B2     0.676961  
       7B1     0.682903    15A1     0.711618     2A2     0.753403  
      16A1     0.756875    17A1     0.791358     8B2     0.861174  
       8B1     0.865733    18A1     1.138232  

    Final Occupation by Irrep:
             A1    A2    B1    B2 
    DOCC [     8,    0,    2,    3 ]
    SOCC [     1,    0,    1,    0 ]
    NA   [     9,    0,    3,    3 ]
    NB   [     8,    0,    2,    3 ]

  @DF-UKS Final Energy:  -541.43597115028933

   => Energetics <=

    Nuclear Repulsion Energy =             39.2016883216305914
    One-Electron Energy =                -835.4550316050958827
    Two-Electron Energy =                 286.9570939547538160
    DFT Exchange-Correlation Energy =     -32.1397218215778437
    Empirical Dispersion Energy =           0.0000000000000000
    VV10 Nonlocal Energy =                  0.0000000000000000
    Total Energy =                       -541.4359711502893333

  UHF NO Occupations:
  HONO-2 :    8 A1 1.9962305
  HONO-1 :    3 B1 1.0000000
  HONO-0 :    9 A1 1.0000000
  LUNO+0 :   10 A1 0.0037695
  LUNO+1 :    4 B2 0.0022619
  LUNO+2 :   11 A1 0.0006200
  LUNO+3 :    5 B2 0.0000002


Computation Completed


Properties will be evaluated at   0.000000,   0.000000,   0.000000 [a0]

Properties computed using the SCF density matrix


 Multipole Moments:

 ------------------------------------------------------------------------------------
     Multipole            Electronic (a.u.)      Nuclear  (a.u.)        Total (a.u.)
 ------------------------------------------------------------------------------------

 L = 1.  Multiply by 2.5417464519 to convert [e a0] to [Debye]
 Dipole X            :          0.0000000            0.0000000            0.0000000
 Dipole Y            :          0.0000000            0.0000000            0.0000000
 Dipole Z            :         -1.3935257            0.9950036           -0.3985221
 Magnitude           :                                                    0.3985221

 ------------------------------------------------------------------------------------

*** tstop() called on Joses-MacBook-Pro-2.local at Thu Jul 17 11:27:14 2025
Module time:
	user time   =       9.93 seconds =       0.17 minutes
	system time =       2.35 seconds =       0.04 minutes
	total time  =          1 seconds =       0.02 minutes
Total time:
	user time   =     301.78 seconds =       5.03 minutes
	system time =      70.51 seconds =       1.18 minutes
	total time  =         38 seconds =       0.63 minutes

*** tstart() called on Joses-MacBook-Pro-2.local
*** at Thu Jul 17 11:27:14 2025


         ------------------------------------------------------------
                                   SCF GRAD                          
                          Rob Parrish, Justin Turney,                
                       Andy Simmonett, and Alex Sokolov              
         ------------------------------------------------------------

  ==> Geometry <==

    Molecular point group: c2v
    Full point group: C_inf_v

    Geometry (in Angstrom), charge = -1, multiplicity = 3:

       Center              X                  Y                   Z               Mass       
    ------------   -----------------  -----------------  -----------------  -----------------
         MG           0.000000000000     0.000000000000     1.369384956643    23.985041697000
         P            0.000000000000     0.000000000000    -1.060405748775    30.973761998420

  Nuclear repulsion =   39.201688321630591

  ==> Basis Set <==

  Basis Set: CC-PVDZ
    Blend: CC-PVDZ
    Number of shells: 16
    Number of basis functions: 36
    Number of Cartesian functions: 38
    Spherical Harmonics?: true
    Max angular momentum: 2

  ==> DFJKGrad: Density-Fitted SCF Gradients <==

    Gradient:                    1
    J tasked:                  Yes
    K tasked:                  Yes
    wK tasked:                  No
    OpenMP threads:              1
    Integrals threads:           1
    Memory [MiB]:              375
    Schwarz Cutoff:          1E-12
    Fitting Condition:       1E-10

   => Auxiliary Basis Set <=

  Basis Set: (CC-PVDZ AUX)
    Blend: CC-PVDZ-JKFIT + DEF2-UNIVERSAL-JKFIT
    Number of shells: 70
    Number of basis functions: 224
    Number of Cartesian functions: 267
    Spherical Harmonics?: true
    Max angular momentum: 4

  ==> DFT Potential <==

   => LibXC <=

    Version 6.2.2
    S. Lehtola, C. Steigemann, M. J.T. Oliveira, and M. A.L. Marques.,  SoftwareX 7, 1–5 (2018) (10.1016/j.softx.2017.11.002)

   => Composite Functional: B3LYP <= 

    B3LYP Hyb-GGA Exchange-Correlation Functional

    P. J. Stephens, F. J. Devlin, C. F. Chabalowski, and M. J. Frisch.,  J. Phys. Chem. 98, 11623 (1994) (10.1021/j100096a001)

    Deriv               =              1
    GGA                 =           TRUE
    Meta                =          FALSE

    Exchange Hybrid     =           TRUE
    MP2 Hybrid          =          FALSE

   => Exchange Functionals <=

    0.0800   Slater exchange
    0.7200         Becke 88

   => Exact (HF) Exchange <=

    0.2000               HF 

   => Correlation Functionals <=

    0.1900   Vosko, Wilk & Nusair (VWN5_RPA)
    0.8100   Lee, Yang & Parr

   => LibXC Density Thresholds  <==

    XC_HYB_GGA_XC_B3LYP:  1.00E-15 

   => Molecular Quadrature <=

    Radial Scheme          =       TREUTLER
    Pruning Scheme         =           NONE
    Nuclear Scheme         =       TREUTLER

    Blocking Scheme        =         OCTREE
    BS radius alpha        =              1
    Pruning alpha          =              1
    Radial Points          =             75
    Spherical Points       =            302
    Total Points           =          43012
    Total Blocks           =            419
    Max Points             =            256
    Max Functions          =             36
    Weights Tolerance      =       1.00E-15


  -Total Gradient:
     Atom            X                  Y                   Z
    ------   -----------------  -----------------  -----------------
       1        0.000000000000     0.000000000000    -0.000038646669
       2        0.000000000000     0.000000000000     0.000081841517


*** tstop() called on Joses-MacBook-Pro-2.local at Thu Jul 17 11:27:14 2025
Module time:
	user time   =       2.34 seconds =       0.04 minutes
	system time =       1.60 seconds =       0.03 minutes
	total time  =          0 seconds =       0.00 minutes
Total time:
	user time   =     304.12 seconds =       5.07 minutes
	system time =      72.11 seconds =       1.20 minutes
	total time  =         38 seconds =       0.63 minutes

    			-----------------------------------------

    			 OPTKING 3.0: for geometry optimizations 

    			     By R.A. King, Bethel University     

    			        with contributions from          

    			    A.V. Copan, J. Cayton, A. Heide      

    			-----------------------------------------

    
	                            ===> Fragment 1 <== 

	 Z (Atomic Numbers)          Masses                          Geom                  
	      12.000000            23.985042          0.00000000  0.00000000  2.58776253   
	      15.000000            30.973762          0.00000000  0.00000000 -2.00387645   

	 - Coordinate -           - BOHR/RAD -       - ANG/DEG -
	 R(1,2)           =         4.591639           2.429791


	        --- Internal Coordinate Step in ANG or DEG, aJ/ANG or AJ/DEG ---
	-------------------------------------------------------------------------------
	           Coordinate      Previous         Force          Change          New 
	           ----------      --------        ------          ------        ------
	               R(1,2)       2.42979        0.00050        0.00045       2.43024
	-------------------------------------------------------------------------------

	                                 ==> Convergence Check <==                                  
    
	Measures of convergence in internal coordinates in au.
    
	Criteria marked as inactive (o), active & met (*), and active & unmet ( ).

	----------------------------------------------------------------------------------------------
	   Step    Total Energy     Delta E     Max Force     RMS Force      Max Disp      RMS Disp   
	----------------------------------------------------------------------------------------------
	  Convergence Criteria     1.00e-06 *    3.00e-04 *             o    1.20e-03 *             o
	----------------------------------------------------------------------------------------------
	    13    -541.43597115   -1.54e-06      6.02e-05 *    6.02e-05 o    8.50e-04 *    8.50e-04 o  ~
	----------------------------------------------------------------------------------------------

Next Geometry in Ang 
	Fragment 1 (Ang)

	   Mg   0.0000000000   0.0000000000   1.3696098065
	    P   0.0000000000   0.0000000000  -1.0606305987


    Final optimized geometry and variables:
    Molecular point group: c2v
    Full point group: C_inf_v

    Geometry (in Angstrom), charge = -1, multiplicity = 3:

    MG           0.000000000000     0.000000000000     1.369384956643
    P            0.000000000000     0.000000000000    -1.060405748775


    Psi4 stopped on: Thursday, 17 July 2025 11:27AM
    Psi4 wall time for execution: 0:00:38.83

*** Psi4 exiting successfully. Buy a developer a beer!
