
    -----------------------------------------------------------------------
          Psi4: An Open-Source Ab Initio Electronic Structure Package
                               Psi4 1.9.1 release

                         Git: Rev {} zzzzzzz 


    D. G. A. Smith, L. A. Burns, A. C. Simmonett, R. M. Parrish,
    M. C. Schieber, R. Galvelis, P. Kraus, H. Kruse, R. Di Remigio,
    A. Alenaizan, A. M. James, S. Lehtola, J. P. Misiewicz, M. Scheurer,
    R. A. Shaw, J. B. Schriber, Y. Xie, Z. L. Glick, D. A. Sirianni,
    J. S. O'Brien, J. M. Waldrop, A. Kumar, E. G. Hohenstein,
    B. P. Pritchard, B. R. Brooks, H. F. Schaefer III, A. Yu. Sokolov,
    K. Patkowski, A. E. DePrince III, U. Bozkaya, R. A. King,
    F. A. Evangelista, J. M. Turney, T. D. Crawford, C. D. Sherrill,
    J. Chem. Phys. 152(18) 184108 (2020). https://doi.org/10.1063/5.0006002

                            Additional Code Authors
    E. T. Seidl, C. L. Janssen, E. F. Valeev, M. L. Leininger,
    J. F. Gonthier, R. M. Richard, H. R. McAlexander, M. Saitow, X. Wang,
    P. Verma, M. H. Lechner, A. Jiang, S. Behnle, A. G. Heide,
    M. F. Herbst, and D. L. Poole

             Previous Authors, Complete List of Code Contributors,
                       and Citations for Specific Modules
    https://github.com/psi4/psi4/blob/master/codemeta.json
    https://github.com/psi4/psi4/graphs/contributors
    http://psicode.org/psi4manual/master/introduction.html#citing-psifour

    -----------------------------------------------------------------------


    Psi4 started on: Thursday, 17 July 2025 10:55AM

    Process ID: 72866
    Host:       Joses-MacBook-Pro-2.local
    PSIDATADIR: /Users/joseantoniorodriguesromero/anaconda3/share/psi4
    Memory:     500.0 MiB
    Threads:    1
    
  ==> Input File <==

--------------------------------------------------------------------------
molecule { 
-1 3
F   0.00000        0.60000        0.00000
S   0.00000       -0.60000        0.00000
}

set { 
basis              cc-pvdz
reference          uks
maxiter            500
geom_maxiter       500
DAMPING_PERCENTAGE 1
guess              SAP
}

optimize('b3lyp')
--------------------------------------------------------------------------

Scratch directory: /tmp/
gradient() will perform analytic gradient computation.
   => Libint2 <=

    Primary   basis highest AM E, G, H:  6, 6, 3
    Auxiliary basis highest AM E, G, H:  7, 7, 4
    Onebody   basis highest AM E, G, H:  -, -, -
    Solid Harmonics ordering:            Gaussian

*** tstart() called on Joses-MacBook-Pro-2.local
*** at Thu Jul 17 10:55:06 2025

   => Loading Basis Set <=

    Name: CC-PVDZ
    Role: ORBITAL
    Keyword: BASIS
    atoms 1 entry F          line   228 file /Users/joseantoniorodriguesromero/anaconda3/share/psi4/basis/cc-pvdz.gbs 
    atoms 2 entry S          line   598 file /Users/joseantoniorodriguesromero/anaconda3/share/psi4/basis/cc-pvdz.gbs 


         ---------------------------------------------------------
                                   SCF
               by Justin Turney, Rob Parrish, Andy Simmonett
                          and Daniel G. A. Smith
                              UKS Reference
                        1 Threads,    500 MiB Core
         ---------------------------------------------------------

  ==> Geometry <==

    Molecular point group: c2v
    Full point group: C_inf_v

    Geometry (in Angstrom), charge = -1, multiplicity = 3:

       Center              X                  Y                   Z               Mass       
    ------------   -----------------  -----------------  -----------------  -----------------
         F            0.000000000000     0.000000000000     0.752719803146    18.998403162730
         S            0.000000000000     0.000000000000    -0.447280196854    31.972071174400

  Running in c2v symmetry.

  Rotational constants: A = ************  B =      0.98235  C =      0.98235 [cm^-1]
  Rotational constants: A = ************  B =  29450.01442  C =  29450.01442 [MHz]
  Nuclear repulsion =   63.501265280400013

  Charge       = -1
  Multiplicity = 3
  Electrons    = 26
  Nalpha       = 14
  Nbeta        = 12

  ==> Algorithm <==

  SCF Algorithm Type is DF.
  DIIS enabled.
  MOM disabled.
  Fractional occupation disabled.
  Guess Type is SAP.
  Energy threshold   = 1.00e-08
  Density threshold  = 1.00e-08
  Integral threshold = 1.00e-12

  ==> Primary Basis <==

  Basis Set: CC-PVDZ
    Blend: CC-PVDZ
    Number of shells: 14
    Number of basis functions: 32
    Number of Cartesian functions: 34
    Spherical Harmonics?: true
    Max angular momentum: 2

  ==> DFT Potential <==

   => LibXC <=

    Version 6.2.2
    S. Lehtola, C. Steigemann, M. J.T. Oliveira, and M. A.L. Marques.,  SoftwareX 7, 1–5 (2018) (10.1016/j.softx.2017.11.002)

   => Composite Functional: B3LYP <= 

    B3LYP Hyb-GGA Exchange-Correlation Functional

    P. J. Stephens, F. J. Devlin, C. F. Chabalowski, and M. J. Frisch.,  J. Phys. Chem. 98, 11623 (1994) (10.1021/j100096a001)

    Deriv               =              1
    GGA                 =           TRUE
    Meta                =          FALSE

    Exchange Hybrid     =           TRUE
    MP2 Hybrid          =          FALSE

   => Exchange Functionals <=

    0.0800   Slater exchange
    0.7200         Becke 88

   => Exact (HF) Exchange <=

    0.2000               HF 

   => Correlation Functionals <=

    0.1900   Vosko, Wilk & Nusair (VWN5_RPA)
    0.8100   Lee, Yang & Parr

   => LibXC Density Thresholds  <==

    XC_HYB_GGA_XC_B3LYP:  1.00E-15 

   => Molecular Quadrature <=

    Radial Scheme          =       TREUTLER
    Pruning Scheme         =           NONE
    Nuclear Scheme         =       TREUTLER

    Blocking Scheme        =         OCTREE
    BS radius alpha        =              1
    Pruning alpha          =              1
    Radial Points          =             75
    Spherical Points       =            302
    Total Points           =          42026
    Total Blocks           =            375
    Max Points             =            256
    Max Functions          =             32
    Weights Tolerance      =       1.00E-15

   => Loading Basis Set <=

    Name: (CC-PVDZ AUX)
    Role: JKFIT
    Keyword: DF_BASIS_SCF
    atoms 1 entry F          line   271 file /Users/joseantoniorodriguesromero/anaconda3/share/psi4/basis/cc-pvdz-jkfit.gbs 
    atoms 2 entry S          line   593 file /Users/joseantoniorodriguesromero/anaconda3/share/psi4/basis/cc-pvdz-jkfit.gbs 

  ==> Integral Setup <==

  DFHelper Memory: AOs need 0.002 GiB; user supplied 0.328 GiB. 
  Using in-core AOs.

  ==> MemDFJK: Density-Fitted J/K Matrices <==

    J tasked:                   Yes
    K tasked:                   Yes
    wK tasked:                   No
    OpenMP threads:               1
    Memory [MiB]:               336
    Algorithm:                 Core
    Schwarz Cutoff:           1E-12
    Mask sparsity (%):       0.0000
    Fitting Condition:        1E-10

   => Auxiliary Basis Set <=

  Basis Set: (CC-PVDZ AUX)
    Blend: CC-PVDZ-JKFIT
    Number of shells: 60
    Number of basis functions: 182
    Number of Cartesian functions: 211
    Spherical Harmonics?: true
    Max angular momentum: 3

  Cached 100.0% of DFT collocation blocks in 0.038 [GiB].

  Minimum eigenvalue in the overlap matrix is 2.5823054447E-02.
  Reciprocal condition number of the overlap matrix is 8.7205183810E-03.
    Using symmetric orthogonalization.

  ==> Pre-Iterations <==

  SCF Guess: Superposition of Atomic Potentials (doi:10.1021/acs.jctc.8b01089).

  ==> SAP guess <==

   => Molecular Quadrature <=

    Radial Scheme          =       TREUTLER
    Pruning Scheme         =           NONE
    Nuclear Scheme         =       TREUTLER

    Blocking Scheme        =         OCTREE
    BS radius alpha        =              1
    Pruning alpha          =              1
    Radial Points          =             75
    Spherical Points       =            302
    Total Points           =          42026
    Total Blocks           =            375
    Max Points             =            256
    Max Functions          =             32
    Weights Tolerance      =       1.00E-15

   -------------------------------------------------------
    Irrep   Nso     Nmo     Nalpha   Nbeta   Ndocc  Nsocc
   -------------------------------------------------------
     A1        16      16       8       7       7       1
     A2         2       2       0       0       0       0
     B1         7       7       3       3       3       0
     B2         7       7       3       2       2       1
   -------------------------------------------------------
    Total      32      32      14      12      12       2
   -------------------------------------------------------

  ==> Iterations <==

                           Total Energy        Delta E     RMS |[F,P]|

   @DF-UKS iter   1:  -497.26572420966113   -4.97266e+02   4.38621e-02 ADIIS/DIIS
   @DF-UKS iter   2:  -497.23202236990312    3.37018e-02   5.13189e-02 ADIIS/DIIS/DAMP=1%
   @DF-UKS iter   3:  -497.48567310019178   -2.53651e-01   5.78321e-03 ADIIS/DIIS/DAMP=1%
   @DF-UKS iter   4:  -497.52561254105416   -3.99394e-02   2.02343e-03 ADIIS/DIIS/DAMP=1%
   @DF-UKS iter   5:  -497.53016952503515   -4.55698e-03   1.92761e-04 ADIIS/DIIS/DAMP=1%
   @DF-UKS iter   6:  -497.52930271437089    8.66811e-04   2.66776e-05 DIIS/DAMP=1%
   @DF-UKS iter   7:  -497.52945463187370   -1.51918e-04   5.01853e-06 DIIS/DAMP=1%
   @DF-UKS iter   8:  -497.52946387205452   -9.24018e-06   4.29505e-07 DIIS/DAMP=1%
   @DF-UKS iter   9:  -497.52946104197298    2.83008e-06   6.60093e-08 DIIS/DAMP=1%
   @DF-UKS iter  10:  -497.52946115053805   -1.08565e-07   9.76343e-09 DIIS/DAMP=1%
   @DF-UKS iter  11:  -497.52946110680898    4.37291e-08   9.07400e-10 DIIS/DAMP=1%
   @DF-UKS iter  12:  -497.52946111588119   -9.07221e-09   1.45923e-10 DIIS/DAMP=1%
  Energy and wave function converged.


  ==> Post-Iterations <==

   Electrons on quadrature grid:
      Nalpha   =   13.9999999737 ; deviation = -2.626e-08
      Nbeta    =   11.9999999285 ; deviation = -7.149e-08
      Ntotal   =   25.9999999023 ; deviation = -9.775e-08 

   @Spin Contamination Metric:   1.575483820E-03
   @S^2 Expected:                2.000000000E+00
   @S^2 Observed:                2.001575484E+00
   @S   Expected:                1.000000000E+00
   @S   Observed:                1.000000000E+00

    Orbital Energies [Eh]
    ---------------------

    Alpha Occupied:                                                       

       1A1   -88.627483     2A1   -24.462785     3A1    -7.690937  
       4A1    -5.659393     1B2    -5.653892     1B1    -5.638686  
       5A1    -1.183969     6A1    -0.453023     2B2    -0.355645  
       2B1    -0.333652     7A1    -0.216059     3B2     0.065435  
       3B1     0.104765     8A1     0.279695  

    Alpha Virtual:                                                        

       4B2     0.711702     4B1     0.739778     9A1     0.747518  
      10A1     0.830536     1A2     0.863092    11A1     0.867674  
       5B2     0.992446     5B1     1.025690    12A1     1.173617  
       6B2     1.405260     6B1     1.419339    13A1     1.767154  
      14A1     2.321526    15A1     3.714243     2A2     3.714254  
       7B2     3.949133     7B1     3.965749    16A1     4.529488  

    Beta Occupied:                                                        

       1A1   -88.622790     2A1   -24.451007     3A1    -7.686000  
       4A1    -5.654500     1B2    -5.639824     1B1    -5.635927  
       5A1    -1.159313     6A1    -0.432297     2B1    -0.319606  
       2B2    -0.311424     7A1    -0.160807     3B1     0.126060  

    Beta Virtual:                                                         

       3B2     0.201467     8A1     0.384017     4B1     0.753867  
       4B2     0.756858     9A1     0.780953    10A1     0.878249  
       1A2     0.915319    11A1     0.918633     5B1     1.048930  
       5B2     1.053803    12A1     1.186334     6B1     1.431419  
       6B2     1.431530    13A1     1.801421    14A1     2.336011  
       2A2     3.732927    15A1     3.733206     7B2     3.974117  
       7B1     3.975707    16A1     4.545765  

    Final Occupation by Irrep:
             A1    A2    B1    B2 
    DOCC [     7,    0,    3,    2 ]
    SOCC [     1,    0,    0,    1 ]
    NA   [     8,    0,    3,    3 ]
    NB   [     7,    0,    3,    2 ]

  @DF-UKS Final Energy:  -497.52946111588119

   => Energetics <=

    Nuclear Repulsion Energy =             63.5012652804000126
    One-Electron Energy =                -821.1991232879547624
    Two-Electron Energy =                 289.7674182912828087
    DFT Exchange-Correlation Energy =     -29.5990213996092812
    Empirical Dispersion Energy =           0.0000000000000000
    VV10 Nonlocal Energy =                  0.0000000000000000
    Total Energy =                       -497.5294611158811904

  UHF NO Occupations:
  HONO-2 :    7 A1 1.9993634
  HONO-1 :    3 B2 1.0000000
  HONO-0 :    8 A1 1.0000000
  LUNO+0 :    9 A1 0.0006366
  LUNO+1 :    4 B2 0.0000898
  LUNO+2 :   10 A1 0.0000240
  LUNO+3 :    4 B1 0.0000221


Computation Completed


Properties will be evaluated at   0.000000,   0.000000,   0.000000 [a0]

Properties computed using the SCF density matrix


 Multipole Moments:

 ------------------------------------------------------------------------------------
     Multipole            Electronic (a.u.)      Nuclear  (a.u.)        Total (a.u.)
 ------------------------------------------------------------------------------------

 L = 1.  Multiply by 2.5417464519 to convert [e a0] to [Debye]
 Dipole X            :          0.0000000            0.0000000            0.0000000
 Dipole Y            :          0.0000000            0.0000000            0.0000000
 Dipole Z            :          1.9111699           -0.7218847            1.1892853
 Magnitude           :                                                    1.1892853

 ------------------------------------------------------------------------------------

*** tstop() called on Joses-MacBook-Pro-2.local at Thu Jul 17 10:55:07 2025
Module time:
	user time   =       4.86 seconds =       0.08 minutes
	system time =       4.02 seconds =       0.07 minutes
	total time  =          1 seconds =       0.02 minutes
Total time:
	user time   =       4.86 seconds =       0.08 minutes
	system time =       4.02 seconds =       0.07 minutes
	total time  =          1 seconds =       0.02 minutes

*** tstart() called on Joses-MacBook-Pro-2.local
*** at Thu Jul 17 10:55:07 2025


         ------------------------------------------------------------
                                   SCF GRAD                          
                          Rob Parrish, Justin Turney,                
                       Andy Simmonett, and Alex Sokolov              
         ------------------------------------------------------------

  ==> Geometry <==

    Molecular point group: c2v
    Full point group: C_inf_v

    Geometry (in Angstrom), charge = -1, multiplicity = 3:

       Center              X                  Y                   Z               Mass       
    ------------   -----------------  -----------------  -----------------  -----------------
         F            0.000000000000     0.000000000000     0.752719803146    18.998403162730
         S            0.000000000000     0.000000000000    -0.447280196854    31.972071174400

  Nuclear repulsion =   63.501265280400013

  ==> Basis Set <==

  Basis Set: CC-PVDZ
    Blend: CC-PVDZ
    Number of shells: 14
    Number of basis functions: 32
    Number of Cartesian functions: 34
    Spherical Harmonics?: true
    Max angular momentum: 2

  ==> DFJKGrad: Density-Fitted SCF Gradients <==

    Gradient:                    1
    J tasked:                  Yes
    K tasked:                  Yes
    wK tasked:                  No
    OpenMP threads:              1
    Integrals threads:           1
    Memory [MiB]:              375
    Schwarz Cutoff:          1E-12
    Fitting Condition:       1E-10

   => Auxiliary Basis Set <=

  Basis Set: (CC-PVDZ AUX)
    Blend: CC-PVDZ-JKFIT
    Number of shells: 60
    Number of basis functions: 182
    Number of Cartesian functions: 211
    Spherical Harmonics?: true
    Max angular momentum: 3

  ==> DFT Potential <==

   => LibXC <=

    Version 6.2.2
    S. Lehtola, C. Steigemann, M. J.T. Oliveira, and M. A.L. Marques.,  SoftwareX 7, 1–5 (2018) (10.1016/j.softx.2017.11.002)

   => Composite Functional: B3LYP <= 

    B3LYP Hyb-GGA Exchange-Correlation Functional

    P. J. Stephens, F. J. Devlin, C. F. Chabalowski, and M. J. Frisch.,  J. Phys. Chem. 98, 11623 (1994) (10.1021/j100096a001)

    Deriv               =              1
    GGA                 =           TRUE
    Meta                =          FALSE

    Exchange Hybrid     =           TRUE
    MP2 Hybrid          =          FALSE

   => Exchange Functionals <=

    0.0800   Slater exchange
    0.7200         Becke 88

   => Exact (HF) Exchange <=

    0.2000               HF 

   => Correlation Functionals <=

    0.1900   Vosko, Wilk & Nusair (VWN5_RPA)
    0.8100   Lee, Yang & Parr

   => LibXC Density Thresholds  <==

    XC_HYB_GGA_XC_B3LYP:  1.00E-15 

   => Molecular Quadrature <=

    Radial Scheme          =       TREUTLER
    Pruning Scheme         =           NONE
    Nuclear Scheme         =       TREUTLER

    Blocking Scheme        =         OCTREE
    BS radius alpha        =              1
    Pruning alpha          =              1
    Radial Points          =             75
    Spherical Points       =            302
    Total Points           =          42026
    Total Blocks           =            375
    Max Points             =            256
    Max Functions          =             32
    Weights Tolerance      =       1.00E-15


  -Total Gradient:
     Atom            X                  Y                   Z
    ------   -----------------  -----------------  -----------------
       1        0.000000000000    -0.000000000000    -1.057265737434
       2       -0.000000000000     0.000000000000     1.057279498566


*** tstop() called on Joses-MacBook-Pro-2.local at Thu Jul 17 10:55:07 2025
Module time:
	user time   =       0.70 seconds =       0.01 minutes
	system time =       1.72 seconds =       0.03 minutes
	total time  =          0 seconds =       0.00 minutes
Total time:
	user time   =       5.56 seconds =       0.09 minutes
	system time =       5.74 seconds =       0.10 minutes
	total time  =          1 seconds =       0.02 minutes

    			-----------------------------------------

    			 OPTKING 3.0: for geometry optimizations 

    			     By R.A. King, Bethel University     

    			        with contributions from          

    			    A.V. Copan, J. Cayton, A. Heide      

    			-----------------------------------------

    
	                            ===> Fragment 1 <== 

	 Z (Atomic Numbers)          Masses                          Geom                  
	       9.000000            18.998403          0.00000000  0.00000000  1.42243428   
	      16.000000            31.972071          0.00000000  0.00000000 -0.84523707   

	 - Coordinate -           - BOHR/RAD -       - ANG/DEG -
	 R(1,2)           =         2.267671           1.200000


	        --- Internal Coordinate Step in ANG or DEG, aJ/ANG or AJ/DEG ---
	-------------------------------------------------------------------------------
	           Coordinate      Previous         Force          Change          New 
	           ----------      --------        ------          ------        ------
	               R(1,2)       1.20000        8.71058        0.12617       1.32617
	-------------------------------------------------------------------------------

	                                 ==> Convergence Check <==                                  
    
	Measures of convergence in internal coordinates in au.
    
	Criteria marked as inactive (o), active & met (*), and active & unmet ( ).

	----------------------------------------------------------------------------------------------
	   Step    Total Energy     Delta E     Max Force     RMS Force      Max Disp      RMS Disp   
	----------------------------------------------------------------------------------------------
	  Convergence Criteria     1.00e-06 *    3.00e-04 *             o    1.20e-03 *             o
	----------------------------------------------------------------------------------------------
	     1    -497.52946112   -4.98e+02      1.06e+00      1.06e+00 o    2.38e-01      2.38e-01 o  ~
	----------------------------------------------------------------------------------------------

Next Geometry in Ang 
	Fragment 1 (Ang)

	    F   0.0000000000   0.0000000000   0.8158057494
	    S   0.0000000000   0.0000000000  -0.5103661431


    Structure for next step:
    Molecular point group: c2v
    Full point group: C_inf_v

    Geometry (in Angstrom), charge = -1, multiplicity = 3:

    F            0.000000000000     0.000000000000     0.831863204939
    S            0.000000000000     0.000000000000    -0.494308687650


Scratch directory: /tmp/
gradient() will perform analytic gradient computation.
   => Libint2 <=

    Primary   basis highest AM E, G, H:  6, 6, 3
    Auxiliary basis highest AM E, G, H:  7, 7, 4
    Onebody   basis highest AM E, G, H:  -, -, -
    Solid Harmonics ordering:            Gaussian

*** tstart() called on Joses-MacBook-Pro-2.local
*** at Thu Jul 17 10:55:07 2025

   => Loading Basis Set <=

    Name: CC-PVDZ
    Role: ORBITAL
    Keyword: BASIS
    atoms 1 entry F          line   228 file /Users/joseantoniorodriguesromero/anaconda3/share/psi4/basis/cc-pvdz.gbs 
    atoms 2 entry S          line   598 file /Users/joseantoniorodriguesromero/anaconda3/share/psi4/basis/cc-pvdz.gbs 


         ---------------------------------------------------------
                                   SCF
               by Justin Turney, Rob Parrish, Andy Simmonett
                          and Daniel G. A. Smith
                              UKS Reference
                        1 Threads,    500 MiB Core
         ---------------------------------------------------------

  ==> Geometry <==

    Molecular point group: c2v
    Full point group: C_inf_v

    Geometry (in Angstrom), charge = -1, multiplicity = 3:

       Center              X                  Y                   Z               Mass       
    ------------   -----------------  -----------------  -----------------  -----------------
         F            0.000000000000     0.000000000000     0.831863204939    18.998403162730
         S            0.000000000000     0.000000000000    -0.494308687650    31.972071174400

  Running in c2v symmetry.

  Rotational constants: A = ************  B =      0.80432  C =      0.80432 [cm^-1]
  Rotational constants: A = ************  B =  24112.84008  C =  24112.84008 [MHz]
  Nuclear repulsion =   57.459759750866503

  Charge       = -1
  Multiplicity = 3
  Electrons    = 26
  Nalpha       = 14
  Nbeta        = 12

  ==> Algorithm <==

  SCF Algorithm Type is DF.
  DIIS enabled.
  MOM disabled.
  Fractional occupation disabled.
  Guess Type is READ.
  Energy threshold   = 1.00e-08
  Density threshold  = 1.00e-08
  Integral threshold = 1.00e-12

  ==> Primary Basis <==

  Basis Set: CC-PVDZ
    Blend: CC-PVDZ
    Number of shells: 14
    Number of basis functions: 32
    Number of Cartesian functions: 34
    Spherical Harmonics?: true
    Max angular momentum: 2

  ==> DFT Potential <==

   => LibXC <=

    Version 6.2.2
    S. Lehtola, C. Steigemann, M. J.T. Oliveira, and M. A.L. Marques.,  SoftwareX 7, 1–5 (2018) (10.1016/j.softx.2017.11.002)

   => Composite Functional: B3LYP <= 

    B3LYP Hyb-GGA Exchange-Correlation Functional

    P. J. Stephens, F. J. Devlin, C. F. Chabalowski, and M. J. Frisch.,  J. Phys. Chem. 98, 11623 (1994) (10.1021/j100096a001)

    Deriv               =              1
    GGA                 =           TRUE
    Meta                =          FALSE

    Exchange Hybrid     =           TRUE
    MP2 Hybrid          =          FALSE

   => Exchange Functionals <=

    0.0800   Slater exchange
    0.7200         Becke 88

   => Exact (HF) Exchange <=

    0.2000               HF 

   => Correlation Functionals <=

    0.1900   Vosko, Wilk & Nusair (VWN5_RPA)
    0.8100   Lee, Yang & Parr

   => LibXC Density Thresholds  <==

    XC_HYB_GGA_XC_B3LYP:  1.00E-15 

   => Molecular Quadrature <=

    Radial Scheme          =       TREUTLER
    Pruning Scheme         =           NONE
    Nuclear Scheme         =       TREUTLER

    Blocking Scheme        =         OCTREE
    BS radius alpha        =              1
    Pruning alpha          =              1
    Radial Points          =             75
    Spherical Points       =            302
    Total Points           =          42057
    Total Blocks           =            375
    Max Points             =            256
    Max Functions          =             32
    Weights Tolerance      =       1.00E-15

   => Loading Basis Set <=

    Name: (CC-PVDZ AUX)
    Role: JKFIT
    Keyword: DF_BASIS_SCF
    atoms 1 entry F          line   271 file /Users/joseantoniorodriguesromero/anaconda3/share/psi4/basis/cc-pvdz-jkfit.gbs 
    atoms 2 entry S          line   593 file /Users/joseantoniorodriguesromero/anaconda3/share/psi4/basis/cc-pvdz-jkfit.gbs 

   => Loading Basis Set <=

    Name: CC-PVDZ
    Role: ORBITAL
    Keyword: BASIS
    atoms 1 entry F          line   228 file /Users/joseantoniorodriguesromero/anaconda3/share/psi4/basis/cc-pvdz.gbs 
    atoms 2 entry S          line   598 file /Users/joseantoniorodriguesromero/anaconda3/share/psi4/basis/cc-pvdz.gbs 

  Reading orbitals from file /tmp/triplet_FS.default.72866.180.npy, no projection.

  ==> Integral Setup <==

  DFHelper Memory: AOs need 0.002 GiB; user supplied 0.328 GiB. 
  Using in-core AOs.

  ==> MemDFJK: Density-Fitted J/K Matrices <==

    J tasked:                   Yes
    K tasked:                   Yes
    wK tasked:                   No
    OpenMP threads:               1
    Memory [MiB]:               336
    Algorithm:                 Core
    Schwarz Cutoff:           1E-12
    Mask sparsity (%):       0.0000
    Fitting Condition:        1E-10

   => Auxiliary Basis Set <=

  Basis Set: (CC-PVDZ AUX)
    Blend: CC-PVDZ-JKFIT
    Number of shells: 60
    Number of basis functions: 182
    Number of Cartesian functions: 211
    Spherical Harmonics?: true
    Max angular momentum: 3

  Cached 100.0% of DFT collocation blocks in 0.038 [GiB].

  Minimum eigenvalue in the overlap matrix is 3.4463203249E-02.
  Reciprocal condition number of the overlap matrix is 1.1994503626E-02.
    Using symmetric orthogonalization.

  ==> Pre-Iterations <==

  SCF Guess: Orbitals guess was supplied from a previous computation.

   -------------------------------------------------------
    Irrep   Nso     Nmo     Nalpha   Nbeta   Ndocc  Nsocc
   -------------------------------------------------------
     A1        16      16       8       7       7       1
     A2         2       2       0       0       0       0
     B1         7       7       3       3       3       0
     B2         7       7       3       2       2       1
   -------------------------------------------------------
    Total      32      32      14      12      12       2
   -------------------------------------------------------

  ==> Iterations <==

                           Total Energy        Delta E     RMS |[F,P]|

   @DF-UKS iter   0:  -497.64819861830324   -4.97648e+02   5.19589e-02 
   @DF-UKS iter   1:  -497.71587586169488   -6.76772e-02   3.67113e-03 ADIIS/DIIS
   @DF-UKS iter   2:  -497.71673732652204   -8.61465e-04   3.65105e-03 ADIIS/DIIS/DAMP=1%
   @DF-UKS iter   3:  -497.72041994658599   -3.68262e-03   7.91001e-04 ADIIS/DIIS/DAMP=1%
   @DF-UKS iter   4:  -497.71965766285570    7.62284e-04   1.49591e-04 ADIIS/DIIS/DAMP=1%
   @DF-UKS iter   5:  -497.71894842634032    7.09237e-04   2.61870e-05 DIIS/DAMP=1%
   @DF-UKS iter   6:  -497.71905967179907   -1.11245e-04   3.35484e-06 DIIS/DAMP=1%
   @DF-UKS iter   7:  -497.71904191408942    1.77577e-05   5.17103e-07 DIIS/DAMP=1%
   @DF-UKS iter   8:  -497.71904180615354    1.07936e-07   5.98335e-08 DIIS/DAMP=1%
   @DF-UKS iter   9:  -497.71904190325944   -9.71059e-08   1.13021e-08 DIIS/DAMP=1%
   @DF-UKS iter  10:  -497.71904189292337    1.03361e-08   1.45657e-09 DIIS/DAMP=1%
   @DF-UKS iter  11:  -497.71904189769151   -4.76814e-09   1.96825e-10 DIIS/DAMP=1%
  Energy and wave function converged.


  ==> Post-Iterations <==

   Electrons on quadrature grid:
      Nalpha   =   14.0000034674 ; deviation = 3.467e-06
      Nbeta    =   12.0000029801 ; deviation = 2.980e-06
      Ntotal   =   26.0000064475 ; deviation = 6.447e-06 

   @Spin Contamination Metric:   1.761741285E-03
   @S^2 Expected:                2.000000000E+00
   @S^2 Observed:                2.001761741E+00
   @S   Expected:                1.000000000E+00
   @S   Observed:                1.000000000E+00

    Orbital Energies [Eh]
    ---------------------

    Alpha Occupied:                                                       

       1A1   -88.618628     2A1   -24.434959     3A1    -7.674164  
       4A1    -5.641368     1B2    -5.639938     1B1    -5.624284  
       5A1    -1.077734     6A1    -0.427238     2B2    -0.282223  
       2B1    -0.260945     7A1    -0.210400     3B2     0.048711  
       3B1     0.087917     8A1     0.260731  

    Alpha Virtual:                                                        

       4B2     0.719105     9A1     0.742732     4B1     0.747366  
      10A1     0.807712     1A2     0.871598    11A1     0.873148  
       5B2     0.946207     5B1     0.979389    12A1     1.166616  
       6B2     1.445747     6B1     1.459650    13A1     1.578078  
      14A1     2.367008    15A1     3.763970     2A2     3.764028  
       7B2     3.915084     7B1     3.930592    16A1     4.454354  

    Beta Occupied:                                                        

       1A1   -88.613044     2A1   -24.422213     3A1    -7.668253  
       4A1    -5.634627     1B2    -5.624735     1B1    -5.620833  
       5A1    -1.048817     6A1    -0.398086     2B1    -0.246161  
       2B2    -0.236525     7A1    -0.156916     3B1     0.110192  

    Beta Virtual:                                                         

       3B2     0.185711     8A1     0.370274     4B1     0.762158  
       4B2     0.765673     9A1     0.774807    10A1     0.849749  
       1A2     0.925471    11A1     0.928899     5B1     1.004448  
       5B2     1.009670    12A1     1.187593     6B1     1.471195  
       6B2     1.471707    13A1     1.614436    14A1     2.382672  
       2A2     3.783524    15A1     3.783747     7B2     3.941563  
       7B1     3.942834    16A1     4.473539  

    Final Occupation by Irrep:
             A1    A2    B1    B2 
    DOCC [     7,    0,    3,    2 ]
    SOCC [     1,    0,    0,    1 ]
    NA   [     8,    0,    3,    3 ]
    NB   [     7,    0,    3,    2 ]

  @DF-UKS Final Energy:  -497.71904189769151

   => Energetics <=

    Nuclear Repulsion Energy =             57.4597597508665032
    One-Electron Energy =                -810.2676098978082564
    Two-Electron Energy =                 284.6078980702823173
    DFT Exchange-Correlation Energy =     -29.5190898210320682
    Empirical Dispersion Energy =           0.0000000000000000
    VV10 Nonlocal Energy =                  0.0000000000000000
    Total Energy =                       -497.7190418976915112

  UHF NO Occupations:
  HONO-2 :    7 A1 1.9993780
  HONO-1 :    3 B2 1.0000000
  HONO-0 :    8 A1 1.0000000
  LUNO+0 :    9 A1 0.0006220
  LUNO+1 :    4 B2 0.0001369
  LUNO+2 :   10 A1 0.0000575
  LUNO+3 :    4 B1 0.0000449


Computation Completed


Properties will be evaluated at   0.000000,   0.000000,   0.000000 [a0]

Properties computed using the SCF density matrix


 Multipole Moments:

 ------------------------------------------------------------------------------------
     Multipole            Electronic (a.u.)      Nuclear  (a.u.)        Total (a.u.)
 ------------------------------------------------------------------------------------

 L = 1.  Multiply by 2.5417464519 to convert [e a0] to [Debye]
 Dipole X            :          0.0000000            0.0000000            0.0000000
 Dipole Y            :          0.0000000            0.0000000            0.0000000
 Dipole Z            :          1.7789933           -0.7977860            0.9812074
 Magnitude           :                                                    0.9812074

 ------------------------------------------------------------------------------------

*** tstop() called on Joses-MacBook-Pro-2.local at Thu Jul 17 10:55:08 2025
Module time:
	user time   =       4.39 seconds =       0.07 minutes
	system time =       3.47 seconds =       0.06 minutes
	total time  =          1 seconds =       0.02 minutes
Total time:
	user time   =       9.99 seconds =       0.17 minutes
	system time =       9.49 seconds =       0.16 minutes
	total time  =          2 seconds =       0.03 minutes

*** tstart() called on Joses-MacBook-Pro-2.local
*** at Thu Jul 17 10:55:08 2025


         ------------------------------------------------------------
                                   SCF GRAD                          
                          Rob Parrish, Justin Turney,                
                       Andy Simmonett, and Alex Sokolov              
         ------------------------------------------------------------

  ==> Geometry <==

    Molecular point group: c2v
    Full point group: C_inf_v

    Geometry (in Angstrom), charge = -1, multiplicity = 3:

       Center              X                  Y                   Z               Mass       
    ------------   -----------------  -----------------  -----------------  -----------------
         F            0.000000000000     0.000000000000     0.831863204939    18.998403162730
         S            0.000000000000     0.000000000000    -0.494308687650    31.972071174400

  Nuclear repulsion =   57.459759750866503

  ==> Basis Set <==

  Basis Set: CC-PVDZ
    Blend: CC-PVDZ
    Number of shells: 14
    Number of basis functions: 32
    Number of Cartesian functions: 34
    Spherical Harmonics?: true
    Max angular momentum: 2

  ==> DFJKGrad: Density-Fitted SCF Gradients <==

    Gradient:                    1
    J tasked:                  Yes
    K tasked:                  Yes
    wK tasked:                  No
    OpenMP threads:              1
    Integrals threads:           1
    Memory [MiB]:              375
    Schwarz Cutoff:          1E-12
    Fitting Condition:       1E-10

   => Auxiliary Basis Set <=

  Basis Set: (CC-PVDZ AUX)
    Blend: CC-PVDZ-JKFIT
    Number of shells: 60
    Number of basis functions: 182
    Number of Cartesian functions: 211
    Spherical Harmonics?: true
    Max angular momentum: 3

  ==> DFT Potential <==

   => LibXC <=

    Version 6.2.2
    S. Lehtola, C. Steigemann, M. J.T. Oliveira, and M. A.L. Marques.,  SoftwareX 7, 1–5 (2018) (10.1016/j.softx.2017.11.002)

   => Composite Functional: B3LYP <= 

    B3LYP Hyb-GGA Exchange-Correlation Functional

    P. J. Stephens, F. J. Devlin, C. F. Chabalowski, and M. J. Frisch.,  J. Phys. Chem. 98, 11623 (1994) (10.1021/j100096a001)

    Deriv               =              1
    GGA                 =           TRUE
    Meta                =          FALSE

    Exchange Hybrid     =           TRUE
    MP2 Hybrid          =          FALSE

   => Exchange Functionals <=

    0.0800   Slater exchange
    0.7200         Becke 88

   => Exact (HF) Exchange <=

    0.2000               HF 

   => Correlation Functionals <=

    0.1900   Vosko, Wilk & Nusair (VWN5_RPA)
    0.8100   Lee, Yang & Parr

   => LibXC Density Thresholds  <==

    XC_HYB_GGA_XC_B3LYP:  1.00E-15 

   => Molecular Quadrature <=

    Radial Scheme          =       TREUTLER
    Pruning Scheme         =           NONE
    Nuclear Scheme         =       TREUTLER

    Blocking Scheme        =         OCTREE
    BS radius alpha        =              1
    Pruning alpha          =              1
    Radial Points          =             75
    Spherical Points       =            302
    Total Points           =          42057
    Total Blocks           =            375
    Max Points             =            256
    Max Functions          =             32
    Weights Tolerance      =       1.00E-15


  -Total Gradient:
     Atom            X                  Y                   Z
    ------   -----------------  -----------------  -----------------
       1        0.000000000000     0.000000000000    -0.587594765787
       2        0.000000000000     0.000000000000     0.587531277979


*** tstop() called on Joses-MacBook-Pro-2.local at Thu Jul 17 10:55:08 2025
Module time:
	user time   =       0.68 seconds =       0.01 minutes
	system time =       1.48 seconds =       0.02 minutes
	total time  =          0 seconds =       0.00 minutes
Total time:
	user time   =      10.67 seconds =       0.18 minutes
	system time =      10.97 seconds =       0.18 minutes
	total time  =          2 seconds =       0.03 minutes

    			-----------------------------------------

    			 OPTKING 3.0: for geometry optimizations 

    			     By R.A. King, Bethel University     

    			        with contributions from          

    			    A.V. Copan, J. Cayton, A. Heide      

    			-----------------------------------------

    
	                            ===> Fragment 1 <== 

	 Z (Atomic Numbers)          Masses                          Geom                  
	       9.000000            18.998403          0.00000000  0.00000000  1.57199363   
	      16.000000            31.972071          0.00000000  0.00000000 -0.93410804   

	 - Coordinate -           - BOHR/RAD -       - ANG/DEG -
	 R(1,2)           =         2.506102           1.326172


	        --- Internal Coordinate Step in ANG or DEG, aJ/ANG or AJ/DEG ---
	-------------------------------------------------------------------------------
	           Coordinate      Previous         Force          Change          New 
	           ----------      --------        ------          ------        ------
	               R(1,2)       1.32617        4.84077        0.13850       1.46468
	-------------------------------------------------------------------------------

	                                 ==> Convergence Check <==                                  
    
	Measures of convergence in internal coordinates in au.
    
	Criteria marked as inactive (o), active & met (*), and active & unmet ( ).

	----------------------------------------------------------------------------------------------
	   Step    Total Energy     Delta E     Max Force     RMS Force      Max Disp      RMS Disp   
	----------------------------------------------------------------------------------------------
	  Convergence Criteria     1.00e-06 *    3.00e-04 *             o    1.20e-03 *             o
	----------------------------------------------------------------------------------------------
	     2    -497.71904190   -1.90e-01      5.88e-01      5.88e-01 o    2.62e-01      2.62e-01 o  ~
	----------------------------------------------------------------------------------------------

Next Geometry in Ang 
	Fragment 1 (Ang)

	    F   0.0000000000   0.0000000000   0.9011147974
	    S   0.0000000000   0.0000000000  -0.5635602801


    Structure for next step:
    Molecular point group: c2v
    Full point group: C_inf_v

    Geometry (in Angstrom), charge = -1, multiplicity = 3:

    F            0.000000000000     0.000000000000     0.918741613327
    S            0.000000000000     0.000000000000    -0.545933464152


Scratch directory: /tmp/
gradient() will perform analytic gradient computation.
   => Libint2 <=

    Primary   basis highest AM E, G, H:  6, 6, 3
    Auxiliary basis highest AM E, G, H:  7, 7, 4
    Onebody   basis highest AM E, G, H:  -, -, -
    Solid Harmonics ordering:            Gaussian

*** tstart() called on Joses-MacBook-Pro-2.local
*** at Thu Jul 17 10:55:08 2025

   => Loading Basis Set <=

    Name: CC-PVDZ
    Role: ORBITAL
    Keyword: BASIS
    atoms 1 entry F          line   228 file /Users/joseantoniorodriguesromero/anaconda3/share/psi4/basis/cc-pvdz.gbs 
    atoms 2 entry S          line   598 file /Users/joseantoniorodriguesromero/anaconda3/share/psi4/basis/cc-pvdz.gbs 


         ---------------------------------------------------------
                                   SCF
               by Justin Turney, Rob Parrish, Andy Simmonett
                          and Daniel G. A. Smith
                              UKS Reference
                        1 Threads,    500 MiB Core
         ---------------------------------------------------------

  ==> Geometry <==

    Molecular point group: c2v
    Full point group: C_inf_v

    Geometry (in Angstrom), charge = -1, multiplicity = 3:

       Center              X                  Y                   Z               Mass       
    ------------   -----------------  -----------------  -----------------  -----------------
         F            0.000000000000     0.000000000000     0.918741613327    18.998403162730
         S            0.000000000000     0.000000000000    -0.545933464152    31.972071174400

  Running in c2v symmetry.

  Rotational constants: A = ************  B =      0.65939  C =      0.65939 [cm^-1]
  Rotational constants: A = ************  B =  19768.12235  C =  19768.12235 [MHz]
  Nuclear repulsion =   52.026227187283631

  Charge       = -1
  Multiplicity = 3
  Electrons    = 26
  Nalpha       = 14
  Nbeta        = 12

  ==> Algorithm <==

  SCF Algorithm Type is DF.
  DIIS enabled.
  MOM disabled.
  Fractional occupation disabled.
  Guess Type is READ.
  Energy threshold   = 1.00e-08
  Density threshold  = 1.00e-08
  Integral threshold = 1.00e-12

  ==> Primary Basis <==

  Basis Set: CC-PVDZ
    Blend: CC-PVDZ
    Number of shells: 14
    Number of basis functions: 32
    Number of Cartesian functions: 34
    Spherical Harmonics?: true
    Max angular momentum: 2

  ==> DFT Potential <==

   => LibXC <=

    Version 6.2.2
    S. Lehtola, C. Steigemann, M. J.T. Oliveira, and M. A.L. Marques.,  SoftwareX 7, 1–5 (2018) (10.1016/j.softx.2017.11.002)

   => Composite Functional: B3LYP <= 

    B3LYP Hyb-GGA Exchange-Correlation Functional

    P. J. Stephens, F. J. Devlin, C. F. Chabalowski, and M. J. Frisch.,  J. Phys. Chem. 98, 11623 (1994) (10.1021/j100096a001)

    Deriv               =              1
    GGA                 =           TRUE
    Meta                =          FALSE

    Exchange Hybrid     =           TRUE
    MP2 Hybrid          =          FALSE

   => Exchange Functionals <=

    0.0800   Slater exchange
    0.7200         Becke 88

   => Exact (HF) Exchange <=

    0.2000               HF 

   => Correlation Functionals <=

    0.1900   Vosko, Wilk & Nusair (VWN5_RPA)
    0.8100   Lee, Yang & Parr

   => LibXC Density Thresholds  <==

    XC_HYB_GGA_XC_B3LYP:  1.00E-15 

   => Molecular Quadrature <=

    Radial Scheme          =       TREUTLER
    Pruning Scheme         =           NONE
    Nuclear Scheme         =       TREUTLER

    Blocking Scheme        =         OCTREE
    BS radius alpha        =              1
    Pruning alpha          =              1
    Radial Points          =             75
    Spherical Points       =            302
    Total Points           =          42091
    Total Blocks           =            378
    Max Points             =            254
    Max Functions          =             32
    Weights Tolerance      =       1.00E-15

   => Loading Basis Set <=

    Name: (CC-PVDZ AUX)
    Role: JKFIT
    Keyword: DF_BASIS_SCF
    atoms 1 entry F          line   271 file /Users/joseantoniorodriguesromero/anaconda3/share/psi4/basis/cc-pvdz-jkfit.gbs 
    atoms 2 entry S          line   593 file /Users/joseantoniorodriguesromero/anaconda3/share/psi4/basis/cc-pvdz-jkfit.gbs 

   => Loading Basis Set <=

    Name: CC-PVDZ
    Role: ORBITAL
    Keyword: BASIS
    atoms 1 entry F          line   228 file /Users/joseantoniorodriguesromero/anaconda3/share/psi4/basis/cc-pvdz.gbs 
    atoms 2 entry S          line   598 file /Users/joseantoniorodriguesromero/anaconda3/share/psi4/basis/cc-pvdz.gbs 

  Reading orbitals from file /tmp/triplet_FS.default.72866.180.npy, no projection.

  ==> Integral Setup <==

  DFHelper Memory: AOs need 0.002 GiB; user supplied 0.328 GiB. 
  Using in-core AOs.

  ==> MemDFJK: Density-Fitted J/K Matrices <==

    J tasked:                   Yes
    K tasked:                   Yes
    wK tasked:                   No
    OpenMP threads:               1
    Memory [MiB]:               336
    Algorithm:                 Core
    Schwarz Cutoff:           1E-12
    Mask sparsity (%):       0.0000
    Fitting Condition:        1E-10

   => Auxiliary Basis Set <=

  Basis Set: (CC-PVDZ AUX)
    Blend: CC-PVDZ-JKFIT
    Number of shells: 60
    Number of basis functions: 182
    Number of Cartesian functions: 211
    Spherical Harmonics?: true
    Max angular momentum: 3

  Cached 100.0% of DFT collocation blocks in 0.038 [GiB].

  Minimum eigenvalue in the overlap matrix is 4.3895740533E-02.
  Reciprocal condition number of the overlap matrix is 1.5903165847E-02.
    Using symmetric orthogonalization.

  ==> Pre-Iterations <==

  SCF Guess: Orbitals guess was supplied from a previous computation.

   -------------------------------------------------------
    Irrep   Nso     Nmo     Nalpha   Nbeta   Ndocc  Nsocc
   -------------------------------------------------------
     A1        16      16       8       7       7       1
     A2         2       2       0       0       0       0
     B1         7       7       3       3       3       0
     B2         7       7       3       2       2       1
   -------------------------------------------------------
    Total      32      32      14      12      12       2
   -------------------------------------------------------

  ==> Iterations <==

                           Total Energy        Delta E     RMS |[F,P]|

   @DF-UKS iter   0:  -497.76172199173999   -4.97762e+02   4.52947e-02 
   @DF-UKS iter   1:  -497.83200626300868   -7.02843e-02   4.33698e-03 ADIIS/DIIS
   @DF-UKS iter   2:  -497.82974811845213    2.25814e-03   6.77572e-03 ADIIS/DIIS/DAMP=1%
   @DF-UKS iter   3:  -497.83510118766611   -5.35307e-03   6.82365e-04 ADIIS/DIIS/DAMP=1%
   @DF-UKS iter   4:  -497.83671475997266   -1.61357e-03   1.59971e-04 ADIIS/DIIS/DAMP=1%
   @DF-UKS iter   5:  -497.83581704796666    8.97712e-04   3.47184e-05 DIIS/DAMP=1%
   @DF-UKS iter   6:  -497.83597694189518   -1.59894e-04   5.39818e-06 DIIS/DAMP=1%
   @DF-UKS iter   7:  -497.83594955196668    2.73899e-05   9.45761e-07 DIIS/DAMP=1%
   @DF-UKS iter   8:  -497.83595085752904   -1.30556e-06   1.87558e-07 DIIS/DAMP=1%
   @DF-UKS iter   9:  -497.83595075185815    1.05671e-07   1.64658e-08 DIIS/DAMP=1%
   @DF-UKS iter  10:  -497.83595083694951   -8.50914e-08   3.71237e-09 DIIS/DAMP=1%
   @DF-UKS iter  11:  -497.83595082676339    1.01861e-08   1.99392e-10 DIIS/DAMP=1%
   @DF-UKS iter  12:  -497.83595082752362   -7.60224e-10   3.64164e-11 DIIS/DAMP=1%
  Energy and wave function converged.


  ==> Post-Iterations <==

   Electrons on quadrature grid:
      Nalpha   =   14.0000041397 ; deviation = 4.140e-06
      Nbeta    =   12.0000037567 ; deviation = 3.757e-06
      Ntotal   =   26.0000078964 ; deviation = 7.896e-06 

   @Spin Contamination Metric:   2.116634624E-03
   @S^2 Expected:                2.000000000E+00
   @S^2 Observed:                2.002116635E+00
   @S   Expected:                1.000000000E+00
   @S   Observed:                1.000000000E+00

    Orbital Energies [Eh]
    ---------------------

    Alpha Occupied:                                                       

       1A1   -88.606899     2A1   -24.401155     3A1    -7.660893  
       1B2    -5.628090     4A1    -5.627223     1B1    -5.612204  
       5A1    -0.979323     6A1    -0.406535     2B2    -0.215513  
       7A1    -0.198002     2B1    -0.195076     3B2     0.033558  
       3B1     0.072466     8A1     0.228504  

    Alpha Virtual:                                                        

       4B2     0.726103     9A1     0.735211     4B1     0.754609  
      10A1     0.774997     1A2     0.875950    11A1     0.876154  
       5B2     0.909316     5B1     0.942298    12A1     1.138708  
       6B2     1.477953     6B1     1.491683    13A1     1.508693  
      14A1     2.397175    15A1     3.814254     2A2     3.814349  
       7B2     3.893742     7B1     3.908006    16A1     4.302139  

    Beta Occupied:                                                        

       1A1   -88.600254     2A1   -24.386892     3A1    -7.653835  
       4A1    -5.617858     1B2    -5.611903     1B1    -5.607962  
       5A1    -0.945935     6A1    -0.363738     2B1    -0.179559  
       2B2    -0.168588     7A1    -0.145616     3B1     0.095416  

    Beta Virtual:                                                         

       3B2     0.170577     8A1     0.345138     9A1     0.765433  
       4B1     0.770464     4B2     0.774465    10A1     0.812974  
       1A2     0.930394    11A1     0.933904     5B1     0.969755  
       5B2     0.975217    12A1     1.176648     6B1     1.503051  
       6B2     1.504108    13A1     1.540700    14A1     2.416597  
       2A2     3.834733    15A1     3.834930     7B2     3.924056  
       7B1     3.924947    16A1     4.326725  

    Final Occupation by Irrep:
             A1    A2    B1    B2 
    DOCC [     7,    0,    3,    2 ]
    SOCC [     1,    0,    0,    1 ]
    NA   [     8,    0,    3,    3 ]
    NB   [     7,    0,    3,    2 ]

  @DF-UKS Final Energy:  -497.83595082752362

   => Energetics <=

    Nuclear Repulsion Energy =             52.0262271872836308
    One-Electron Energy =                -800.3408994885252241
    Two-Electron Energy =                 279.9450633056673610
    DFT Exchange-Correlation Energy =     -29.4663418319493999
    Empirical Dispersion Energy =           0.0000000000000000
    VV10 Nonlocal Energy =                  0.0000000000000000
    Total Energy =                       -497.8359508275236180

  UHF NO Occupations:
  HONO-2 :    7 A1 1.9993860
  HONO-1 :    3 B2 1.0000000
  HONO-0 :    8 A1 1.0000000
  LUNO+0 :    9 A1 0.0006140
  LUNO+1 :    4 B2 0.0002019
  LUNO+2 :   10 A1 0.0001320
  LUNO+3 :    4 B1 0.0000851


Computation Completed


Properties will be evaluated at   0.000000,   0.000000,   0.000000 [a0]

Properties computed using the SCF density matrix


 Multipole Moments:

 ------------------------------------------------------------------------------------
     Multipole            Electronic (a.u.)      Nuclear  (a.u.)        Total (a.u.)
 ------------------------------------------------------------------------------------

 L = 1.  Multiply by 2.5417464519 to convert [e a0] to [Debye]
 Dipole X            :          0.0000000            0.0000000            0.0000000
 Dipole Y            :          0.0000000            0.0000000            0.0000000
 Dipole Z            :          1.6022574           -0.8811054            0.7211520
 Magnitude           :                                                    0.7211520

 ------------------------------------------------------------------------------------

*** tstop() called on Joses-MacBook-Pro-2.local at Thu Jul 17 10:55:09 2025
Module time:
	user time   =       4.64 seconds =       0.08 minutes
	system time =       3.80 seconds =       0.06 minutes
	total time  =          1 seconds =       0.02 minutes
Total time:
	user time   =      15.34 seconds =       0.26 minutes
	system time =      14.99 seconds =       0.25 minutes
	total time  =          3 seconds =       0.05 minutes

*** tstart() called on Joses-MacBook-Pro-2.local
*** at Thu Jul 17 10:55:09 2025


         ------------------------------------------------------------
                                   SCF GRAD                          
                          Rob Parrish, Justin Turney,                
                       Andy Simmonett, and Alex Sokolov              
         ------------------------------------------------------------

  ==> Geometry <==

    Molecular point group: c2v
    Full point group: C_inf_v

    Geometry (in Angstrom), charge = -1, multiplicity = 3:

       Center              X                  Y                   Z               Mass       
    ------------   -----------------  -----------------  -----------------  -----------------
         F            0.000000000000     0.000000000000     0.918741613327    18.998403162730
         S            0.000000000000     0.000000000000    -0.545933464152    31.972071174400

  Nuclear repulsion =   52.026227187283631

  ==> Basis Set <==

  Basis Set: CC-PVDZ
    Blend: CC-PVDZ
    Number of shells: 14
    Number of basis functions: 32
    Number of Cartesian functions: 34
    Spherical Harmonics?: true
    Max angular momentum: 2

  ==> DFJKGrad: Density-Fitted SCF Gradients <==

    Gradient:                    1
    J tasked:                  Yes
    K tasked:                  Yes
    wK tasked:                  No
    OpenMP threads:              1
    Integrals threads:           1
    Memory [MiB]:              375
    Schwarz Cutoff:          1E-12
    Fitting Condition:       1E-10

   => Auxiliary Basis Set <=

  Basis Set: (CC-PVDZ AUX)
    Blend: CC-PVDZ-JKFIT
    Number of shells: 60
    Number of basis functions: 182
    Number of Cartesian functions: 211
    Spherical Harmonics?: true
    Max angular momentum: 3

  ==> DFT Potential <==

   => LibXC <=

    Version 6.2.2
    S. Lehtola, C. Steigemann, M. J.T. Oliveira, and M. A.L. Marques.,  SoftwareX 7, 1–5 (2018) (10.1016/j.softx.2017.11.002)

   => Composite Functional: B3LYP <= 

    B3LYP Hyb-GGA Exchange-Correlation Functional

    P. J. Stephens, F. J. Devlin, C. F. Chabalowski, and M. J. Frisch.,  J. Phys. Chem. 98, 11623 (1994) (10.1021/j100096a001)

    Deriv               =              1
    GGA                 =           TRUE
    Meta                =          FALSE

    Exchange Hybrid     =           TRUE
    MP2 Hybrid          =          FALSE

   => Exchange Functionals <=

    0.0800   Slater exchange
    0.7200         Becke 88

   => Exact (HF) Exchange <=

    0.2000               HF 

   => Correlation Functionals <=

    0.1900   Vosko, Wilk & Nusair (VWN5_RPA)
    0.8100   Lee, Yang & Parr

   => LibXC Density Thresholds  <==

    XC_HYB_GGA_XC_B3LYP:  1.00E-15 

   => Molecular Quadrature <=

    Radial Scheme          =       TREUTLER
    Pruning Scheme         =           NONE
    Nuclear Scheme         =       TREUTLER

    Blocking Scheme        =         OCTREE
    BS radius alpha        =              1
    Pruning alpha          =              1
    Radial Points          =             75
    Spherical Points       =            302
    Total Points           =          42091
    Total Blocks           =            378
    Max Points             =            254
    Max Functions          =             32
    Weights Tolerance      =       1.00E-15


  -Total Gradient:
     Atom            X                  Y                   Z
    ------   -----------------  -----------------  -----------------
       1        0.000000000000    -0.000000000000    -0.335687843040
       2        0.000000000000    -0.000000000000     0.335629893822


*** tstop() called on Joses-MacBook-Pro-2.local at Thu Jul 17 10:55:09 2025
Module time:
	user time   =       0.58 seconds =       0.01 minutes
	system time =       1.76 seconds =       0.03 minutes
	total time  =          0 seconds =       0.00 minutes
Total time:
	user time   =      15.92 seconds =       0.27 minutes
	system time =      16.75 seconds =       0.28 minutes
	total time  =          3 seconds =       0.05 minutes

    			-----------------------------------------

    			 OPTKING 3.0: for geometry optimizations 

    			     By R.A. King, Bethel University     

    			        with contributions from          

    			    A.V. Copan, J. Cayton, A. Heide      

    			-----------------------------------------

    
	                            ===> Fragment 1 <== 

	 Z (Atomic Numbers)          Masses                          Geom                  
	       9.000000            18.998403          0.00000000  0.00000000  1.73617003   
	      16.000000            31.972071          0.00000000  0.00000000 -1.03166473   

	 - Coordinate -           - BOHR/RAD -       - ANG/DEG -
	 R(1,2)           =         2.767835           1.464675


	        --- Internal Coordinate Step in ANG or DEG, aJ/ANG or AJ/DEG ---
	-------------------------------------------------------------------------------
	           Coordinate      Previous         Force          Change          New 
	           ----------      --------        ------          ------        ------
	               R(1,2)       1.46468        2.76540        0.15526       1.61994
	-------------------------------------------------------------------------------

	                                 ==> Convergence Check <==                                  
    
	Measures of convergence in internal coordinates in au.
    
	Criteria marked as inactive (o), active & met (*), and active & unmet ( ).

	----------------------------------------------------------------------------------------------
	   Step    Total Energy     Delta E     Max Force     RMS Force      Max Disp      RMS Disp   
	----------------------------------------------------------------------------------------------
	  Convergence Criteria     1.00e-06 *    3.00e-04 *             o    1.20e-03 *             o
	----------------------------------------------------------------------------------------------
	     3    -497.83595083   -1.17e-01      3.36e-01      3.36e-01 o    2.93e-01      2.93e-01 o  ~
	----------------------------------------------------------------------------------------------

Next Geometry in Ang 
	Fragment 1 (Ang)

	    F   0.0000000000   0.0000000000   0.9963715757
	    S   0.0000000000   0.0000000000  -0.6235634265


    Structure for next step:
    Molecular point group: c2v
    Full point group: C_inf_v

    Geometry (in Angstrom), charge = -1, multiplicity = 3:

    F            0.000000000000     0.000000000000     1.016130963334
    S            0.000000000000     0.000000000000    -0.603804038914


Scratch directory: /tmp/
gradient() will perform analytic gradient computation.
   => Libint2 <=

    Primary   basis highest AM E, G, H:  6, 6, 3
    Auxiliary basis highest AM E, G, H:  7, 7, 4
    Onebody   basis highest AM E, G, H:  -, -, -
    Solid Harmonics ordering:            Gaussian

*** tstart() called on Joses-MacBook-Pro-2.local
*** at Thu Jul 17 10:55:09 2025

   => Loading Basis Set <=

    Name: CC-PVDZ
    Role: ORBITAL
    Keyword: BASIS
    atoms 1 entry F          line   228 file /Users/joseantoniorodriguesromero/anaconda3/share/psi4/basis/cc-pvdz.gbs 
    atoms 2 entry S          line   598 file /Users/joseantoniorodriguesromero/anaconda3/share/psi4/basis/cc-pvdz.gbs 


         ---------------------------------------------------------
                                   SCF
               by Justin Turney, Rob Parrish, Andy Simmonett
                          and Daniel G. A. Smith
                              UKS Reference
                        1 Threads,    500 MiB Core
         ---------------------------------------------------------

  ==> Geometry <==

    Molecular point group: c2v
    Full point group: C_inf_v

    Geometry (in Angstrom), charge = -1, multiplicity = 3:

       Center              X                  Y                   Z               Mass       
    ------------   -----------------  -----------------  -----------------  -----------------
         F            0.000000000000     0.000000000000     1.016130963334    18.998403162730
         S            0.000000000000     0.000000000000    -0.603804038914    31.972071174400

  Running in c2v symmetry.

  Rotational constants: A = ************  B =      0.53905  C =      0.53905 [cm^-1]
  Rotational constants: A = ************  B =  16160.42675  C =  16160.42675 [MHz]
  Nuclear repulsion =   47.039861618360469

  Charge       = -1
  Multiplicity = 3
  Electrons    = 26
  Nalpha       = 14
  Nbeta        = 12

  ==> Algorithm <==

  SCF Algorithm Type is DF.
  DIIS enabled.
  MOM disabled.
  Fractional occupation disabled.
  Guess Type is READ.
  Energy threshold   = 1.00e-08
  Density threshold  = 1.00e-08
  Integral threshold = 1.00e-12

  ==> Primary Basis <==

  Basis Set: CC-PVDZ
    Blend: CC-PVDZ
    Number of shells: 14
    Number of basis functions: 32
    Number of Cartesian functions: 34
    Spherical Harmonics?: true
    Max angular momentum: 2

  ==> DFT Potential <==

   => LibXC <=

    Version 6.2.2
    S. Lehtola, C. Steigemann, M. J.T. Oliveira, and M. A.L. Marques.,  SoftwareX 7, 1–5 (2018) (10.1016/j.softx.2017.11.002)

   => Composite Functional: B3LYP <= 

    B3LYP Hyb-GGA Exchange-Correlation Functional

    P. J. Stephens, F. J. Devlin, C. F. Chabalowski, and M. J. Frisch.,  J. Phys. Chem. 98, 11623 (1994) (10.1021/j100096a001)

    Deriv               =              1
    GGA                 =           TRUE
    Meta                =          FALSE

    Exchange Hybrid     =           TRUE
    MP2 Hybrid          =          FALSE

   => Exchange Functionals <=

    0.0800   Slater exchange
    0.7200         Becke 88

   => Exact (HF) Exchange <=

    0.2000               HF 

   => Correlation Functionals <=

    0.1900   Vosko, Wilk & Nusair (VWN5_RPA)
    0.8100   Lee, Yang & Parr

   => LibXC Density Thresholds  <==

    XC_HYB_GGA_XC_B3LYP:  1.00E-15 

   => Molecular Quadrature <=

    Radial Scheme          =       TREUTLER
    Pruning Scheme         =           NONE
    Nuclear Scheme         =       TREUTLER

    Blocking Scheme        =         OCTREE
    BS radius alpha        =              1
    Pruning alpha          =              1
    Radial Points          =             75
    Spherical Points       =            302
    Total Points           =          42119
    Total Blocks           =            381
    Max Points             =            255
    Max Functions          =             32
    Weights Tolerance      =       1.00E-15

   => Loading Basis Set <=

    Name: (CC-PVDZ AUX)
    Role: JKFIT
    Keyword: DF_BASIS_SCF
    atoms 1 entry F          line   271 file /Users/joseantoniorodriguesromero/anaconda3/share/psi4/basis/cc-pvdz-jkfit.gbs 
    atoms 2 entry S          line   593 file /Users/joseantoniorodriguesromero/anaconda3/share/psi4/basis/cc-pvdz-jkfit.gbs 

   => Loading Basis Set <=

    Name: CC-PVDZ
    Role: ORBITAL
    Keyword: BASIS
    atoms 1 entry F          line   228 file /Users/joseantoniorodriguesromero/anaconda3/share/psi4/basis/cc-pvdz.gbs 
    atoms 2 entry S          line   598 file /Users/joseantoniorodriguesromero/anaconda3/share/psi4/basis/cc-pvdz.gbs 

  Reading orbitals from file /tmp/triplet_FS.default.72866.180.npy, no projection.

  ==> Integral Setup <==

  DFHelper Memory: AOs need 0.002 GiB; user supplied 0.328 GiB. 
  Using in-core AOs.

  ==> MemDFJK: Density-Fitted J/K Matrices <==

    J tasked:                   Yes
    K tasked:                   Yes
    wK tasked:                   No
    OpenMP threads:               1
    Memory [MiB]:               336
    Algorithm:                 Core
    Schwarz Cutoff:           1E-12
    Mask sparsity (%):       0.0000
    Fitting Condition:        1E-10

   => Auxiliary Basis Set <=

  Basis Set: (CC-PVDZ AUX)
    Blend: CC-PVDZ-JKFIT
    Number of shells: 60
    Number of basis functions: 182
    Number of Cartesian functions: 211
    Spherical Harmonics?: true
    Max angular momentum: 3

  Cached 100.0% of DFT collocation blocks in 0.038 [GiB].

  Minimum eigenvalue in the overlap matrix is 5.4108527651E-02.
  Reciprocal condition number of the overlap matrix is 2.0643706931E-02.
    Using symmetric orthogonalization.

  ==> Pre-Iterations <==

  SCF Guess: Orbitals guess was supplied from a previous computation.

   -------------------------------------------------------
    Irrep   Nso     Nmo     Nalpha   Nbeta   Ndocc  Nsocc
   -------------------------------------------------------
     A1        16      16       8       7       7       1
     A2         2       2       0       0       0       0
     B1         7       7       3       3       3       0
     B2         7       7       3       2       2       1
   -------------------------------------------------------
    Total      32      32      14      12      12       2
   -------------------------------------------------------

  ==> Iterations <==

                           Total Energy        Delta E     RMS |[F,P]|

   @DF-UKS iter   0:  -497.84629971480598   -4.97846e+02   3.84667e-02 
   @DF-UKS iter   1:  -497.90693413629231   -6.06344e-02   4.28381e-03 ADIIS/DIIS
   @DF-UKS iter   2:  -497.90191224946375    5.02189e-03   8.11096e-03 ADIIS/DIIS/DAMP=1%
   @DF-UKS iter   3:  -497.90956567907494   -7.65343e-03   6.75971e-04 ADIIS/DIIS/DAMP=1%
   @DF-UKS iter   4:  -497.91165378062396   -2.08810e-03   1.90193e-04 ADIIS/DIIS/DAMP=1%
   @DF-UKS iter   5:  -497.91085686331638    7.96917e-04   3.39913e-05 DIIS/DAMP=1%
   @DF-UKS iter   6:  -497.91101441302271   -1.57550e-04   7.09761e-06 DIIS/DAMP=1%
   @DF-UKS iter   7:  -497.91098439296746    3.00201e-05   1.19273e-06 DIIS/DAMP=1%
   @DF-UKS iter   8:  -497.91098701090851   -2.61794e-06   1.85921e-07 DIIS/DAMP=1%
   @DF-UKS iter   9:  -497.91098708157847   -7.06700e-08   2.47714e-08 DIIS/DAMP=1%
   @DF-UKS iter  10:  -497.91098712976714   -4.81887e-08   4.14522e-09 DIIS/DAMP=1%
   @DF-UKS iter  11:  -497.91098713569068   -5.92354e-09   7.54004e-10 DIIS/DAMP=1%
  Energy and wave function converged.


  ==> Post-Iterations <==

   Electrons on quadrature grid:
      Nalpha   =   13.9999970754 ; deviation = -2.925e-06
      Nbeta    =   11.9999978265 ; deviation = -2.174e-06
      Ntotal   =   25.9999949019 ; deviation = -5.098e-06 

   @Spin Contamination Metric:   2.588554589E-03
   @S^2 Expected:                2.000000000E+00
   @S^2 Observed:                2.002588555E+00
   @S   Expected:                1.000000000E+00
   @S   Observed:                1.000000000E+00

    Orbital Energies [Eh]
    ---------------------

    Alpha Occupied:                                                       

       1A1   -88.599119     2A1   -24.369601     3A1    -7.654380  
       1B2    -5.622410     4A1    -5.619889     1B1    -5.606372  
       5A1    -0.898235     6A1    -0.396966     7A1    -0.178202  
       2B2    -0.159013     2B1    -0.139336     3B2     0.018563  
       3B1     0.056995     8A1     0.183197  

    Alpha Virtual:                                                        

       9A1     0.727771     4B2     0.730590    10A1     0.748660  
       4B1     0.759315    11A1     0.874704     1A2     0.875112  
       5B2     0.878987     5B1     0.911815    12A1     1.090970  
       6B2     1.496780    13A1     1.509392     6B1     1.510164  
      14A1     2.390884    15A1     3.859681     2A2     3.859767  
       7B2     3.886848     7B1     3.899925    16A1     4.146441  

    Beta Occupied:                                                        

       1A1   -88.591508     2A1   -24.353873     3A1    -7.646335  
       4A1    -5.607812     1B2    -5.605486     1B1    -5.601477  
       5A1    -0.861057     6A1    -0.340656     7A1    -0.123397  
       2B1    -0.123297     2B2    -0.111010     3B1     0.079970  

    Beta Virtual:                                                         

       3B2     0.154491     8A1     0.307480     9A1     0.758446  
       4B1     0.775639     4B2     0.780026    10A1     0.784048  
       1A2     0.928947    11A1     0.932529     5B1     0.942353  
       5B2     0.948092    12A1     1.140770     6B1     1.521460  
       6B2     1.523075    13A1     1.538266    14A1     2.415618  
       2A2     3.880692    15A1     3.880942     7B2     3.922632  
       7B1     3.923086    16A1     4.178114  

    Final Occupation by Irrep:
             A1    A2    B1    B2 
    DOCC [     7,    0,    3,    2 ]
    SOCC [     1,    0,    0,    1 ]
    NA   [     8,    0,    3,    3 ]
    NB   [     7,    0,    3,    2 ]

  @DF-UKS Final Energy:  -497.91098713569068

   => Energetics <=

    Nuclear Repulsion Energy =             47.0398616183604688
    One-Electron Energy =                -791.0556678521020331
    Two-Electron Energy =                 275.5330376630333262
    DFT Exchange-Correlation Energy =     -29.4282185649823873
    Empirical Dispersion Energy =           0.0000000000000000
    VV10 Nonlocal Energy =                  0.0000000000000000
    Total Energy =                       -497.9109871356906751

  UHF NO Occupations:
  HONO-2 :    7 A1 1.9993809
  HONO-1 :    8 A1 1.0000000
  HONO-0 :    3 B2 1.0000000
  LUNO+0 :    9 A1 0.0006191
  LUNO+1 :    4 B2 0.0002682
  LUNO+2 :   10 A1 0.0002500
  LUNO+3 :    4 B1 0.0001210


Computation Completed


Properties will be evaluated at   0.000000,   0.000000,   0.000000 [a0]

Properties computed using the SCF density matrix


 Multipole Moments:

 ------------------------------------------------------------------------------------
     Multipole            Electronic (a.u.)      Nuclear  (a.u.)        Total (a.u.)
 ------------------------------------------------------------------------------------

 L = 1.  Multiply by 2.5417464519 to convert [e a0] to [Debye]
 Dipole X            :          0.0000000            0.0000000            0.0000000
 Dipole Y            :          0.0000000            0.0000000            0.0000000
 Dipole Z            :          1.3944501           -0.9745052            0.4199449
 Magnitude           :                                                    0.4199449

 ------------------------------------------------------------------------------------

*** tstop() called on Joses-MacBook-Pro-2.local at Thu Jul 17 10:55:10 2025
Module time:
	user time   =       3.99 seconds =       0.07 minutes
	system time =       4.05 seconds =       0.07 minutes
	total time  =          1 seconds =       0.02 minutes
Total time:
	user time   =      19.95 seconds =       0.33 minutes
	system time =      21.02 seconds =       0.35 minutes
	total time  =          4 seconds =       0.07 minutes

*** tstart() called on Joses-MacBook-Pro-2.local
*** at Thu Jul 17 10:55:10 2025


         ------------------------------------------------------------
                                   SCF GRAD                          
                          Rob Parrish, Justin Turney,                
                       Andy Simmonett, and Alex Sokolov              
         ------------------------------------------------------------

  ==> Geometry <==

    Molecular point group: c2v
    Full point group: C_inf_v

    Geometry (in Angstrom), charge = -1, multiplicity = 3:

       Center              X                  Y                   Z               Mass       
    ------------   -----------------  -----------------  -----------------  -----------------
         F            0.000000000000     0.000000000000     1.016130963334    18.998403162730
         S            0.000000000000     0.000000000000    -0.603804038914    31.972071174400

  Nuclear repulsion =   47.039861618360469

  ==> Basis Set <==

  Basis Set: CC-PVDZ
    Blend: CC-PVDZ
    Number of shells: 14
    Number of basis functions: 32
    Number of Cartesian functions: 34
    Spherical Harmonics?: true
    Max angular momentum: 2

  ==> DFJKGrad: Density-Fitted SCF Gradients <==

    Gradient:                    1
    J tasked:                  Yes
    K tasked:                  Yes
    wK tasked:                  No
    OpenMP threads:              1
    Integrals threads:           1
    Memory [MiB]:              375
    Schwarz Cutoff:          1E-12
    Fitting Condition:       1E-10

   => Auxiliary Basis Set <=

  Basis Set: (CC-PVDZ AUX)
    Blend: CC-PVDZ-JKFIT
    Number of shells: 60
    Number of basis functions: 182
    Number of Cartesian functions: 211
    Spherical Harmonics?: true
    Max angular momentum: 3

  ==> DFT Potential <==

   => LibXC <=

    Version 6.2.2
    S. Lehtola, C. Steigemann, M. J.T. Oliveira, and M. A.L. Marques.,  SoftwareX 7, 1–5 (2018) (10.1016/j.softx.2017.11.002)

   => Composite Functional: B3LYP <= 

    B3LYP Hyb-GGA Exchange-Correlation Functional

    P. J. Stephens, F. J. Devlin, C. F. Chabalowski, and M. J. Frisch.,  J. Phys. Chem. 98, 11623 (1994) (10.1021/j100096a001)

    Deriv               =              1
    GGA                 =           TRUE
    Meta                =          FALSE

    Exchange Hybrid     =           TRUE
    MP2 Hybrid          =          FALSE

   => Exchange Functionals <=

    0.0800   Slater exchange
    0.7200         Becke 88

   => Exact (HF) Exchange <=

    0.2000               HF 

   => Correlation Functionals <=

    0.1900   Vosko, Wilk & Nusair (VWN5_RPA)
    0.8100   Lee, Yang & Parr

   => LibXC Density Thresholds  <==

    XC_HYB_GGA_XC_B3LYP:  1.00E-15 

   => Molecular Quadrature <=

    Radial Scheme          =       TREUTLER
    Pruning Scheme         =           NONE
    Nuclear Scheme         =       TREUTLER

    Blocking Scheme        =         OCTREE
    BS radius alpha        =              1
    Pruning alpha          =              1
    Radial Points          =             75
    Spherical Points       =            302
    Total Points           =          42119
    Total Blocks           =            381
    Max Points             =            255
    Max Functions          =             32
    Weights Tolerance      =       1.00E-15


  -Total Gradient:
     Atom            X                  Y                   Z
    ------   -----------------  -----------------  -----------------
       1        0.000000000000    -0.000000000000    -0.190211752770
       2        0.000000000000     0.000000000000     0.190153279238


*** tstop() called on Joses-MacBook-Pro-2.local at Thu Jul 17 10:55:10 2025
Module time:
	user time   =       0.64 seconds =       0.01 minutes
	system time =       1.77 seconds =       0.03 minutes
	total time  =          0 seconds =       0.00 minutes
Total time:
	user time   =      20.59 seconds =       0.34 minutes
	system time =      22.79 seconds =       0.38 minutes
	total time  =          4 seconds =       0.07 minutes

    			-----------------------------------------

    			 OPTKING 3.0: for geometry optimizations 

    			     By R.A. King, Bethel University     

    			        with contributions from          

    			    A.V. Copan, J. Cayton, A. Heide      

    			-----------------------------------------

    
	                            ===> Fragment 1 <== 

	 Z (Atomic Numbers)          Masses                          Geom                  
	       9.000000            18.998403          0.00000000  0.00000000  1.92020923   
	      16.000000            31.972071          0.00000000  0.00000000 -1.14102427   

	 - Coordinate -           - BOHR/RAD -       - ANG/DEG -
	 R(1,2)           =         3.061233           1.619935


	        --- Internal Coordinate Step in ANG or DEG, aJ/ANG or AJ/DEG ---
	-------------------------------------------------------------------------------
	           Coordinate      Previous         Force          Change          New 
	           ----------      --------        ------          ------        ------
	               R(1,2)       1.61994        1.56686        0.17959       1.79953
	-------------------------------------------------------------------------------

	                                 ==> Convergence Check <==                                  
    
	Measures of convergence in internal coordinates in au.
    
	Criteria marked as inactive (o), active & met (*), and active & unmet ( ).

	----------------------------------------------------------------------------------------------
	   Step    Total Energy     Delta E     Max Force     RMS Force      Max Disp      RMS Disp   
	----------------------------------------------------------------------------------------------
	  Convergence Criteria     1.00e-06 *    3.00e-04 *             o    1.20e-03 *             o
	----------------------------------------------------------------------------------------------
	     4    -497.91098714   -7.50e-02      1.90e-01      1.90e-01 o    3.39e-01      3.39e-01 o  ~
	----------------------------------------------------------------------------------------------

Next Geometry in Ang 
	Fragment 1 (Ang)

	    F   0.0000000000   0.0000000000   1.1059279803
	    S   0.0000000000   0.0000000000  -0.6936010559


    Structure for next step:
    Molecular point group: c2v
    Full point group: C_inf_v

    Geometry (in Angstrom), charge = -1, multiplicity = 3:

    F            0.000000000000     0.000000000000     1.128784284854
    S            0.000000000000     0.000000000000    -0.670744751268


Scratch directory: /tmp/
gradient() will perform analytic gradient computation.
   => Libint2 <=

    Primary   basis highest AM E, G, H:  6, 6, 3
    Auxiliary basis highest AM E, G, H:  7, 7, 4
    Onebody   basis highest AM E, G, H:  -, -, -
    Solid Harmonics ordering:            Gaussian

*** tstart() called on Joses-MacBook-Pro-2.local
*** at Thu Jul 17 10:55:10 2025

   => Loading Basis Set <=

    Name: CC-PVDZ
    Role: ORBITAL
    Keyword: BASIS
    atoms 1 entry F          line   228 file /Users/joseantoniorodriguesromero/anaconda3/share/psi4/basis/cc-pvdz.gbs 
    atoms 2 entry S          line   598 file /Users/joseantoniorodriguesromero/anaconda3/share/psi4/basis/cc-pvdz.gbs 


         ---------------------------------------------------------
                                   SCF
               by Justin Turney, Rob Parrish, Andy Simmonett
                          and Daniel G. A. Smith
                              UKS Reference
                        1 Threads,    500 MiB Core
         ---------------------------------------------------------

  ==> Geometry <==

    Molecular point group: c2v
    Full point group: C_inf_v

    Geometry (in Angstrom), charge = -1, multiplicity = 3:

       Center              X                  Y                   Z               Mass       
    ------------   -----------------  -----------------  -----------------  -----------------
         F            0.000000000000     0.000000000000     1.128784284854    18.998403162730
         S            0.000000000000     0.000000000000    -0.670744751268    31.972071174400

  Running in c2v symmetry.

  Rotational constants: A = ************  B =      0.43683  C =      0.43683 [cm^-1]
  Rotational constants: A = ************  B =  13095.74732  C =  13095.74732 [MHz]
  Nuclear repulsion =   42.345256345891748

  Charge       = -1
  Multiplicity = 3
  Electrons    = 26
  Nalpha       = 14
  Nbeta        = 12

  ==> Algorithm <==

  SCF Algorithm Type is DF.
  DIIS enabled.
  MOM disabled.
  Fractional occupation disabled.
  Guess Type is READ.
  Energy threshold   = 1.00e-08
  Density threshold  = 1.00e-08
  Integral threshold = 1.00e-12

  ==> Primary Basis <==

  Basis Set: CC-PVDZ
    Blend: CC-PVDZ
    Number of shells: 14
    Number of basis functions: 32
    Number of Cartesian functions: 34
    Spherical Harmonics?: true
    Max angular momentum: 2

  ==> DFT Potential <==

   => LibXC <=

    Version 6.2.2
[...]
    
	Measures of convergence in internal coordinates in au.
    
	Criteria marked as inactive (o), active & met (*), and active & unmet ( ).

	----------------------------------------------------------------------------------------------
	   Step    Total Energy     Delta E     Max Force     RMS Force      Max Disp      RMS Disp   
	----------------------------------------------------------------------------------------------
	  Convergence Criteria     1.00e-06 *    3.00e-04 *             o    1.20e-03 *             o
	----------------------------------------------------------------------------------------------
	    12    -497.98644101   -1.68e-06      1.12e-04 *    1.12e-04 o    2.30e-03      2.30e-03 o  ~
	----------------------------------------------------------------------------------------------

Next Geometry in Ang 
	Fragment 1 (Ang)

	    F   0.0000000000   0.0000000000   1.4052903768
	    S   0.0000000000   0.0000000000  -0.8352971955


    Structure for next step:
    Molecular point group: c2v
    Full point group: C_inf_v

    Geometry (in Angstrom), charge = -1, multiplicity = 3:

    F            0.000000000000     0.000000000000     1.405445530267
    S            0.000000000000     0.000000000000    -0.835142041991


Scratch directory: /tmp/
gradient() will perform analytic gradient computation.
   => Libint2 <=

    Primary   basis highest AM E, G, H:  6, 6, 3
    Auxiliary basis highest AM E, G, H:  7, 7, 4
    Onebody   basis highest AM E, G, H:  -, -, -
    Solid Harmonics ordering:            Gaussian

*** tstart() called on Joses-MacBook-Pro-2.local
*** at Thu Jul 17 10:55:18 2025

   => Loading Basis Set <=

    Name: CC-PVDZ
    Role: ORBITAL
    Keyword: BASIS
    atoms 1 entry F          line   228 file /Users/joseantoniorodriguesromero/anaconda3/share/psi4/basis/cc-pvdz.gbs 
    atoms 2 entry S          line   598 file /Users/joseantoniorodriguesromero/anaconda3/share/psi4/basis/cc-pvdz.gbs 


         ---------------------------------------------------------
                                   SCF
               by Justin Turney, Rob Parrish, Andy Simmonett
                          and Daniel G. A. Smith
                              UKS Reference
                        1 Threads,    500 MiB Core
         ---------------------------------------------------------

  ==> Geometry <==

    Molecular point group: c2v
    Full point group: C_inf_v

    Geometry (in Angstrom), charge = -1, multiplicity = 3:

       Center              X                  Y                   Z               Mass       
    ------------   -----------------  -----------------  -----------------  -----------------
         F            0.000000000000     0.000000000000     1.405445530267    18.998403162730
         S            0.000000000000     0.000000000000    -0.835142041991    31.972071174400

  Running in c2v symmetry.

  Rotational constants: A = ************  B =      0.28178  C =      0.28178 [cm^-1]
  Rotational constants: A = ************  B =   8447.42138  C =   8447.42138 [MHz]
  Nuclear repulsion =   34.009613942331256

  Charge       = -1
  Multiplicity = 3
  Electrons    = 26
  Nalpha       = 14
  Nbeta        = 12

  ==> Algorithm <==

  SCF Algorithm Type is DF.
  DIIS enabled.
  MOM disabled.
  Fractional occupation disabled.
  Guess Type is READ.
  Energy threshold   = 1.00e-08
  Density threshold  = 1.00e-08
  Integral threshold = 1.00e-12

  ==> Primary Basis <==

  Basis Set: CC-PVDZ
    Blend: CC-PVDZ
    Number of shells: 14
    Number of basis functions: 32
    Number of Cartesian functions: 34
    Spherical Harmonics?: true
    Max angular momentum: 2

  ==> DFT Potential <==

   => LibXC <=

    Version 6.2.2
    S. Lehtola, C. Steigemann, M. J.T. Oliveira, and M. A.L. Marques.,  SoftwareX 7, 1–5 (2018) (10.1016/j.softx.2017.11.002)

   => Composite Functional: B3LYP <= 

    B3LYP Hyb-GGA Exchange-Correlation Functional

    P. J. Stephens, F. J. Devlin, C. F. Chabalowski, and M. J. Frisch.,  J. Phys. Chem. 98, 11623 (1994) (10.1021/j100096a001)

    Deriv               =              1
    GGA                 =           TRUE
    Meta                =          FALSE

    Exchange Hybrid     =           TRUE
    MP2 Hybrid          =          FALSE

   => Exchange Functionals <=

    0.0800   Slater exchange
    0.7200         Becke 88

   => Exact (HF) Exchange <=

    0.2000               HF 

   => Correlation Functionals <=

    0.1900   Vosko, Wilk & Nusair (VWN5_RPA)
    0.8100   Lee, Yang & Parr

   => LibXC Density Thresholds  <==

    XC_HYB_GGA_XC_B3LYP:  1.00E-15 

   => Molecular Quadrature <=

    Radial Scheme          =       TREUTLER
    Pruning Scheme         =           NONE
    Nuclear Scheme         =       TREUTLER

    Blocking Scheme        =         OCTREE
    BS radius alpha        =              1
    Pruning alpha          =              1
    Radial Points          =             75
    Spherical Points       =            302
    Total Points           =          42220
    Total Blocks           =            381
    Max Points             =            249
    Max Functions          =             32
    Weights Tolerance      =       1.00E-15

   => Loading Basis Set <=

    Name: (CC-PVDZ AUX)
    Role: JKFIT
    Keyword: DF_BASIS_SCF
    atoms 1 entry F          line   271 file /Users/joseantoniorodriguesromero/anaconda3/share/psi4/basis/cc-pvdz-jkfit.gbs 
    atoms 2 entry S          line   593 file /Users/joseantoniorodriguesromero/anaconda3/share/psi4/basis/cc-pvdz-jkfit.gbs 

   => Loading Basis Set <=

    Name: CC-PVDZ
    Role: ORBITAL
    Keyword: BASIS
    atoms 1 entry F          line   228 file /Users/joseantoniorodriguesromero/anaconda3/share/psi4/basis/cc-pvdz.gbs 
    atoms 2 entry S          line   598 file /Users/joseantoniorodriguesromero/anaconda3/share/psi4/basis/cc-pvdz.gbs 

  Reading orbitals from file /tmp/triplet_FS.default.72866.180.npy, no projection.

  ==> Integral Setup <==

  DFHelper Memory: AOs need 0.002 GiB; user supplied 0.329 GiB. 
  Using in-core AOs.

  ==> MemDFJK: Density-Fitted J/K Matrices <==

    J tasked:                   Yes
    K tasked:                   Yes
    wK tasked:                   No
    OpenMP threads:               1
    Memory [MiB]:               337
    Algorithm:                 Core
    Schwarz Cutoff:           1E-12
    Mask sparsity (%):       0.0000
    Fitting Condition:        1E-10

   => Auxiliary Basis Set <=

  Basis Set: (CC-PVDZ AUX)
    Blend: CC-PVDZ-JKFIT
    Number of shells: 60
    Number of basis functions: 182
    Number of Cartesian functions: 211
    Spherical Harmonics?: true
    Max angular momentum: 3

  Cached 100.0% of DFT collocation blocks in 0.037 [GiB].

  Minimum eigenvalue in the overlap matrix is 8.9653154429E-02.
  Reciprocal condition number of the overlap matrix is 4.2775860709E-02.
    Using symmetric orthogonalization.

  ==> Pre-Iterations <==

  SCF Guess: Orbitals guess was supplied from a previous computation.

   -------------------------------------------------------
    Irrep   Nso     Nmo     Nalpha   Nbeta   Ndocc  Nsocc
   -------------------------------------------------------
     A1        16      16       8       7       7       1
     A2         2       2       0       0       0       0
     B1         7       7       3       3       3       0
     B2         7       7       3       2       2       1
   -------------------------------------------------------
    Total      32      32      14      12      12       2
   -------------------------------------------------------

  ==> Iterations <==

                           Total Energy        Delta E     RMS |[F,P]|

   @DF-UKS iter   0:  -497.98631234766663   -4.97986e+02   5.71710e-05 
   @DF-UKS iter   1:  -497.98644121501673   -1.28867e-04   1.11651e-05 DIIS
   @DF-UKS iter   2:  -497.98644111718033    9.78364e-08   2.81130e-05 DIIS/DAMP=1%
   @DF-UKS iter   3:  -497.98643535563849    5.76154e-06   2.33930e-06 DIIS/DAMP=1%
   @DF-UKS iter   4:  -497.98644136830751   -6.01267e-06   7.17128e-07 DIIS/DAMP=1%
   @DF-UKS iter   5:  -497.98644106708406    3.01223e-07   2.64351e-07 DIIS/DAMP=1%
   @DF-UKS iter   6:  -497.98644125504376   -1.87960e-07   8.23103e-08 DIIS/DAMP=1%
   @DF-UKS iter   7:  -497.98644125379690    1.24686e-09   4.74837e-08 DIIS/DAMP=1%
   @DF-UKS iter   8:  -497.98644124181197    1.19849e-08   2.64049e-09 DIIS/DAMP=1%
   @DF-UKS iter   9:  -497.98644124267332   -8.61348e-10   1.25222e-09 DIIS/DAMP=1%
  Energy and wave function converged.


  ==> Post-Iterations <==

   Electrons on quadrature grid:
      Nalpha   =   14.0000059690 ; deviation = 5.969e-06
      Nbeta    =   12.0000047299 ; deviation = 4.730e-06
      Ntotal   =   26.0000106989 ; deviation = 1.070e-05 

   @Spin Contamination Metric:   3.743909243E-03
   @S^2 Expected:                2.000000000E+00
   @S^2 Observed:                2.003743909E+00
   @S   Expected:                1.000000000E+00
   @S   Observed:                1.000000000E+00

    Orbital Energies [Eh]
    ---------------------

    Alpha Occupied:                                                       

       1A1   -88.628354     2A1   -24.327579     3A1    -7.684801  
       1B2    -5.654647     4A1    -5.648949     1B1    -5.637422  
       5A1    -0.784534     6A1    -0.421275     7A1    -0.112836  
       2B2    -0.070029     2B1    -0.052063     3B2    -0.029529  
       3B1     0.005062     8A1     0.035187  

    Alpha Virtual:                                                        

       9A1     0.700295     4B2     0.712412     4B1     0.742427  
      10A1     0.755239     5B2     0.823300    11A1     0.841590  
       1A2     0.844237     5B1     0.858181    12A1     0.901528  
       6B2     1.476490     6B1     1.484076    13A1     1.544197  
      14A1     2.105291     7B2     3.908630     7B1     3.915465  
      15A1     3.923551     2A2     3.933403    16A1     3.934778  

    Beta Occupied:                                                        

       1A1   -88.619838     2A1   -24.311846     3A1    -7.676025  
       1B2    -5.636527     4A1    -5.633943     1B1    -5.632154  
       5A1    -0.744101     6A1    -0.350970     2B1    -0.036682  
       7A1    -0.036342     2B2    -0.026111     3B1     0.026257  

    Beta Virtual:                                                         

       3B2     0.100013     8A1     0.168477     9A1     0.730801  
       4B1     0.754919     4B2     0.760238    10A1     0.798868  
       1A2     0.896390     5B1     0.896396    11A1     0.900406  
       5B2     0.904171    12A1     0.947818     6B1     1.493229  
       6B2     1.494314    13A1     1.581300    14A1     2.133879  
      15A1     3.948327     2A2     3.948415     7B1     3.952852  
       7B2     3.952990    16A1     3.974624  

    Final Occupation by Irrep:
             A1    A2    B1    B2 
    DOCC [     7,    0,    3,    2 ]
    SOCC [     1,    0,    0,    1 ]
    NA   [     8,    0,    3,    3 ]
    NB   [     7,    0,    3,    2 ]

  @DF-UKS Final Energy:  -497.98644124267332

   => Energetics <=

    Nuclear Repulsion Energy =             34.0096139423312565
    One-Electron Energy =                -765.3801971853921486
    Two-Electron Energy =                 262.7295789875247465
    DFT Exchange-Correlation Energy =     -29.3454369871371625
    Empirical Dispersion Energy =           0.0000000000000000
    VV10 Nonlocal Energy =                  0.0000000000000000
    Total Energy =                       -497.9864412426733224

  UHF NO Occupations:
  HONO-2 :    7 A1 1.9991508
  HONO-1 :    3 B2 1.0000000
  HONO-0 :    8 A1 1.0000000
  LUNO+0 :    9 A1 0.0008492
  LUNO+1 :   10 A1 0.0006498
  LUNO+2 :    4 B2 0.0002068
  LUNO+3 :    4 B1 0.0001027


Computation Completed


Properties will be evaluated at   0.000000,   0.000000,   0.000000 [a0]

Properties computed using the SCF density matrix


 Multipole Moments:

 ------------------------------------------------------------------------------------
     Multipole            Electronic (a.u.)      Nuclear  (a.u.)        Total (a.u.)
 ------------------------------------------------------------------------------------

 L = 1.  Multiply by 2.5417464519 to convert [e a0] to [Debye]
 Dipole X            :          0.0000000            0.0000000            0.0000000
 Dipole Y            :          0.0000000            0.0000000            0.0000000
 Dipole Z            :          0.9650720           -1.3478715           -0.3827996
 Magnitude           :                                                    0.3827996

 ------------------------------------------------------------------------------------

*** tstop() called on Joses-MacBook-Pro-2.local at Thu Jul 17 10:55:19 2025
Module time:
	user time   =       3.19 seconds =       0.05 minutes
	system time =       3.61 seconds =       0.06 minutes
	total time  =          1 seconds =       0.02 minutes
Total time:
	user time   =      65.49 seconds =       1.09 minutes
	system time =      72.11 seconds =       1.20 minutes
	total time  =         13 seconds =       0.22 minutes

*** tstart() called on Joses-MacBook-Pro-2.local
*** at Thu Jul 17 10:55:19 2025


         ------------------------------------------------------------
                                   SCF GRAD                          
                          Rob Parrish, Justin Turney,                
                       Andy Simmonett, and Alex Sokolov              
         ------------------------------------------------------------

  ==> Geometry <==

    Molecular point group: c2v
    Full point group: C_inf_v

    Geometry (in Angstrom), charge = -1, multiplicity = 3:

       Center              X                  Y                   Z               Mass       
    ------------   -----------------  -----------------  -----------------  -----------------
         F            0.000000000000     0.000000000000     1.405445530267    18.998403162730
         S            0.000000000000     0.000000000000    -0.835142041991    31.972071174400

  Nuclear repulsion =   34.009613942331256

  ==> Basis Set <==

  Basis Set: CC-PVDZ
    Blend: CC-PVDZ
    Number of shells: 14
    Number of basis functions: 32
    Number of Cartesian functions: 34
    Spherical Harmonics?: true
    Max angular momentum: 2

  ==> DFJKGrad: Density-Fitted SCF Gradients <==

    Gradient:                    1
    J tasked:                  Yes
    K tasked:                  Yes
    wK tasked:                  No
    OpenMP threads:              1
    Integrals threads:           1
    Memory [MiB]:              375
    Schwarz Cutoff:          1E-12
    Fitting Condition:       1E-10

   => Auxiliary Basis Set <=

  Basis Set: (CC-PVDZ AUX)
    Blend: CC-PVDZ-JKFIT
    Number of shells: 60
    Number of basis functions: 182
    Number of Cartesian functions: 211
    Spherical Harmonics?: true
    Max angular momentum: 3

  ==> DFT Potential <==

   => LibXC <=

    Version 6.2.2
    S. Lehtola, C. Steigemann, M. J.T. Oliveira, and M. A.L. Marques.,  SoftwareX 7, 1–5 (2018) (10.1016/j.softx.2017.11.002)

   => Composite Functional: B3LYP <= 

    B3LYP Hyb-GGA Exchange-Correlation Functional

    P. J. Stephens, F. J. Devlin, C. F. Chabalowski, and M. J. Frisch.,  J. Phys. Chem. 98, 11623 (1994) (10.1021/j100096a001)

    Deriv               =              1
    GGA                 =           TRUE
    Meta                =          FALSE

    Exchange Hybrid     =           TRUE
    MP2 Hybrid          =          FALSE

   => Exchange Functionals <=

    0.0800   Slater exchange
    0.7200         Becke 88

   => Exact (HF) Exchange <=

    0.2000               HF 

   => Correlation Functionals <=

    0.1900   Vosko, Wilk & Nusair (VWN5_RPA)
    0.8100   Lee, Yang & Parr

   => LibXC Density Thresholds  <==

    XC_HYB_GGA_XC_B3LYP:  1.00E-15 

   => Molecular Quadrature <=

    Radial Scheme          =       TREUTLER
    Pruning Scheme         =           NONE
    Nuclear Scheme         =       TREUTLER

    Blocking Scheme        =         OCTREE
    BS radius alpha        =              1
    Pruning alpha          =              1
    Radial Points          =             75
    Spherical Points       =            302
    Total Points           =          42220
    Total Blocks           =            381
    Max Points             =            249
    Max Functions          =             32
    Weights Tolerance      =       1.00E-15


  -Total Gradient:
     Atom            X                  Y                   Z
    ------   -----------------  -----------------  -----------------
       1        0.000000000000     0.000000000000     0.000007946469
       2        0.000000000000     0.000000000000     0.000042099954


*** tstop() called on Joses-MacBook-Pro-2.local at Thu Jul 17 10:55:19 2025
Module time:
	user time   =       0.85 seconds =       0.01 minutes
	system time =       1.58 seconds =       0.03 minutes
	total time  =          0 seconds =       0.00 minutes
Total time:
	user time   =      66.35 seconds =       1.11 minutes
	system time =      73.69 seconds =       1.23 minutes
	total time  =         13 seconds =       0.22 minutes

    			-----------------------------------------

    			 OPTKING 3.0: for geometry optimizations 

    			     By R.A. King, Bethel University     

    			        with contributions from          

    			    A.V. Copan, J. Cayton, A. Heide      

    			-----------------------------------------

    
	                            ===> Fragment 1 <== 

	 Z (Atomic Numbers)          Masses                          Geom                  
	       9.000000            18.998403          0.00000000  0.00000000  2.65590714   
	      16.000000            31.972071          0.00000000  0.00000000 -1.57818974   

	 - Coordinate -           - BOHR/RAD -       - ANG/DEG -
	 R(1,2)           =         4.234097           2.240588


	        --- Internal Coordinate Step in ANG or DEG, aJ/ANG or AJ/DEG ---
	-------------------------------------------------------------------------------
	           Coordinate      Previous         Force          Change          New 
	           ----------      --------        ------          ------        ------
	               R(1,2)       2.24059        0.00014        0.00020       2.24079
	-------------------------------------------------------------------------------

	                                 ==> Convergence Check <==                                  
    
	Measures of convergence in internal coordinates in au.
    
	Criteria marked as inactive (o), active & met (*), and active & unmet ( ).

	----------------------------------------------------------------------------------------------
	   Step    Total Energy     Delta E     Max Force     RMS Force      Max Disp      RMS Disp   
	----------------------------------------------------------------------------------------------
	  Convergence Criteria     1.00e-06 *    3.00e-04 *             o    1.20e-03 *             o
	----------------------------------------------------------------------------------------------
	    13    -497.98644124   -2.34e-07 *    1.71e-05 *    1.71e-05 o    3.84e-04 *    3.84e-04 o  ~
	----------------------------------------------------------------------------------------------

Next Geometry in Ang 
	Fragment 1 (Ang)

	    F   0.0000000000   0.0000000000   1.4055470498
	    S   0.0000000000   0.0000000000  -0.8352435615


    Final optimized geometry and variables:
    Molecular point group: c2v
    Full point group: C_inf_v

    Geometry (in Angstrom), charge = -1, multiplicity = 3:

    F            0.000000000000     0.000000000000     1.405445530267
    S            0.000000000000     0.000000000000    -0.835142041991


    Psi4 stopped on: Thursday, 17 July 2025 10:55AM
    Psi4 wall time for execution: 0:00:13.96

*** Psi4 exiting successfully. Buy a developer a beer!
