
    -----------------------------------------------------------------------
          Psi4: An Open-Source Ab Initio Electronic Structure Package
                               Psi4 1.9.1 release

                         Git: Rev {} zzzzzzz 


    D. G. A. Smith, L. A. Burns, A. C. Simmonett, R. M. Parrish,
    M. C. Schieber, R. Galvelis, P. Kraus, H. Kruse, R. Di Remigio,
    A. Alenaizan, A. M. James, S. Lehtola, J. P. Misiewicz, M. Scheurer,
    R. A. Shaw, J. B. Schriber, Y. Xie, Z. L. Glick, D. A. Sirianni,
    J. S. O'Brien, J. M. Waldrop, A. Kumar, E. G. Hohenstein,
    B. P. Pritchard, B. R. Brooks, H. F. Schaefer III, A. Yu. Sokolov,
    K. Patkowski, A. E. DePrince III, U. Bozkaya, R. A. King,
    F. A. Evangelista, J. M. Turney, T. D. Crawford, C. D. Sherrill,
    J. Chem. Phys. 152(18) 184108 (2020). https://doi.org/10.1063/5.0006002

                            Additional Code Authors
    E. T. Seidl, C. L. Janssen, E. F. Valeev, M. L. Leininger,
    J. F. Gonthier, R. M. Richard, H. R. McAlexander, M. Saitow, X. Wang,
    P. Verma, M. H. Lechner, A. Jiang, S. Behnle, A. G. Heide,
    M. F. Herbst, and D. L. Poole

             Previous Authors, Complete List of Code Contributors,
                       and Citations for Specific Modules
    https://github.com/psi4/psi4/blob/master/codemeta.json
    https://github.com/psi4/psi4/graphs/contributors
    http://psicode.org/psi4manual/master/introduction.html#citing-psifour

    -----------------------------------------------------------------------


    Psi4 started on: Thursday, 17 July 2025 12:00PM

    Process ID: 73429
    Host:       Joses-MacBook-Pro-2.local
    PSIDATADIR: /Users/joseantoniorodriguesromero/anaconda3/share/psi4
    Memory:     500.0 MiB
    Threads:    1
    
  ==> Input File <==

--------------------------------------------------------------------------
molecule { 
-1 3
P   0.00000        0.60000        0.00000
S   0.00000       -0.60000        0.00000
}

set { 
basis              cc-pvdz
reference          uks
maxiter            500
geom_maxiter       500
DAMPING_PERCENTAGE 1
guess              SAP
}

optimize('b3lyp')
--------------------------------------------------------------------------

Scratch directory: /tmp/
gradient() will perform analytic gradient computation.
   => Libint2 <=

    Primary   basis highest AM E, G, H:  6, 6, 3
    Auxiliary basis highest AM E, G, H:  7, 7, 4
    Onebody   basis highest AM E, G, H:  -, -, -
    Solid Harmonics ordering:            Gaussian

*** tstart() called on Joses-MacBook-Pro-2.local
*** at Thu Jul 17 12:00:59 2025

   => Loading Basis Set <=

    Name: CC-PVDZ
    Role: ORBITAL
    Keyword: BASIS
    atoms 1 entry P          line   538 file /Users/joseantoniorodriguesromero/anaconda3/share/psi4/basis/cc-pvdz.gbs 
    atoms 2 entry S          line   598 file /Users/joseantoniorodriguesromero/anaconda3/share/psi4/basis/cc-pvdz.gbs 


         ---------------------------------------------------------
                                   SCF
               by Justin Turney, Rob Parrish, Andy Simmonett
                          and Daniel G. A. Smith
                              UKS Reference
                        1 Threads,    500 MiB Core
         ---------------------------------------------------------

  ==> Geometry <==

    Molecular point group: c2v
    Full point group: C_inf_v

    Geometry (in Angstrom), charge = -1, multiplicity = 3:

       Center              X                  Y                   Z               Mass       
    ------------   -----------------  -----------------  -----------------  -----------------
         P            0.000000000000     0.000000000000     0.609515888112    30.973761998420
         S            0.000000000000     0.000000000000    -0.590484111888    31.972071174400

  Running in c2v symmetry.

  Rotational constants: A = ************  B =      0.74411  C =      0.74411 [cm^-1]
  Rotational constants: A = ************  B =  22307.81148  C =  22307.81148 [MHz]
  Nuclear repulsion =  105.835442134000019

  Charge       = -1
  Multiplicity = 3
  Electrons    = 32
  Nalpha       = 17
  Nbeta        = 15

  ==> Algorithm <==

  SCF Algorithm Type is DF.
  DIIS enabled.
  MOM disabled.
  Fractional occupation disabled.
  Guess Type is SAP.
  Energy threshold   = 1.00e-08
  Density threshold  = 1.00e-08
  Integral threshold = 1.00e-12

  ==> Primary Basis <==

  Basis Set: CC-PVDZ
    Blend: CC-PVDZ
    Number of shells: 16
    Number of basis functions: 36
    Number of Cartesian functions: 38
    Spherical Harmonics?: true
    Max angular momentum: 2

  ==> DFT Potential <==

   => LibXC <=

    Version 6.2.2
    S. Lehtola, C. Steigemann, M. J.T. Oliveira, and M. A.L. Marques.,  SoftwareX 7, 1–5 (2018) (10.1016/j.softx.2017.11.002)

   => Composite Functional: B3LYP <= 

    B3LYP Hyb-GGA Exchange-Correlation Functional

    P. J. Stephens, F. J. Devlin, C. F. Chabalowski, and M. J. Frisch.,  J. Phys. Chem. 98, 11623 (1994) (10.1021/j100096a001)

    Deriv               =              1
    GGA                 =           TRUE
    Meta                =          FALSE

    Exchange Hybrid     =           TRUE
    MP2 Hybrid          =          FALSE

   => Exchange Functionals <=

    0.0800   Slater exchange
    0.7200         Becke 88

   => Exact (HF) Exchange <=

    0.2000               HF 

   => Correlation Functionals <=

    0.1900   Vosko, Wilk & Nusair (VWN5_RPA)
    0.8100   Lee, Yang & Parr

   => LibXC Density Thresholds  <==

    XC_HYB_GGA_XC_B3LYP:  1.00E-15 

   => Molecular Quadrature <=

    Radial Scheme          =       TREUTLER
    Pruning Scheme         =           NONE
    Nuclear Scheme         =       TREUTLER

    Blocking Scheme        =         OCTREE
    BS radius alpha        =              1
    Pruning alpha          =              1
    Radial Points          =             75
    Spherical Points       =            302
    Total Points           =          40692
    Total Blocks           =            376
    Max Points             =            241
    Max Functions          =             36
    Weights Tolerance      =       1.00E-15

   => Loading Basis Set <=

    Name: (CC-PVDZ AUX)
    Role: JKFIT
    Keyword: DF_BASIS_SCF
    atoms 1 entry P          line   519 file /Users/joseantoniorodriguesromero/anaconda3/share/psi4/basis/cc-pvdz-jkfit.gbs 
    atoms 2 entry S          line   593 file /Users/joseantoniorodriguesromero/anaconda3/share/psi4/basis/cc-pvdz-jkfit.gbs 

  ==> Integral Setup <==

  DFHelper Memory: AOs need 0.003 GiB; user supplied 0.324 GiB. 
  Using in-core AOs.

  ==> MemDFJK: Density-Fitted J/K Matrices <==

    J tasked:                   Yes
    K tasked:                   Yes
    wK tasked:                   No
    OpenMP threads:               1
    Memory [MiB]:               331
    Algorithm:                 Core
    Schwarz Cutoff:           1E-12
    Mask sparsity (%):       0.0000
    Fitting Condition:        1E-10

   => Auxiliary Basis Set <=

  Basis Set: (CC-PVDZ AUX)
    Blend: CC-PVDZ-JKFIT
    Number of shells: 72
    Number of basis functions: 224
    Number of Cartesian functions: 260
    Spherical Harmonics?: true
    Max angular momentum: 3

  Cached 100.0% of DFT collocation blocks in 0.042 [GiB].

  Minimum eigenvalue in the overlap matrix is 3.4412197542E-03.
  Reciprocal condition number of the overlap matrix is 1.0788497796E-03.
    Using symmetric orthogonalization.

  ==> Pre-Iterations <==

  SCF Guess: Superposition of Atomic Potentials (doi:10.1021/acs.jctc.8b01089).

  ==> SAP guess <==

   => Molecular Quadrature <=

    Radial Scheme          =       TREUTLER
    Pruning Scheme         =           NONE
    Nuclear Scheme         =       TREUTLER

    Blocking Scheme        =         OCTREE
    BS radius alpha        =              1
    Pruning alpha          =              1
    Radial Points          =             75
    Spherical Points       =            302
    Total Points           =          40692
    Total Blocks           =            376
    Max Points             =            241
    Max Functions          =             36
    Weights Tolerance      =       1.00E-15

   -------------------------------------------------------
    Irrep   Nso     Nmo     Nalpha   Nbeta   Ndocc  Nsocc
   -------------------------------------------------------
     A1        18      18       9       9       9       0
     A2         2       2       0       0       0       0
     B1         8       8       4       3       3       1
     B2         8       8       4       3       3       1
   -------------------------------------------------------
    Total      36      36      17      15      15       2
   -------------------------------------------------------

  ==> Iterations <==

                           Total Energy        Delta E     RMS |[F,P]|

   @DF-UKS iter   1:  -737.84389215502620   -7.37844e+02   3.64301e-02 DIIS/ADIIS
   @DF-UKS iter   2:  -737.83321045002992    1.06817e-02   4.17217e-02 DIIS/ADIIS/DAMP=1%
   @DF-UKS iter   3:  -738.23605263057129   -4.02842e-01   8.50563e-04 DIIS/ADIIS/DAMP=1%
   @DF-UKS iter   4:  -738.31677679196025   -8.07242e-02   5.33685e-04 DIIS/ADIIS/DAMP=1%
   @DF-UKS iter   5:  -738.31683392660250   -5.71346e-05   1.46628e-04 DIIS/ADIIS/DAMP=1%
   @DF-UKS iter   6:  -738.31709249742539   -2.58571e-04   2.36959e-05 DIIS/DAMP=1%
   @DF-UKS iter   7:  -738.31723553104575   -1.43034e-04   5.48101e-06 DIIS/DAMP=1%
   @DF-UKS iter   8:  -738.31725070206335   -1.51710e-05   3.92824e-07 DIIS/DAMP=1%
   @DF-UKS iter   9:  -738.31724230669704    8.39537e-06   9.04102e-08 DIIS/DAMP=1%
   @DF-UKS iter  10:  -738.31724154615267    7.60544e-07   1.28089e-08 DIIS/DAMP=1%
   @DF-UKS iter  11:  -738.31724167703067   -1.30878e-07   1.13671e-09 DIIS/DAMP=1%
   @DF-UKS iter  12:  -738.31724168328685   -6.25619e-09   1.90942e-10 DIIS/DAMP=1%
  Energy and wave function converged.


  ==> Post-Iterations <==

   Electrons on quadrature grid:
      Nalpha   =   16.9999974135 ; deviation = -2.586e-06
      Nbeta    =   14.9999975018 ; deviation = -2.498e-06
      Ntotal   =   31.9999949153 ; deviation = -5.085e-06 

   @Spin Contamination Metric:   3.711414239E-03
   @S^2 Expected:                2.000000000E+00
   @S^2 Observed:                2.003711414E+00
   @S   Expected:                1.000000000E+00
   @S   Observed:                1.000000000E+00

    Orbital Energies [Eh]
    ---------------------

    Alpha Occupied:                                                       

       1A1   -88.580749     2A1   -76.762392     3A1    -7.732791  
       4A1    -6.335185     5A1    -5.705047     1B2    -5.670292  
       1B1    -5.670292     6A1    -4.506924     2B1    -4.468202  
       2B2    -4.468202     7A1    -0.652167     3B1    -0.203915  
       3B2    -0.203915     8A1    -0.203093     9A1    -0.029370  
       4B1     0.158885     4B2     0.158885  

    Alpha Virtual:                                                        

      10A1     0.364671     5B1     0.480112     5B2     0.480112  
      11A1     0.522431     1A2     0.588216    12A1     0.588217  
      13A1     0.632235     6B1     0.756327     6B2     0.756327  
      14A1     0.809304     7B1     0.842213     7B2     0.842213  
       2A2     0.981697    15A1     0.981698    16A1     1.009374  
      17A1     1.337293     8B2     1.486223     8B1     1.486223  
      18A1     2.627918  

    Beta Occupied:                                                        

       1A1   -88.577810     2A1   -76.758843     3A1    -7.729813  
       4A1    -6.331472     5A1    -5.703370     1B2    -5.664422  
       1B1    -5.664422     6A1    -4.505030     2B1    -4.460783  
       2B2    -4.460783     7A1    -0.639023     3B1    -0.178782  
       3B2    -0.178782     8A1    -0.158970     9A1     0.003013  

    Beta Virtual:                                                         

       4B1     0.259437     4B2     0.259437    10A1     0.375056  
       5B1     0.499626     5B2     0.499626    11A1     0.532702  
       1A2     0.621019    12A1     0.621019    13A1     0.653555  
       6B1     0.791582     6B2     0.791582    14A1     0.828851  
       7B1     0.875421     7B2     0.875421    15A1     1.027878  
       2A2     1.033165    16A1     1.033165    17A1     1.354341  
       8B2     1.512859     8B1     1.512859    18A1     2.639854  

    Final Occupation by Irrep:
             A1    A2    B1    B2 
    DOCC [     9,    0,    3,    3 ]
    SOCC [     0,    0,    1,    1 ]
    NA   [     9,    0,    4,    4 ]
    NB   [     9,    0,    3,    3 ]

  @DF-UKS Final Energy:  -738.31724168328685

   => Energetics <=

    Nuclear Repulsion Energy =            105.8354421340000187
    One-Electron Energy =               -1237.8664560691672705
    Two-Electron Energy =                 433.8761714554708533
    DFT Exchange-Correlation Energy =     -40.1623992035903896
    Empirical Dispersion Energy =           0.0000000000000000
    VV10 Nonlocal Energy =                  0.0000000000000000
    Total Energy =                       -738.3172416832868521

  UHF NO Occupations:
  HONO-2 :    9 A1 1.9993413
  HONO-1 :    4 B1 1.0000000
  HONO-0 :    4 B2 1.0000000
  LUNO+0 :   10 A1 0.0006587
  LUNO+1 :    5 B2 0.0005363
  LUNO+2 :    5 B1 0.0005363
  LUNO+3 :   11 A1 0.0001144


Computation Completed


Properties will be evaluated at   0.000000,   0.000000,   0.000000 [a0]

Properties computed using the SCF density matrix


 Multipole Moments:

 ------------------------------------------------------------------------------------
     Multipole            Electronic (a.u.)      Nuclear  (a.u.)        Total (a.u.)
 ------------------------------------------------------------------------------------

 L = 1.  Multiply by 2.5417464519 to convert [e a0] to [Debye]
 Dipole X            :          0.0000000            0.0000000            0.0000000
 Dipole Y            :          0.0000000            0.0000000            0.0000000
 Dipole Z            :         -0.2109262           -0.5763806           -0.7873067
 Magnitude           :                                                    0.7873067

 ------------------------------------------------------------------------------------

*** tstop() called on Joses-MacBook-Pro-2.local at Thu Jul 17 12:01:01 2025
Module time:
	user time   =      18.97 seconds =       0.32 minutes
	system time =       1.69 seconds =       0.03 minutes
	total time  =          2 seconds =       0.03 minutes
Total time:
	user time   =      18.97 seconds =       0.32 minutes
	system time =       1.69 seconds =       0.03 minutes
	total time  =          2 seconds =       0.03 minutes

*** tstart() called on Joses-MacBook-Pro-2.local
*** at Thu Jul 17 12:01:01 2025


         ------------------------------------------------------------
                                   SCF GRAD                          
                          Rob Parrish, Justin Turney,                
                       Andy Simmonett, and Alex Sokolov              
         ------------------------------------------------------------

  ==> Geometry <==

    Molecular point group: c2v
    Full point group: C_inf_v

    Geometry (in Angstrom), charge = -1, multiplicity = 3:

       Center              X                  Y                   Z               Mass       
    ------------   -----------------  -----------------  -----------------  -----------------
         P            0.000000000000     0.000000000000     0.609515888112    30.973761998420
         S            0.000000000000     0.000000000000    -0.590484111888    31.972071174400

  Nuclear repulsion =  105.835442134000019

  ==> Basis Set <==

  Basis Set: CC-PVDZ
    Blend: CC-PVDZ
    Number of shells: 16
    Number of basis functions: 36
    Number of Cartesian functions: 38
    Spherical Harmonics?: true
    Max angular momentum: 2

  ==> DFJKGrad: Density-Fitted SCF Gradients <==

    Gradient:                    1
    J tasked:                  Yes
    K tasked:                  Yes
    wK tasked:                  No
    OpenMP threads:              1
    Integrals threads:           1
    Memory [MiB]:              375
    Schwarz Cutoff:          1E-12
    Fitting Condition:       1E-10

   => Auxiliary Basis Set <=

  Basis Set: (CC-PVDZ AUX)
    Blend: CC-PVDZ-JKFIT
    Number of shells: 72
    Number of basis functions: 224
    Number of Cartesian functions: 260
    Spherical Harmonics?: true
    Max angular momentum: 3

  ==> DFT Potential <==

   => LibXC <=

    Version 6.2.2
    S. Lehtola, C. Steigemann, M. J.T. Oliveira, and M. A.L. Marques.,  SoftwareX 7, 1–5 (2018) (10.1016/j.softx.2017.11.002)

   => Composite Functional: B3LYP <= 

    B3LYP Hyb-GGA Exchange-Correlation Functional

    P. J. Stephens, F. J. Devlin, C. F. Chabalowski, and M. J. Frisch.,  J. Phys. Chem. 98, 11623 (1994) (10.1021/j100096a001)

    Deriv               =              1
    GGA                 =           TRUE
    Meta                =          FALSE

    Exchange Hybrid     =           TRUE
    MP2 Hybrid          =          FALSE

   => Exchange Functionals <=

    0.0800   Slater exchange
    0.7200         Becke 88

   => Exact (HF) Exchange <=

    0.2000               HF 

   => Correlation Functionals <=

    0.1900   Vosko, Wilk & Nusair (VWN5_RPA)
    0.8100   Lee, Yang & Parr

   => LibXC Density Thresholds  <==

    XC_HYB_GGA_XC_B3LYP:  1.00E-15 

   => Molecular Quadrature <=

    Radial Scheme          =       TREUTLER
    Pruning Scheme         =           NONE
    Nuclear Scheme         =       TREUTLER

    Blocking Scheme        =         OCTREE
    BS radius alpha        =              1
    Pruning alpha          =              1
    Radial Points          =             75
    Spherical Points       =            302
    Total Points           =          40692
    Total Blocks           =            376
    Max Points             =            241
    Max Functions          =             36
    Weights Tolerance      =       1.00E-15


  -Total Gradient:
     Atom            X                  Y                   Z
    ------   -----------------  -----------------  -----------------
       1        0.000000000000     0.000000000000    -3.042106010136
       2       -0.000000000000     0.000000000000     3.042128160022


*** tstop() called on Joses-MacBook-Pro-2.local at Thu Jul 17 12:01:02 2025
Module time:
	user time   =       2.63 seconds =       0.04 minutes
	system time =       0.86 seconds =       0.01 minutes
	total time  =          1 seconds =       0.02 minutes
Total time:
	user time   =      21.60 seconds =       0.36 minutes
	system time =       2.55 seconds =       0.04 minutes
	total time  =          3 seconds =       0.05 minutes

    			-----------------------------------------

    			 OPTKING 3.0: for geometry optimizations 

    			     By R.A. King, Bethel University     

    			        with contributions from          

    			    A.V. Copan, J. Cayton, A. Heide      

    			-----------------------------------------

    
	                            ===> Fragment 1 <== 

	 Z (Atomic Numbers)          Masses                          Geom                  
	      15.000000            30.973762          0.00000000  0.00000000  1.15181810   
	      16.000000            31.972071          0.00000000  0.00000000 -1.11585325   

	 - Coordinate -           - BOHR/RAD -       - ANG/DEG -
	 R(1,2)           =         2.267671           1.200000


	        --- Internal Coordinate Step in ANG or DEG, aJ/ANG or AJ/DEG ---
	-------------------------------------------------------------------------------
	           Coordinate      Previous         Force          Change          New 
	           ----------      --------        ------          ------        ------
	               R(1,2)       1.20000       25.06316        0.00739       1.20739
	-------------------------------------------------------------------------------

	                                 ==> Convergence Check <==                                  
    
	Measures of convergence in internal coordinates in au.
    
	Criteria marked as inactive (o), active & met (*), and active & unmet ( ).

	----------------------------------------------------------------------------------------------
	   Step    Total Energy     Delta E     Max Force     RMS Force      Max Disp      RMS Disp   
	----------------------------------------------------------------------------------------------
	  Convergence Criteria     1.00e-06 *    3.00e-04 *             o    1.20e-03 *             o
	----------------------------------------------------------------------------------------------
	     1    -738.31724168   -7.38e+02      3.04e+00      3.04e+00 o    1.40e-02      1.40e-02 o  ~
	----------------------------------------------------------------------------------------------

Next Geometry in Ang 
	Fragment 1 (Ang)

	    P   0.0000000000   0.0000000000   0.6132104296
	    S   0.0000000000   0.0000000000  -0.5941786534


    Structure for next step:
    Molecular point group: c2v
    Full point group: C_inf_v

    Geometry (in Angstrom), charge = -1, multiplicity = 3:

    P            0.000000000000     0.000000000000     0.613269024364
    S            0.000000000000     0.000000000000    -0.594120058661


Scratch directory: /tmp/
gradient() will perform analytic gradient computation.
   => Libint2 <=

    Primary   basis highest AM E, G, H:  6, 6, 3
    Auxiliary basis highest AM E, G, H:  7, 7, 4
    Onebody   basis highest AM E, G, H:  -, -, -
    Solid Harmonics ordering:            Gaussian

*** tstart() called on Joses-MacBook-Pro-2.local
*** at Thu Jul 17 12:01:02 2025

   => Loading Basis Set <=

    Name: CC-PVDZ
    Role: ORBITAL
    Keyword: BASIS
    atoms 1 entry P          line   538 file /Users/joseantoniorodriguesromero/anaconda3/share/psi4/basis/cc-pvdz.gbs 
    atoms 2 entry S          line   598 file /Users/joseantoniorodriguesromero/anaconda3/share/psi4/basis/cc-pvdz.gbs 


         ---------------------------------------------------------
                                   SCF
               by Justin Turney, Rob Parrish, Andy Simmonett
                          and Daniel G. A. Smith
                              UKS Reference
                        1 Threads,    500 MiB Core
         ---------------------------------------------------------

  ==> Geometry <==

    Molecular point group: c2v
    Full point group: C_inf_v

    Geometry (in Angstrom), charge = -1, multiplicity = 3:

       Center              X                  Y                   Z               Mass       
    ------------   -----------------  -----------------  -----------------  -----------------
         P            0.000000000000     0.000000000000     0.613269024364    30.973761998420
         S            0.000000000000     0.000000000000    -0.594120058661    31.972071174400

  Running in c2v symmetry.

  Rotational constants: A = ************  B =      0.73503  C =      0.73503 [cm^-1]
  Rotational constants: A = ************  B =  22035.60446  C =  22035.60446 [MHz]
  Nuclear repulsion =  105.187741339080091

  Charge       = -1
  Multiplicity = 3
  Electrons    = 32
  Nalpha       = 17
  Nbeta        = 15

  ==> Algorithm <==

  SCF Algorithm Type is DF.
  DIIS enabled.
  MOM disabled.
  Fractional occupation disabled.
  Guess Type is READ.
  Energy threshold   = 1.00e-08
  Density threshold  = 1.00e-08
  Integral threshold = 1.00e-12

  ==> Primary Basis <==

  Basis Set: CC-PVDZ
    Blend: CC-PVDZ
    Number of shells: 16
    Number of basis functions: 36
    Number of Cartesian functions: 38
    Spherical Harmonics?: true
    Max angular momentum: 2

  ==> DFT Potential <==

   => LibXC <=

    Version 6.2.2
    S. Lehtola, C. Steigemann, M. J.T. Oliveira, and M. A.L. Marques.,  SoftwareX 7, 1–5 (2018) (10.1016/j.softx.2017.11.002)

   => Composite Functional: B3LYP <= 

    B3LYP Hyb-GGA Exchange-Correlation Functional

    P. J. Stephens, F. J. Devlin, C. F. Chabalowski, and M. J. Frisch.,  J. Phys. Chem. 98, 11623 (1994) (10.1021/j100096a001)

    Deriv               =              1
    GGA                 =           TRUE
    Meta                =          FALSE

    Exchange Hybrid     =           TRUE
    MP2 Hybrid          =          FALSE

   => Exchange Functionals <=

    0.0800   Slater exchange
    0.7200         Becke 88

   => Exact (HF) Exchange <=

    0.2000               HF 

   => Correlation Functionals <=

    0.1900   Vosko, Wilk & Nusair (VWN5_RPA)
    0.8100   Lee, Yang & Parr

   => LibXC Density Thresholds  <==

    XC_HYB_GGA_XC_B3LYP:  1.00E-15 

   => Molecular Quadrature <=

    Radial Scheme          =       TREUTLER
    Pruning Scheme         =           NONE
    Nuclear Scheme         =       TREUTLER

    Blocking Scheme        =         OCTREE
    BS radius alpha        =              1
    Pruning alpha          =              1
    Radial Points          =             75
    Spherical Points       =            302
    Total Points           =          40692
    Total Blocks           =            376
    Max Points             =            241
    Max Functions          =             36
    Weights Tolerance      =       1.00E-15

   => Loading Basis Set <=

    Name: (CC-PVDZ AUX)
    Role: JKFIT
    Keyword: DF_BASIS_SCF
    atoms 1 entry P          line   519 file /Users/joseantoniorodriguesromero/anaconda3/share/psi4/basis/cc-pvdz-jkfit.gbs 
    atoms 2 entry S          line   593 file /Users/joseantoniorodriguesromero/anaconda3/share/psi4/basis/cc-pvdz-jkfit.gbs 

   => Loading Basis Set <=

    Name: CC-PVDZ
    Role: ORBITAL
    Keyword: BASIS
    atoms 1 entry P          line   538 file /Users/joseantoniorodriguesromero/anaconda3/share/psi4/basis/cc-pvdz.gbs 
    atoms 2 entry S          line   598 file /Users/joseantoniorodriguesromero/anaconda3/share/psi4/basis/cc-pvdz.gbs 

  Reading orbitals from file /tmp/triplet_PS.default.73429.180.npy, no projection.

  ==> Integral Setup <==

  DFHelper Memory: AOs need 0.003 GiB; user supplied 0.324 GiB. 
  Using in-core AOs.

  ==> MemDFJK: Density-Fitted J/K Matrices <==

    J tasked:                   Yes
    K tasked:                   Yes
    wK tasked:                   No
    OpenMP threads:               1
    Memory [MiB]:               331
    Algorithm:                 Core
    Schwarz Cutoff:           1E-12
    Mask sparsity (%):       0.0000
    Fitting Condition:        1E-10

   => Auxiliary Basis Set <=

  Basis Set: (CC-PVDZ AUX)
    Blend: CC-PVDZ-JKFIT
    Number of shells: 72
    Number of basis functions: 224
    Number of Cartesian functions: 260
    Spherical Harmonics?: true
    Max angular momentum: 3

  Cached 100.0% of DFT collocation blocks in 0.042 [GiB].

  Minimum eigenvalue in the overlap matrix is 3.5061015887E-03.
  Reciprocal condition number of the overlap matrix is 1.0993954320E-03.
    Using symmetric orthogonalization.

  ==> Pre-Iterations <==

  SCF Guess: Orbitals guess was supplied from a previous computation.

   -------------------------------------------------------
    Irrep   Nso     Nmo     Nalpha   Nbeta   Ndocc  Nsocc
   -------------------------------------------------------
     A1        18      18       9       9       9       0
     A2         2       2       0       0       0       0
     B1         8       8       4       3       3       1
     B2         8       8       4       3       3       1
   -------------------------------------------------------
    Total      36      36      17      15      15       2
   -------------------------------------------------------

  ==> Iterations <==

                           Total Energy        Delta E     RMS |[F,P]|

   @DF-UKS iter   0:  -738.35960705236778   -7.38360e+02   3.95728e-03 
   @DF-UKS iter   1:  -738.35903401674614    5.73036e-04   5.44367e-04 DIIS/ADIIS
   @DF-UKS iter   2:  -738.35904891286123   -1.48961e-05   4.95648e-04 DIIS/ADIIS/DAMP=1%
   @DF-UKS iter   3:  -738.36004082297131   -9.91910e-04   1.49873e-05 DIIS/DAMP=1%
   @DF-UKS iter   4:  -738.35912811810397    9.12705e-04   2.99437e-06 DIIS/DAMP=1%
   @DF-UKS iter   5:  -738.35912252948560    5.58862e-06   1.59831e-06 DIIS/DAMP=1%
   @DF-UKS iter   6:  -738.35912316412293   -6.34637e-07   1.19049e-07 DIIS/DAMP=1%
   @DF-UKS iter   7:  -738.35912160262637    1.56150e-06   1.43195e-08 DIIS/DAMP=1%
   @DF-UKS iter   8:  -738.35912169336132   -9.07349e-08   2.63962e-09 DIIS/DAMP=1%
   @DF-UKS iter   9:  -738.35912171653035   -2.31690e-08   2.29648e-10 DIIS/DAMP=1%
   @DF-UKS iter  10:  -738.35912171291420    3.61615e-09   3.40611e-11 DIIS/DAMP=1%
  Energy and wave function converged.


  ==> Post-Iterations <==

   Electrons on quadrature grid:
      Nalpha   =   16.9999974395 ; deviation = -2.561e-06
      Nbeta    =   14.9999975163 ; deviation = -2.484e-06
      Ntotal   =   31.9999949557 ; deviation = -5.044e-06 

   @Spin Contamination Metric:   3.738836612E-03
   @S^2 Expected:                2.000000000E+00
   @S^2 Observed:                2.003738837E+00
   @S   Expected:                1.000000000E+00
   @S   Observed:                1.000000000E+00

    Orbital Energies [Eh]
    ---------------------

    Alpha Occupied:                                                       

       1A1   -88.578818     2A1   -76.760666     3A1    -7.728911  
       4A1    -6.330851     5A1    -5.700859     1B2    -5.667256  
       1B1    -5.667256     6A1    -4.502559     2B1    -4.465029  
       2B2    -4.465029     7A1    -0.651594     8A1    -0.203846  
       3B2    -0.201519     3B1    -0.201519     9A1    -0.030900  
       4B2     0.157978     4B1     0.157978  

    Alpha Virtual:                                                        

      10A1     0.364688     5B1     0.481428     5B2     0.481428  
      11A1     0.520947     1A2     0.590281    12A1     0.590282  
      13A1     0.632141     6B2     0.756178     6B1     0.756178  
      14A1     0.806944     7B2     0.840753     7B1     0.840753  
       2A2     0.980056    15A1     0.980057    16A1     1.008564  
      17A1     1.332597     8B2     1.480771     8B1     1.480771  
      18A1     2.600340  

    Beta Occupied:                                                        

       1A1   -88.575872     2A1   -76.757095     3A1    -7.725925  
       4A1    -6.327110     5A1    -5.699181     1B2    -5.661372  
       1B1    -5.661372     6A1    -4.500651     2B1    -4.457564  
       2B2    -4.457564     7A1    -0.638521     3B2    -0.176257  
       3B1    -0.176257     8A1    -0.159756     9A1     0.001575  

    Beta Virtual:                                                         

       4B2     0.258516     4B1     0.258516    10A1     0.375122  
       5B1     0.500892     5B2     0.500892    11A1     0.531199  
       1A2     0.623261    12A1     0.623262    13A1     0.653444  
       6B2     0.791411     6B1     0.791411    14A1     0.826431  
       7B2     0.873867     7B1     0.873867    15A1     1.027128  
       2A2     1.031459    16A1     1.031459    17A1     1.349650  
       8B2     1.507418     8B1     1.507418    18A1     2.612319  

    Final Occupation by Irrep:
             A1    A2    B1    B2 
    DOCC [     9,    0,    3,    3 ]
    SOCC [     0,    0,    1,    1 ]
    NA   [     9,    0,    4,    4 ]
    NB   [     9,    0,    3,    3 ]

  @DF-UKS Final Energy:  -738.35912171291420

   => Energetics <=

    Nuclear Repulsion Energy =            105.1877413390800911
    One-Electron Energy =               -1236.7308935167438904
    Two-Electron Energy =                 433.3382080849309546
    DFT Exchange-Correlation Energy =     -40.1541776201813860
    Empirical Dispersion Energy =           0.0000000000000000
    VV10 Nonlocal Energy =                  0.0000000000000000
    Total Energy =                       -738.3591217129142024

  UHF NO Occupations:
  HONO-2 :    9 A1 1.9993365
  HONO-1 :    4 B2 1.0000000
  HONO-0 :    4 B1 1.0000000
  LUNO+0 :   10 A1 0.0006635
  LUNO+1 :    5 B1 0.0005405
  LUNO+2 :    5 B2 0.0005405
  LUNO+3 :   11 A1 0.0001150


Computation Completed


Properties will be evaluated at   0.000000,   0.000000,   0.000000 [a0]

Properties computed using the SCF density matrix


 Multipole Moments:

 ------------------------------------------------------------------------------------
     Multipole            Electronic (a.u.)      Nuclear  (a.u.)        Total (a.u.)
 ------------------------------------------------------------------------------------

 L = 1.  Multiply by 2.5417464519 to convert [e a0] to [Debye]
 Dipole X            :          0.0000000            0.0000000            0.0000000
 Dipole Y            :          0.0000000            0.0000000            0.0000000
 Dipole Z            :         -0.2031737           -0.5799297           -0.7831034
 Magnitude           :                                                    0.7831034

 ------------------------------------------------------------------------------------

*** tstop() called on Joses-MacBook-Pro-2.local at Thu Jul 17 12:01:03 2025
Module time:
	user time   =       8.19 seconds =       0.14 minutes
	system time =       1.86 seconds =       0.03 minutes
	total time  =          1 seconds =       0.02 minutes
Total time:
	user time   =      30.06 seconds =       0.50 minutes
	system time =       4.41 seconds =       0.07 minutes
	total time  =          4 seconds =       0.07 minutes

*** tstart() called on Joses-MacBook-Pro-2.local
*** at Thu Jul 17 12:01:03 2025


         ------------------------------------------------------------
                                   SCF GRAD                          
                          Rob Parrish, Justin Turney,                
                       Andy Simmonett, and Alex Sokolov              
         ------------------------------------------------------------

  ==> Geometry <==

    Molecular point group: c2v
    Full point group: C_inf_v

    Geometry (in Angstrom), charge = -1, multiplicity = 3:

       Center              X                  Y                   Z               Mass       
    ------------   -----------------  -----------------  -----------------  -----------------
         P            0.000000000000     0.000000000000     0.613269024364    30.973761998420
         S            0.000000000000     0.000000000000    -0.594120058661    31.972071174400

  Nuclear repulsion =  105.187741339080091

  ==> Basis Set <==

  Basis Set: CC-PVDZ
    Blend: CC-PVDZ
    Number of shells: 16
    Number of basis functions: 36
    Number of Cartesian functions: 38
    Spherical Harmonics?: true
    Max angular momentum: 2

  ==> DFJKGrad: Density-Fitted SCF Gradients <==

    Gradient:                    1
    J tasked:                  Yes
    K tasked:                  Yes
    wK tasked:                  No
    OpenMP threads:              1
    Integrals threads:           1
    Memory [MiB]:              375
    Schwarz Cutoff:          1E-12
    Fitting Condition:       1E-10

   => Auxiliary Basis Set <=

  Basis Set: (CC-PVDZ AUX)
    Blend: CC-PVDZ-JKFIT
    Number of shells: 72
    Number of basis functions: 224
    Number of Cartesian functions: 260
    Spherical Harmonics?: true
    Max angular momentum: 3

  ==> DFT Potential <==

   => LibXC <=

    Version 6.2.2
    S. Lehtola, C. Steigemann, M. J.T. Oliveira, and M. A.L. Marques.,  SoftwareX 7, 1–5 (2018) (10.1016/j.softx.2017.11.002)

   => Composite Functional: B3LYP <= 

    B3LYP Hyb-GGA Exchange-Correlation Functional

    P. J. Stephens, F. J. Devlin, C. F. Chabalowski, and M. J. Frisch.,  J. Phys. Chem. 98, 11623 (1994) (10.1021/j100096a001)

    Deriv               =              1
    GGA                 =           TRUE
    Meta                =          FALSE

    Exchange Hybrid     =           TRUE
    MP2 Hybrid          =          FALSE

   => Exchange Functionals <=

    0.0800   Slater exchange
    0.7200         Becke 88

   => Exact (HF) Exchange <=

    0.2000               HF 

   => Correlation Functionals <=

    0.1900   Vosko, Wilk & Nusair (VWN5_RPA)
    0.8100   Lee, Yang & Parr

   => LibXC Density Thresholds  <==

    XC_HYB_GGA_XC_B3LYP:  1.00E-15 

   => Molecular Quadrature <=

    Radial Scheme          =       TREUTLER
    Pruning Scheme         =           NONE
    Nuclear Scheme         =       TREUTLER

    Blocking Scheme        =         OCTREE
    BS radius alpha        =              1
    Pruning alpha          =              1
    Radial Points          =             75
    Spherical Points       =            302
    Total Points           =          40692
    Total Blocks           =            376
    Max Points             =            241
    Max Functions          =             36
    Weights Tolerance      =       1.00E-15


  -Total Gradient:
     Atom            X                  Y                   Z
    ------   -----------------  -----------------  -----------------
       1        0.000000000000     0.000000000000    -2.956810474682
       2       -0.000000000000     0.000000000000     2.956828642515


*** tstop() called on Joses-MacBook-Pro-2.local at Thu Jul 17 12:01:03 2025
Module time:
	user time   =       2.21 seconds =       0.04 minutes
	system time =       1.40 seconds =       0.02 minutes
	total time  =          0 seconds =       0.00 minutes
Total time:
	user time   =      32.27 seconds =       0.54 minutes
	system time =       5.81 seconds =       0.10 minutes
	total time  =          4 seconds =       0.07 minutes

    			-----------------------------------------

    			 OPTKING 3.0: for geometry optimizations 

    			     By R.A. King, Bethel University     

    			        with contributions from          

    			    A.V. Copan, J. Cayton, A. Heide      

    			-----------------------------------------

    
	                            ===> Fragment 1 <== 

	 Z (Atomic Numbers)          Masses                          Geom                  
	      15.000000            30.973762          0.00000000  0.00000000  1.15891050   
	      16.000000            31.972071          0.00000000  0.00000000 -1.12272420   

	 - Coordinate -           - BOHR/RAD -       - ANG/DEG -
	 R(1,2)           =         2.281635           1.207389


	        --- Internal Coordinate Step in ANG or DEG, aJ/ANG or AJ/DEG ---
	-------------------------------------------------------------------------------
	           Coordinate      Previous         Force          Change          New 
	           ----------      --------        ------          ------        ------
	               R(1,2)       1.20739       24.36042        0.01436       1.22175
	-------------------------------------------------------------------------------

	                                 ==> Convergence Check <==                                  
    
	Measures of convergence in internal coordinates in au.
    
	Criteria marked as inactive (o), active & met (*), and active & unmet ( ).

	----------------------------------------------------------------------------------------------
	   Step    Total Energy     Delta E     Max Force     RMS Force      Max Disp      RMS Disp   
	----------------------------------------------------------------------------------------------
	  Convergence Criteria     1.00e-06 *    3.00e-04 *             o    1.20e-03 *             o
	----------------------------------------------------------------------------------------------
	     2    -738.35912171   -4.19e-02      2.96e+00      2.96e+00 o    2.71e-02      2.71e-02 o  ~
	----------------------------------------------------------------------------------------------

Next Geometry in Ang 
	Fragment 1 (Ang)

	    P   0.0000000000   0.0000000000   0.6204470396
	    S   0.0000000000   0.0000000000  -0.6012980739


    Structure for next step:
    Molecular point group: c2v
    Full point group: C_inf_v

    Geometry (in Angstrom), charge = -1, multiplicity = 3:

    P            0.000000000000     0.000000000000     0.620560881623
    S            0.000000000000     0.000000000000    -0.601184231952


Scratch directory: /tmp/
gradient() will perform analytic gradient computation.
   => Libint2 <=

    Primary   basis highest AM E, G, H:  6, 6, 3
    Auxiliary basis highest AM E, G, H:  7, 7, 4
    Onebody   basis highest AM E, G, H:  -, -, -
    Solid Harmonics ordering:            Gaussian

*** tstart() called on Joses-MacBook-Pro-2.local
*** at Thu Jul 17 12:01:03 2025

   => Loading Basis Set <=

    Name: CC-PVDZ
    Role: ORBITAL
    Keyword: BASIS
    atoms 1 entry P          line   538 file /Users/joseantoniorodriguesromero/anaconda3/share/psi4/basis/cc-pvdz.gbs 
    atoms 2 entry S          line   598 file /Users/joseantoniorodriguesromero/anaconda3/share/psi4/basis/cc-pvdz.gbs 


         ---------------------------------------------------------
                                   SCF
               by Justin Turney, Rob Parrish, Andy Simmonett
                          and Daniel G. A. Smith
                              UKS Reference
                        1 Threads,    500 MiB Core
         ---------------------------------------------------------

  ==> Geometry <==

    Molecular point group: c2v
    Full point group: C_inf_v

    Geometry (in Angstrom), charge = -1, multiplicity = 3:

       Center              X                  Y                   Z               Mass       
    ------------   -----------------  -----------------  -----------------  -----------------
         P            0.000000000000     0.000000000000     0.620560881623    30.973761998420
         S            0.000000000000     0.000000000000    -0.601184231952    31.972071174400

  Running in c2v symmetry.

  Rotational constants: A = ************  B =      0.71786  C =      0.71786 [cm^-1]
  Rotational constants: A = ************  B =  21520.79132  C =  21520.79132 [MHz]
  Nuclear repulsion =  103.951740137665027

  Charge       = -1
  Multiplicity = 3
  Electrons    = 32
  Nalpha       = 17
  Nbeta        = 15

  ==> Algorithm <==

  SCF Algorithm Type is DF.
  DIIS enabled.
  MOM disabled.
  Fractional occupation disabled.
  Guess Type is READ.
  Energy threshold   = 1.00e-08
  Density threshold  = 1.00e-08
  Integral threshold = 1.00e-12

  ==> Primary Basis <==

  Basis Set: CC-PVDZ
    Blend: CC-PVDZ
    Number of shells: 16
    Number of basis functions: 36
    Number of Cartesian functions: 38
    Spherical Harmonics?: true
    Max angular momentum: 2

  ==> DFT Potential <==

   => LibXC <=

    Version 6.2.2
    S. Lehtola, C. Steigemann, M. J.T. Oliveira, and M. A.L. Marques.,  SoftwareX 7, 1–5 (2018) (10.1016/j.softx.2017.11.002)

   => Composite Functional: B3LYP <= 

    B3LYP Hyb-GGA Exchange-Correlation Functional

    P. J. Stephens, F. J. Devlin, C. F. Chabalowski, and M. J. Frisch.,  J. Phys. Chem. 98, 11623 (1994) (10.1021/j100096a001)

    Deriv               =              1
    GGA                 =           TRUE
    Meta                =          FALSE

    Exchange Hybrid     =           TRUE
    MP2 Hybrid          =          FALSE

   => Exchange Functionals <=

    0.0800   Slater exchange
    0.7200         Becke 88

   => Exact (HF) Exchange <=

    0.2000               HF 

   => Correlation Functionals <=

    0.1900   Vosko, Wilk & Nusair (VWN5_RPA)
    0.8100   Lee, Yang & Parr

   => LibXC Density Thresholds  <==

    XC_HYB_GGA_XC_B3LYP:  1.00E-15 

   => Molecular Quadrature <=

    Radial Scheme          =       TREUTLER
    Pruning Scheme         =           NONE
    Nuclear Scheme         =       TREUTLER

    Blocking Scheme        =         OCTREE
    BS radius alpha        =              1
    Pruning alpha          =              1
    Radial Points          =             75
    Spherical Points       =            302
    Total Points           =          40692
    Total Blocks           =            376
    Max Points             =            241
    Max Functions          =             36
    Weights Tolerance      =       1.00E-15

   => Loading Basis Set <=

    Name: (CC-PVDZ AUX)
    Role: JKFIT
    Keyword: DF_BASIS_SCF
    atoms 1 entry P          line   519 file /Users/joseantoniorodriguesromero/anaconda3/share/psi4/basis/cc-pvdz-jkfit.gbs 
    atoms 2 entry S          line   593 file /Users/joseantoniorodriguesromero/anaconda3/share/psi4/basis/cc-pvdz-jkfit.gbs 

   => Loading Basis Set <=

    Name: CC-PVDZ
    Role: ORBITAL
    Keyword: BASIS
    atoms 1 entry P          line   538 file /Users/joseantoniorodriguesromero/anaconda3/share/psi4/basis/cc-pvdz.gbs 
    atoms 2 entry S          line   598 file /Users/joseantoniorodriguesromero/anaconda3/share/psi4/basis/cc-pvdz.gbs 

  Reading orbitals from file /tmp/triplet_PS.default.73429.180.npy, no projection.

  ==> Integral Setup <==

  DFHelper Memory: AOs need 0.003 GiB; user supplied 0.324 GiB. 
  Using in-core AOs.

  ==> MemDFJK: Density-Fitted J/K Matrices <==

    J tasked:                   Yes
    K tasked:                   Yes
    wK tasked:                   No
    OpenMP threads:               1
    Memory [MiB]:               331
    Algorithm:                 Core
    Schwarz Cutoff:           1E-12
    Mask sparsity (%):       0.0000
    Fitting Condition:        1E-10

   => Auxiliary Basis Set <=

  Basis Set: (CC-PVDZ AUX)
    Blend: CC-PVDZ-JKFIT
    Number of shells: 72
    Number of basis functions: 224
    Number of Cartesian functions: 260
    Spherical Harmonics?: true
    Max angular momentum: 3

  Cached 100.0% of DFT collocation blocks in 0.042 [GiB].

  Minimum eigenvalue in the overlap matrix is 3.6351839510E-03.
  Reciprocal condition number of the overlap matrix is 1.1403162471E-03.
    Using symmetric orthogonalization.

  ==> Pre-Iterations <==

  SCF Guess: Orbitals guess was supplied from a previous computation.

   -------------------------------------------------------
    Irrep   Nso     Nmo     Nalpha   Nbeta   Ndocc  Nsocc
   -------------------------------------------------------
     A1        18      18       9       9       9       0
     A2         2       2       0       0       0       0
     B1         8       8       4       3       3       1
     B2         8       8       4       3       3       1
   -------------------------------------------------------
    Total      36      36      17      15      15       2
   -------------------------------------------------------

  ==> Iterations <==

                           Total Energy        Delta E     RMS |[F,P]|

   @DF-UKS iter   0:  -738.43849783625774   -7.38438e+02   7.56712e-03 
   @DF-UKS iter   1:  -738.43683200338660    1.66583e-03   1.03395e-03 DIIS/ADIIS
   @DF-UKS iter   2:  -738.43688623711580   -5.42337e-05   9.37962e-04 DIIS/ADIIS/DAMP=1%
   @DF-UKS iter   3:  -738.43887558948325   -1.98935e-03   3.00264e-05 DIIS/DAMP=1%
   @DF-UKS iter   4:  -738.43716100655911    1.71458e-03   6.16370e-06 DIIS/DAMP=1%
   @DF-UKS iter   5:  -738.43714861267813    1.23939e-05   3.11665e-06 DIIS/DAMP=1%
   @DF-UKS iter   6:  -738.43715113942892   -2.52675e-06   2.21030e-07 DIIS/DAMP=1%
   @DF-UKS iter   7:  -738.43714801386147    3.12557e-06   2.86679e-08 DIIS/DAMP=1%
   @DF-UKS iter   8:  -738.43714814365626   -1.29795e-07   5.05095e-09 DIIS/DAMP=1%
   @DF-UKS iter   9:  -738.43714818869194   -4.50357e-08   4.20583e-10 DIIS/DAMP=1%
   @DF-UKS iter  10:  -738.43714818266346    6.02847e-09   6.40670e-11 DIIS/DAMP=1%
  Energy and wave function converged.


  ==> Post-Iterations <==

   Electrons on quadrature grid:
      Nalpha   =   16.9999975492 ; deviation = -2.451e-06
      Nbeta    =   14.9999976015 ; deviation = -2.399e-06
      Ntotal   =   31.9999951507 ; deviation = -4.849e-06 

   @Spin Contamination Metric:   3.791142923E-03
   @S^2 Expected:                2.000000000E+00
   @S^2 Observed:                2.003791143E+00
   @S   Expected:                1.000000000E+00
   @S   Observed:                1.000000000E+00

    Orbital Energies [Eh]
    ---------------------

    Alpha Occupied:                                                       

       1A1   -88.575567     2A1   -76.757804     3A1    -7.721943  
       4A1    -6.323061     5A1    -5.693271     1B1    -5.661836  
       1B2    -5.661836     6A1    -4.494615     2B1    -4.459359  
       2B2    -4.459359     7A1    -0.650373     8A1    -0.205321  
       3B1    -0.196973     3B2    -0.196973     9A1    -0.033761  
       4B2     0.156187     4B1     0.156187  

    Alpha Virtual:                                                        

      10A1     0.364715     5B1     0.484000     5B2     0.484000  
      11A1     0.518186     1A2     0.594202    12A1     0.594203  
      13A1     0.631954     6B2     0.755821     6B1     0.755821  
      14A1     0.802376     7B1     0.837924     7B2     0.837924  
       2A2     0.976868    15A1     0.976869    16A1     1.007089  
      17A1     1.323788     8B1     1.470214     8B2     1.470214  
      18A1     2.549684  

    Beta Occupied:                                                        

       1A1   -88.572607     2A1   -76.754188     3A1    -7.718941  
       4A1    -6.319269     5A1    -5.691588     1B1    -5.655923  
       1B2    -5.655923     6A1    -4.492679     2B1    -4.451804  
       2B2    -4.451804     7A1    -0.637422     3B1    -0.171458  
       3B2    -0.171458     8A1    -0.161287     9A1    -0.001126  

    Beta Virtual:                                                         

       4B2     0.256699     4B1     0.256699    10A1     0.375253  
       5B1     0.503366     5B2     0.503366    11A1     0.528401  
       1A2     0.627535    12A1     0.627536    13A1     0.653220  
       6B2     0.791012     6B1     0.791012    14A1     0.821742  
       7B1     0.870851     7B2     0.870851    15A1     1.025770  
       2A2     1.028144    16A1     1.028145    17A1     1.340849  
       8B1     1.496880     8B2     1.496880    18A1     2.561745  

    Final Occupation by Irrep:
             A1    A2    B1    B2 
    DOCC [     9,    0,    3,    3 ]
    SOCC [     0,    0,    1,    1 ]
    NA   [     9,    0,    4,    4 ]
    NB   [     9,    0,    3,    3 ]

  @DF-UKS Final Energy:  -738.43714818266346

   => Energetics <=

    Nuclear Repulsion Energy =            103.9517401376650270
    One-Electron Energy =               -1234.5521913423235674
    Two-Electron Energy =                 432.3015931008585540
    DFT Exchange-Correlation Energy =     -40.1382900788634061
    Empirical Dispersion Energy =           0.0000000000000000
    VV10 Nonlocal Energy =                  0.0000000000000000
    Total Energy =                       -738.4371481826634636

  UHF NO Occupations:
  HONO-2 :    9 A1 1.9993269
  HONO-1 :    4 B2 1.0000000
  HONO-0 :    4 B1 1.0000000
  LUNO+0 :   10 A1 0.0006731
  LUNO+1 :    5 B1 0.0005483
  LUNO+2 :    5 B2 0.0005483
  LUNO+3 :   11 A1 0.0001163


Computation Completed


Properties will be evaluated at   0.000000,   0.000000,   0.000000 [a0]

Properties computed using the SCF density matrix


 Multipole Moments:

 ------------------------------------------------------------------------------------
     Multipole            Electronic (a.u.)      Nuclear  (a.u.)        Total (a.u.)
 ------------------------------------------------------------------------------------

 L = 1.  Multiply by 2.5417464519 to convert [e a0] to [Debye]
 Dipole X            :          0.0000000            0.0000000            0.0000000
 Dipole Y            :          0.0000000            0.0000000            0.0000000
 Dipole Z            :         -0.1879169           -0.5868251           -0.7747420
 Magnitude           :                                                    0.7747420

 ------------------------------------------------------------------------------------

*** tstop() called on Joses-MacBook-Pro-2.local at Thu Jul 17 12:01:04 2025
Module time:
	user time   =       7.82 seconds =       0.13 minutes
	system time =       1.70 seconds =       0.03 minutes
	total time  =          1 seconds =       0.02 minutes
Total time:
	user time   =      40.32 seconds =       0.67 minutes
	system time =       7.51 seconds =       0.13 minutes
	total time  =          5 seconds =       0.08 minutes

*** tstart() called on Joses-MacBook-Pro-2.local
*** at Thu Jul 17 12:01:04 2025


         ------------------------------------------------------------
                                   SCF GRAD                          
                          Rob Parrish, Justin Turney,                
                       Andy Simmonett, and Alex Sokolov              
         ------------------------------------------------------------

  ==> Geometry <==

    Molecular point group: c2v
    Full point group: C_inf_v

    Geometry (in Angstrom), charge = -1, multiplicity = 3:

       Center              X                  Y                   Z               Mass       
    ------------   -----------------  -----------------  -----------------  -----------------
         P            0.000000000000     0.000000000000     0.620560881623    30.973761998420
         S            0.000000000000     0.000000000000    -0.601184231952    31.972071174400

  Nuclear repulsion =  103.951740137665027

  ==> Basis Set <==

  Basis Set: CC-PVDZ
    Blend: CC-PVDZ
    Number of shells: 16
    Number of basis functions: 36
    Number of Cartesian functions: 38
    Spherical Harmonics?: true
    Max angular momentum: 2

  ==> DFJKGrad: Density-Fitted SCF Gradients <==

    Gradient:                    1
    J tasked:                  Yes
    K tasked:                  Yes
    wK tasked:                  No
    OpenMP threads:              1
    Integrals threads:           1
    Memory [MiB]:              375
    Schwarz Cutoff:          1E-12
    Fitting Condition:       1E-10

   => Auxiliary Basis Set <=

  Basis Set: (CC-PVDZ AUX)
    Blend: CC-PVDZ-JKFIT
    Number of shells: 72
    Number of basis functions: 224
    Number of Cartesian functions: 260
    Spherical Harmonics?: true
    Max angular momentum: 3

  ==> DFT Potential <==

   => LibXC <=

    Version 6.2.2
    S. Lehtola, C. Steigemann, M. J.T. Oliveira, and M. A.L. Marques.,  SoftwareX 7, 1–5 (2018) (10.1016/j.softx.2017.11.002)

   => Composite Functional: B3LYP <= 

    B3LYP Hyb-GGA Exchange-Correlation Functional

    P. J. Stephens, F. J. Devlin, C. F. Chabalowski, and M. J. Frisch.,  J. Phys. Chem. 98, 11623 (1994) (10.1021/j100096a001)

    Deriv               =              1
    GGA                 =           TRUE
    Meta                =          FALSE

    Exchange Hybrid     =           TRUE
    MP2 Hybrid          =          FALSE

   => Exchange Functionals <=

    0.0800   Slater exchange
    0.7200         Becke 88

   => Exact (HF) Exchange <=

    0.2000               HF 

   => Correlation Functionals <=

    0.1900   Vosko, Wilk & Nusair (VWN5_RPA)
    0.8100   Lee, Yang & Parr

   => LibXC Density Thresholds  <==

    XC_HYB_GGA_XC_B3LYP:  1.00E-15 

   => Molecular Quadrature <=

    Radial Scheme          =       TREUTLER
    Pruning Scheme         =           NONE
    Nuclear Scheme         =       TREUTLER

    Blocking Scheme        =         OCTREE
    BS radius alpha        =              1
    Pruning alpha          =              1
    Radial Points          =             75
    Spherical Points       =            302
    Total Points           =          40692
    Total Blocks           =            376
    Max Points             =            241
    Max Functions          =             36
    Weights Tolerance      =       1.00E-15


  -Total Gradient:
     Atom            X                  Y                   Z
    ------   -----------------  -----------------  -----------------
       1        0.000000000000     0.000000000000    -2.796683025870
       2        0.000000000000    -0.000000000000     2.796693903583


*** tstop() called on Joses-MacBook-Pro-2.local at Thu Jul 17 12:01:04 2025
Module time:
	user time   =       2.92 seconds =       0.05 minutes
	system time =       0.96 seconds =       0.02 minutes
	total time  =          0 seconds =       0.00 minutes
Total time:
	user time   =      43.25 seconds =       0.72 minutes
	system time =       8.47 seconds =       0.14 minutes
	total time  =          5 seconds =       0.08 minutes

    			-----------------------------------------

    			 OPTKING 3.0: for geometry optimizations 

    			     By R.A. King, Bethel University     

    			        with contributions from          

    			    A.V. Copan, J. Cayton, A. Heide      

    			-----------------------------------------

    
	                            ===> Fragment 1 <== 

	 Z (Atomic Numbers)          Masses                          Geom                  
	      15.000000            30.973762          0.00000000  0.00000000  1.17269011   
	      16.000000            31.972071          0.00000000  0.00000000 -1.13607355   

	 - Coordinate -           - BOHR/RAD -       - ANG/DEG -
	 R(1,2)           =         2.308764           1.221745


	        --- Internal Coordinate Step in ANG or DEG, aJ/ANG or AJ/DEG ---
	-------------------------------------------------------------------------------
	           Coordinate      Previous         Force          Change          New 
	           ----------      --------        ------          ------        ------
	               R(1,2)       1.22175       23.04114        0.05379       1.27554
	-------------------------------------------------------------------------------

	                                 ==> Convergence Check <==                                  
    
	Measures of convergence in internal coordinates in au.
    
	Criteria marked as inactive (o), active & met (*), and active & unmet ( ).

	----------------------------------------------------------------------------------------------
	   Step    Total Energy     Delta E     Max Force     RMS Force      Max Disp      RMS Disp   
	----------------------------------------------------------------------------------------------
	  Convergence Criteria     1.00e-06 *    3.00e-04 *             o    1.20e-03 *             o
	----------------------------------------------------------------------------------------------
	     3    -738.43714818   -7.80e-02      2.80e+00      2.80e+00 o    1.02e-01      1.02e-01 o  ~
	----------------------------------------------------------------------------------------------

Next Geometry in Ang 
	Fragment 1 (Ang)

	    P   0.0000000000   0.0000000000   0.6474571674
	    S   0.0000000000   0.0000000000  -0.6280805178


    Structure for next step:
    Molecular point group: c2v
    Full point group: C_inf_v

    Geometry (in Angstrom), charge = -1, multiplicity = 3:

    P            0.000000000000     0.000000000000     0.647883737527
    S            0.000000000000     0.000000000000    -0.627653947702


Scratch directory: /tmp/
gradient() will perform analytic gradient computation.
   => Libint2 <=

    Primary   basis highest AM E, G, H:  6, 6, 3
    Auxiliary basis highest AM E, G, H:  7, 7, 4
    Onebody   basis highest AM E, G, H:  -, -, -
    Solid Harmonics ordering:            Gaussian

*** tstart() called on Joses-MacBook-Pro-2.local
*** at Thu Jul 17 12:01:04 2025

   => Loading Basis Set <=

    Name: CC-PVDZ
    Role: ORBITAL
    Keyword: BASIS
    atoms 1 entry P          line   538 file /Users/joseantoniorodriguesromero/anaconda3/share/psi4/basis/cc-pvdz.gbs 
    atoms 2 entry S          line   598 file /Users/joseantoniorodriguesromero/anaconda3/share/psi4/basis/cc-pvdz.gbs 


         ---------------------------------------------------------
                                   SCF
               by Justin Turney, Rob Parrish, Andy Simmonett
                          and Daniel G. A. Smith
                              UKS Reference
                        1 Threads,    500 MiB Core
         ---------------------------------------------------------

  ==> Geometry <==

    Molecular point group: c2v
    Full point group: C_inf_v

    Geometry (in Angstrom), charge = -1, multiplicity = 3:

       Center              X                  Y                   Z               Mass       
    ------------   -----------------  -----------------  -----------------  -----------------
         P            0.000000000000     0.000000000000     0.647883737527    30.973761998420
         S            0.000000000000     0.000000000000    -0.627653947702    31.972071174400

  Running in c2v symmetry.

  Rotational constants: A = ************  B =      0.65859  C =      0.65859 [cm^-1]
  Rotational constants: A = ************  B =  19743.89666  C =  19743.89666 [MHz]
  Nuclear repulsion =   99.567838748728590

  Charge       = -1
  Multiplicity = 3
  Electrons    = 32
  Nalpha       = 17
  Nbeta        = 15

  ==> Algorithm <==

  SCF Algorithm Type is DF.
  DIIS enabled.
  MOM disabled.
  Fractional occupation disabled.
  Guess Type is READ.
  Energy threshold   = 1.00e-08
  Density threshold  = 1.00e-08
  Integral threshold = 1.00e-12

  ==> Primary Basis <==

  Basis Set: CC-PVDZ
    Blend: CC-PVDZ
    Number of shells: 16
    Number of basis functions: 36
    Number of Cartesian functions: 38
    Spherical Harmonics?: true
    Max angular momentum: 2

  ==> DFT Potential <==

   => LibXC <=

    Version 6.2.2
    S. Lehtola, C. Steigemann, M. J.T. Oliveira, and M. A.L. Marques.,  SoftwareX 7, 1–5 (2018) (10.1016/j.softx.2017.11.002)

   => Composite Functional: B3LYP <= 

    B3LYP Hyb-GGA Exchange-Correlation Functional

    P. J. Stephens, F. J. Devlin, C. F. Chabalowski, and M. J. Frisch.,  J. Phys. Chem. 98, 11623 (1994) (10.1021/j100096a001)

    Deriv               =              1
    GGA                 =           TRUE
    Meta                =          FALSE

    Exchange Hybrid     =           TRUE
    MP2 Hybrid          =          FALSE

   => Exchange Functionals <=

    0.0800   Slater exchange
    0.7200         Becke 88

   => Exact (HF) Exchange <=

    0.2000               HF 

   => Correlation Functionals <=

    0.1900   Vosko, Wilk & Nusair (VWN5_RPA)
    0.8100   Lee, Yang & Parr

   => LibXC Density Thresholds  <==

    XC_HYB_GGA_XC_B3LYP:  1.00E-15 

   => Molecular Quadrature <=

    Radial Scheme          =       TREUTLER
    Pruning Scheme         =           NONE
    Nuclear Scheme         =       TREUTLER

    Blocking Scheme        =         OCTREE
    BS radius alpha        =              1
    Pruning alpha          =              1
    Radial Points          =             75
    Spherical Points       =            302
    Total Points           =          40692
    Total Blocks           =            372
    Max Points             =            256
    Max Functions          =             36
    Weights Tolerance      =       1.00E-15

   => Loading Basis Set <=

    Name: (CC-PVDZ AUX)
    Role: JKFIT
    Keyword: DF_BASIS_SCF
    atoms 1 entry P          line   519 file /Users/joseantoniorodriguesromero/anaconda3/share/psi4/basis/cc-pvdz-jkfit.gbs 
    atoms 2 entry S          line   593 file /Users/joseantoniorodriguesromero/anaconda3/share/psi4/basis/cc-pvdz-jkfit.gbs 

   => Loading Basis Set <=

    Name: CC-PVDZ
    Role: ORBITAL
    Keyword: BASIS
    atoms 1 entry P          line   538 file /Users/joseantoniorodriguesromero/anaconda3/share/psi4/basis/cc-pvdz.gbs 
    atoms 2 entry S          line   598 file /Users/joseantoniorodriguesromero/anaconda3/share/psi4/basis/cc-pvdz.gbs 

  Reading orbitals from file /tmp/triplet_PS.default.73429.180.npy, no projection.

  ==> Integral Setup <==

  DFHelper Memory: AOs need 0.003 GiB; user supplied 0.324 GiB. 
  Using in-core AOs.

  ==> MemDFJK: Density-Fitted J/K Matrices <==

    J tasked:                   Yes
    K tasked:                   Yes
    wK tasked:                   No
    OpenMP threads:               1
    Memory [MiB]:               331
    Algorithm:                 Core
    Schwarz Cutoff:           1E-12
    Mask sparsity (%):       0.0000
    Fitting Condition:        1E-10

   => Auxiliary Basis Set <=

  Basis Set: (CC-PVDZ AUX)
    Blend: CC-PVDZ-JKFIT
    Number of shells: 72
    Number of basis functions: 224
    Number of Cartesian functions: 260
    Spherical Harmonics?: true
    Max angular momentum: 3

  Cached 100.0% of DFT collocation blocks in 0.042 [GiB].

  Minimum eigenvalue in the overlap matrix is 4.1555789222E-03.
  Reciprocal condition number of the overlap matrix is 1.3059382616E-03.
    Using symmetric orthogonalization.

  ==> Pre-Iterations <==

  SCF Guess: Orbitals guess was supplied from a previous computation.

   -------------------------------------------------------
    Irrep   Nso     Nmo     Nalpha   Nbeta   Ndocc  Nsocc
   -------------------------------------------------------
     A1        18      18       9       9       9       0
     A2         2       2       0       0       0       0
     B1         8       8       4       3       3       1
     B2         8       8       4       3       3       1
   -------------------------------------------------------
    Total      36      36      17      15      15       2
   -------------------------------------------------------

  ==> Iterations <==

                           Total Energy        Delta E     RMS |[F,P]|

   @DF-UKS iter   0:  -738.70615759554266   -7.38706e+02   2.71957e-02 
   @DF-UKS iter   1:  -738.68938094616556    1.67766e-02   3.64887e-03 DIIS/ADIIS
   @DF-UKS iter   2:  -738.69008617740531   -7.05231e-04   3.26253e-03 DIIS/ADIIS/DAMP=1%
   @DF-UKS iter   3:  -738.69914361168924   -9.05743e-03   1.32354e-04 DIIS/ADIIS/DAMP=1%
   @DF-UKS iter   4:  -738.69337591479621    5.76770e-03   3.14638e-05 DIIS/DAMP=1%
   @DF-UKS iter   5:  -738.69330089815833    7.50166e-05   1.06752e-05 DIIS/DAMP=1%
   @DF-UKS iter   6:  -738.69332302619785   -2.21280e-05   7.05806e-07 DIIS/DAMP=1%
   @DF-UKS iter   7:  -738.69331255545012    1.04707e-05   1.23505e-07 DIIS/DAMP=1%
   @DF-UKS iter   8:  -738.69331244319710    1.12253e-07   2.02718e-08 DIIS/DAMP=1%
   @DF-UKS iter   9:  -738.69331260408433   -1.60887e-07   1.39750e-09 DIIS/DAMP=1%
   @DF-UKS iter  10:  -738.69331259614057    7.94375e-09   2.36843e-10 DIIS/DAMP=1%
  Energy and wave function converged.


  ==> Post-Iterations <==

   Electrons on quadrature grid:
      Nalpha   =   16.9999985502 ; deviation = -1.450e-06
      Nbeta    =   14.9999984938 ; deviation = -1.506e-06
      Ntotal   =   31.9999970439 ; deviation = -2.956e-06 

   @Spin Contamination Metric:   3.973796556E-03
   @S^2 Expected:                2.000000000E+00
   @S^2 Observed:                2.003973797E+00
   @S   Expected:                1.000000000E+00
   @S   Observed:                1.000000000E+00

    Orbital Energies [Eh]
    ---------------------

    Alpha Occupied:                                                       

       1A1   -88.568312     2A1   -76.751873     3A1    -7.701599  
       4A1    -6.300307     5A1    -5.670533     1B1    -5.646362  
       1B2    -5.646362     6A1    -4.470522     2B1    -4.443158  
       2B2    -4.443158     7A1    -0.644462     8A1    -0.210904  
       3B2    -0.181139     3B1    -0.181139     9A1    -0.043296  
       4B2     0.149167     4B1     0.149167  

    Alpha Virtual:                                                        

      10A1     0.364685     5B2     0.493791     5B1     0.493791  
      11A1     0.509157     1A2     0.607890    12A1     0.607891  
      13A1     0.631196     6B2     0.753731     6B1     0.753731  
      14A1     0.785589     7B2     0.827410     7B1     0.827410  
       2A2     0.964980    15A1     0.964981    16A1     1.002469  
      17A1     1.294050     8B2     1.431200     8B1     1.431200  
      18A1     2.386365  

    Beta Occupied:                                                        

       1A1   -88.565297     2A1   -76.748091     3A1    -7.698537  
       4A1    -6.296324     5A1    -5.668831     1B1    -5.640336  
       1B2    -5.640336     6A1    -4.468478     2B1    -4.435268  
       2B2    -4.435268     7A1    -0.631774     8A1    -0.167031  
       3B2    -0.154639     3B1    -0.154639     9A1    -0.010268  

    Beta Virtual:                                                         

       4B2     0.249618     4B1     0.249618    10A1     0.375688  
       5B2     0.512792     5B1     0.512792    11A1     0.519223  
       1A2     0.642625    12A1     0.642626    13A1     0.652298  
       6B2     0.788813     6B1     0.788813    14A1     0.804446  
       7B2     0.859592     7B1     0.859592     2A2     1.015772  
      15A1     1.015773    16A1     1.021577    17A1     1.311105  
       8B2     1.457924     8B1     1.457924    18A1     2.398734  

    Final Occupation by Irrep:
             A1    A2    B1    B2 
    DOCC [     9,    0,    3,    3 ]
    SOCC [     0,    0,    1,    1 ]
    NA   [     9,    0,    4,    4 ]
    NB   [     9,    0,    3,    3 ]

  @DF-UKS Final Energy:  -738.69331259614057

   => Energetics <=

    Nuclear Repulsion Energy =             99.5678387487285903
    One-Electron Energy =               -1226.7035447071248200
    Two-Electron Energy =                 428.5225628818856194
    DFT Exchange-Correlation Energy =     -40.0801695196298837
    Empirical Dispersion Energy =           0.0000000000000000
    VV10 Nonlocal Energy =                  0.0000000000000000
    Total Energy =                       -738.6933125961405722

  UHF NO Occupations:
  HONO-2 :    9 A1 1.9992893
  HONO-1 :    4 B1 1.0000000
  HONO-0 :    4 B2 1.0000000
  LUNO+0 :   10 A1 0.0007107
  LUNO+1 :    5 B2 0.0005734
  LUNO+2 :    5 B1 0.0005734
  LUNO+3 :   11 A1 0.0001204


Computation Completed


Properties will be evaluated at   0.000000,   0.000000,   0.000000 [a0]

Properties computed using the SCF density matrix


 Multipole Moments:

 ------------------------------------------------------------------------------------
     Multipole            Electronic (a.u.)      Nuclear  (a.u.)        Total (a.u.)
 ------------------------------------------------------------------------------------

 L = 1.  Multiply by 2.5417464519 to convert [e a0] to [Debye]
 Dipole X            :          0.0000000            0.0000000            0.0000000
 Dipole Y            :          0.0000000            0.0000000            0.0000000
 Dipole Z            :         -0.1282920           -0.6126626           -0.7409547
 Magnitude           :                                                    0.7409547

 ------------------------------------------------------------------------------------

*** tstop() called on Joses-MacBook-Pro-2.local at Thu Jul 17 12:01:05 2025
Module time:
	user time   =       8.64 seconds =       0.14 minutes
	system time =       1.41 seconds =       0.02 minutes
	total time  =          1 seconds =       0.02 minutes
Total time:
	user time   =      52.14 seconds =       0.87 minutes
	system time =       9.88 seconds =       0.16 minutes
	total time  =          6 seconds =       0.10 minutes

*** tstart() called on Joses-MacBook-Pro-2.local
*** at Thu Jul 17 12:01:05 2025


         ------------------------------------------------------------
                                   SCF GRAD                          
                          Rob Parrish, Justin Turney,                
                       Andy Simmonett, and Alex Sokolov              
         ------------------------------------------------------------

  ==> Geometry <==

    Molecular point group: c2v
    Full point group: C_inf_v

    Geometry (in Angstrom), charge = -1, multiplicity = 3:

       Center              X                  Y                   Z               Mass       
    ------------   -----------------  -----------------  -----------------  -----------------
         P            0.000000000000     0.000000000000     0.647883737527    30.973761998420
         S            0.000000000000     0.000000000000    -0.627653947702    31.972071174400

  Nuclear repulsion =   99.567838748728590

  ==> Basis Set <==

  Basis Set: CC-PVDZ
    Blend: CC-PVDZ
    Number of shells: 16
    Number of basis functions: 36
    Number of Cartesian functions: 38
    Spherical Harmonics?: true
    Max angular momentum: 2

  ==> DFJKGrad: Density-Fitted SCF Gradients <==

    Gradient:                    1
    J tasked:                  Yes
    K tasked:                  Yes
    wK tasked:                  No
    OpenMP threads:              1
    Integrals threads:           1
    Memory [MiB]:              375
    Schwarz Cutoff:          1E-12
    Fitting Condition:       1E-10

   => Auxiliary Basis Set <=

  Basis Set: (CC-PVDZ AUX)
    Blend: CC-PVDZ-JKFIT
    Number of shells: 72
    Number of basis functions: 224
    Number of Cartesian functions: 260
    Spherical Harmonics?: true
    Max angular momentum: 3

  ==> DFT Potential <==

   => LibXC <=

    Version 6.2.2
    S. Lehtola, C. Steigemann, M. J.T. Oliveira, and M. A.L. Marques.,  SoftwareX 7, 1–5 (2018) (10.1016/j.softx.2017.11.002)

   => Composite Functional: B3LYP <= 

    B3LYP Hyb-GGA Exchange-Correlation Functional

    P. J. Stephens, F. J. Devlin, C. F. Chabalowski, and M. J. Frisch.,  J. Phys. Chem. 98, 11623 (1994) (10.1021/j100096a001)

    Deriv               =              1
    GGA                 =           TRUE
    Meta                =          FALSE

    Exchange Hybrid     =           TRUE
    MP2 Hybrid          =          FALSE

   => Exchange Functionals <=

    0.0800   Slater exchange
    0.7200         Becke 88

   => Exact (HF) Exchange <=

    0.2000               HF 

   => Correlation Functionals <=

    0.1900   Vosko, Wilk & Nusair (VWN5_RPA)
    0.8100   Lee, Yang & Parr

   => LibXC Density Thresholds  <==

    XC_HYB_GGA_XC_B3LYP:  1.00E-15 

   => Molecular Quadrature <=

    Radial Scheme          =       TREUTLER
    Pruning Scheme         =           NONE
    Nuclear Scheme         =       TREUTLER

    Blocking Scheme        =         OCTREE
    BS radius alpha        =              1
    Pruning alpha          =              1
    Radial Points          =             75
    Spherical Points       =            302
    Total Points           =          40692
    Total Blocks           =            372
    Max Points             =            256
    Max Functions          =             36
    Weights Tolerance      =       1.00E-15


  -Total Gradient:
     Atom            X                  Y                   Z
    ------   -----------------  -----------------  -----------------
       1        0.000000000000     0.000000000000    -2.259281417926
       2       -0.000000000000    -0.000000000000     2.259258218034


*** tstop() called on Joses-MacBook-Pro-2.local at Thu Jul 17 12:01:05 2025
Module time:
	user time   =       2.73 seconds =       0.05 minutes
	system time =       0.66 seconds =       0.01 minutes
	total time  =          0 seconds =       0.00 minutes
Total time:
	user time   =      54.87 seconds =       0.91 minutes
	system time =      10.54 seconds =       0.18 minutes
	total time  =          6 seconds =       0.10 minutes

    			-----------------------------------------

    			 OPTKING 3.0: for geometry optimizations 

    			     By R.A. King, Bethel University     

    			        with contributions from          

    			    A.V. Copan, J. Cayton, A. Heide      

    			-----------------------------------------

    
	                            ===> Fragment 1 <== 

	 Z (Atomic Numbers)          Masses                          Geom                  
	      15.000000            30.973762          0.00000000  0.00000000  1.22432283   
	      16.000000            31.972071          0.00000000  0.00000000 -1.18609406   

	 - Coordinate -           - BOHR/RAD -       - ANG/DEG -
	 R(1,2)           =         2.410417           1.275538


	        --- Internal Coordinate Step in ANG or DEG, aJ/ANG or AJ/DEG ---
	-------------------------------------------------------------------------------
	           Coordinate      Previous         Force          Change          New 
	           ----------      --------        ------          ------        ------
	               R(1,2)       1.27554       18.61350        0.18992       1.46546
	-------------------------------------------------------------------------------

	                                 ==> Convergence Check <==                                  
    
	Measures of convergence in internal coordinates in au.
    
	Criteria marked as inactive (o), active & met (*), and active & unmet ( ).

	----------------------------------------------------------------------------------------------
	   Step    Total Energy     Delta E     Max Force     RMS Force      Max Disp      RMS Disp   
	----------------------------------------------------------------------------------------------
	  Convergence Criteria     1.00e-06 *    3.00e-04 *             o    1.20e-03 *             o
	----------------------------------------------------------------------------------------------
	     4    -738.69331260   -2.56e-01      2.26e+00      2.26e+00 o    3.59e-01      3.59e-01 o  ~
	----------------------------------------------------------------------------------------------

Next Geometry in Ang 
	Fragment 1 (Ang)

	    P   0.0000000000   0.0000000000   0.7428434771
	    S   0.0000000000   0.0000000000  -0.7226136873


    Structure for next step:
    Molecular point group: c2v
    Full point group: C_inf_v

    Geometry (in Angstrom), charge = -1, multiplicity = 3:

    P            0.000000000000     0.000000000000     0.744349520904
    S            0.000000000000     0.000000000000    -0.721107643554


Scratch directory: /tmp/
gradient() will perform analytic gradient computation.
   => Libint2 <=

    Primary   basis highest AM E, G, H:  6, 6, 3
    Auxiliary basis highest AM E, G, H:  7, 7, 4
    Onebody   basis highest AM E, G, H:  -, -, -
    Solid Harmonics ordering:            Gaussian

*** tstart() called on Joses-MacBook-Pro-2.local
*** at Thu Jul 17 12:01:05 2025

   => Loading Basis Set <=

    Name: CC-PVDZ
    Role: ORBITAL
    Keyword: BASIS
    atoms 1 entry P          line   538 file /Users/joseantoniorodriguesromero/anaconda3/share/psi4/basis/cc-pvdz.gbs 
    atoms 2 entry S          line   598 file /Users/joseantoniorodriguesromero/anaconda3/share/psi4/basis/cc-pvdz.gbs 


         ---------------------------------------------------------
                                   SCF
               by Justin Turney, Rob Parrish, Andy Simmonett
                          and Daniel G. A. Smith
                              UKS Reference
                        1 Threads,    500 MiB Core
         ---------------------------------------------------------

  ==> Geometry <==

    Molecular point group: c2v
    Full point group: C_inf_v

    Geometry (in Angstrom), charge = -1, multiplicity = 3:

       Center              X                  Y                   Z               Mass       
    ------------   -----------------  -----------------  -----------------  -----------------
         P            0.000000000000     0.000000000000     0.744349520904    30.973761998420
         S            0.000000000000     0.000000000000    -0.721107643554    31.972071174400

  Running in c2v symmetry.

  Rotational constants: A = ************  B =      0.49894  C =      0.49894 [cm^-1]
  Rotational constants: A = ************  B =  14957.98870  C =  14957.98870 [MHz]
  Nuclear repulsion =   86.664102944133404

  Charge       = -1
  Multiplicity = 3
  Electrons    = 32
  Nalpha       = 17
  Nbeta        = 15

  ==> Algorithm <==

  SCF Algorithm Type is DF.
  DIIS enabled.
  MOM disabled.
  Fractional occupation disabled.
  Guess Type is READ.
  Energy threshold   = 1.00e-08
  Density threshold  = 1.00e-08
[...]
	   Step    Total Energy     Delta E     Max Force     RMS Force      Max Disp      RMS Disp   
	----------------------------------------------------------------------------------------------
	  Convergence Criteria     1.00e-06 *    3.00e-04 *             o    1.20e-03 *             o
	----------------------------------------------------------------------------------------------
	    14    -739.60245558   -1.36e-05      6.96e-04      6.96e-04 o    2.83e-03      2.83e-03 o  ~
	----------------------------------------------------------------------------------------------

Next Geometry in Ang 
	Fragment 1 (Ang)

	    P   0.0000000000   0.0000000000   1.0392156935
	    S   0.0000000000   0.0000000000  -1.0067901688


    Structure for next step:
    Molecular point group: c2v
    Full point group: C_inf_v

    Geometry (in Angstrom), charge = -1, multiplicity = 3:

    P            0.000000000000     0.000000000000     1.039227566886
    S            0.000000000000     0.000000000000    -1.006778295449


Scratch directory: /tmp/
gradient() will perform analytic gradient computation.
   => Libint2 <=

    Primary   basis highest AM E, G, H:  6, 6, 3
    Auxiliary basis highest AM E, G, H:  7, 7, 4
    Onebody   basis highest AM E, G, H:  -, -, -
    Solid Harmonics ordering:            Gaussian

*** tstart() called on Joses-MacBook-Pro-2.local
*** at Thu Jul 17 12:01:19 2025

   => Loading Basis Set <=

    Name: CC-PVDZ
    Role: ORBITAL
    Keyword: BASIS
    atoms 1 entry P          line   538 file /Users/joseantoniorodriguesromero/anaconda3/share/psi4/basis/cc-pvdz.gbs 
    atoms 2 entry S          line   598 file /Users/joseantoniorodriguesromero/anaconda3/share/psi4/basis/cc-pvdz.gbs 


         ---------------------------------------------------------
                                   SCF
               by Justin Turney, Rob Parrish, Andy Simmonett
                          and Daniel G. A. Smith
                              UKS Reference
                        1 Threads,    500 MiB Core
         ---------------------------------------------------------

  ==> Geometry <==

    Molecular point group: c2v
    Full point group: C_inf_v

    Geometry (in Angstrom), charge = -1, multiplicity = 3:

       Center              X                  Y                   Z               Mass       
    ------------   -----------------  -----------------  -----------------  -----------------
         P            0.000000000000     0.000000000000     1.039227566886    30.973761998420
         S            0.000000000000     0.000000000000    -1.006778295449    31.972071174400

  Running in c2v symmetry.

  Rotational constants: A = ************  B =      0.25597  C =      0.25597 [cm^-1]
  Rotational constants: A = ************  B =   7673.71579  C =   7673.71579 [MHz]
  Nuclear repulsion =   62.073395242313843

  Charge       = -1
  Multiplicity = 3
  Electrons    = 32
  Nalpha       = 17
  Nbeta        = 15

  ==> Algorithm <==

  SCF Algorithm Type is DF.
  DIIS enabled.
  MOM disabled.
  Fractional occupation disabled.
  Guess Type is READ.
  Energy threshold   = 1.00e-08
  Density threshold  = 1.00e-08
  Integral threshold = 1.00e-12

  ==> Primary Basis <==

  Basis Set: CC-PVDZ
    Blend: CC-PVDZ
    Number of shells: 16
    Number of basis functions: 36
    Number of Cartesian functions: 38
    Spherical Harmonics?: true
    Max angular momentum: 2

  ==> DFT Potential <==

   => LibXC <=

    Version 6.2.2
    S. Lehtola, C. Steigemann, M. J.T. Oliveira, and M. A.L. Marques.,  SoftwareX 7, 1–5 (2018) (10.1016/j.softx.2017.11.002)

   => Composite Functional: B3LYP <= 

    B3LYP Hyb-GGA Exchange-Correlation Functional

    P. J. Stephens, F. J. Devlin, C. F. Chabalowski, and M. J. Frisch.,  J. Phys. Chem. 98, 11623 (1994) (10.1021/j100096a001)

    Deriv               =              1
    GGA                 =           TRUE
    Meta                =          FALSE

    Exchange Hybrid     =           TRUE
    MP2 Hybrid          =          FALSE

   => Exchange Functionals <=

    0.0800   Slater exchange
    0.7200         Becke 88

   => Exact (HF) Exchange <=

    0.2000               HF 

   => Correlation Functionals <=

    0.1900   Vosko, Wilk & Nusair (VWN5_RPA)
    0.8100   Lee, Yang & Parr

   => LibXC Density Thresholds  <==

    XC_HYB_GGA_XC_B3LYP:  1.00E-15 

   => Molecular Quadrature <=

    Radial Scheme          =       TREUTLER
    Pruning Scheme         =           NONE
    Nuclear Scheme         =       TREUTLER

    Blocking Scheme        =         OCTREE
    BS radius alpha        =              1
    Pruning alpha          =              1
    Radial Points          =             75
    Spherical Points       =            302
    Total Points           =          40834
    Total Blocks           =            364
    Max Points             =            256
    Max Functions          =             36
    Weights Tolerance      =       1.00E-15

   => Loading Basis Set <=

    Name: (CC-PVDZ AUX)
    Role: JKFIT
    Keyword: DF_BASIS_SCF
    atoms 1 entry P          line   519 file /Users/joseantoniorodriguesromero/anaconda3/share/psi4/basis/cc-pvdz-jkfit.gbs 
    atoms 2 entry S          line   593 file /Users/joseantoniorodriguesromero/anaconda3/share/psi4/basis/cc-pvdz-jkfit.gbs 

   => Loading Basis Set <=

    Name: CC-PVDZ
    Role: ORBITAL
    Keyword: BASIS
    atoms 1 entry P          line   538 file /Users/joseantoniorodriguesromero/anaconda3/share/psi4/basis/cc-pvdz.gbs 
    atoms 2 entry S          line   598 file /Users/joseantoniorodriguesromero/anaconda3/share/psi4/basis/cc-pvdz.gbs 

  Reading orbitals from file /tmp/triplet_PS.default.73429.180.npy, no projection.

  ==> Integral Setup <==

  DFHelper Memory: AOs need 0.003 GiB; user supplied 0.324 GiB. 
  Using in-core AOs.

  ==> MemDFJK: Density-Fitted J/K Matrices <==

    J tasked:                   Yes
    K tasked:                   Yes
    wK tasked:                   No
    OpenMP threads:               1
    Memory [MiB]:               332
    Algorithm:                 Core
    Schwarz Cutoff:           1E-12
    Mask sparsity (%):       0.0000
    Fitting Condition:        1E-10

   => Auxiliary Basis Set <=

  Basis Set: (CC-PVDZ AUX)
    Blend: CC-PVDZ-JKFIT
    Number of shells: 72
    Number of basis functions: 224
    Number of Cartesian functions: 260
    Spherical Harmonics?: true
    Max angular momentum: 3

  Cached 100.0% of DFT collocation blocks in 0.042 [GiB].

  Minimum eigenvalue in the overlap matrix is 2.0884276167E-02.
  Reciprocal condition number of the overlap matrix is 7.3794068626E-03.
    Using symmetric orthogonalization.

  ==> Pre-Iterations <==

  SCF Guess: Orbitals guess was supplied from a previous computation.

   -------------------------------------------------------
    Irrep   Nso     Nmo     Nalpha   Nbeta   Ndocc  Nsocc
   -------------------------------------------------------
     A1        18      18       9       9       9       0
     A2         2       2       0       0       0       0
     B1         8       8       4       3       3       1
     B2         8       8       4       3       3       1
   -------------------------------------------------------
    Total      36      36      17      15      15       2
   -------------------------------------------------------

  ==> Iterations <==

                           Total Energy        Delta E     RMS |[F,P]|

   @DF-UKS iter   0:  -739.60202526496073   -7.39602e+02   1.31460e-04 
   @DF-UKS iter   1:  -739.60245647842180   -4.31213e-04   2.57086e-05 DIIS
   @DF-UKS iter   2:  -739.60245624033837    2.38083e-07   3.70233e-05 DIIS/DAMP=1%
   @DF-UKS iter   3:  -739.60242753878924    2.87015e-05   1.04792e-05 DIIS/DAMP=1%
   @DF-UKS iter   4:  -739.60245485558039   -2.73168e-05   6.57972e-07 DIIS/DAMP=1%
   @DF-UKS iter   5:  -739.60245713388156   -2.27830e-06   1.82325e-07 DIIS/DAMP=1%
   @DF-UKS iter   6:  -739.60245655499091    5.78891e-07   5.42245e-08 DIIS/DAMP=1%
   @DF-UKS iter   7:  -739.60245674277598   -1.87785e-07   4.18993e-09 DIIS/DAMP=1%
   @DF-UKS iter   8:  -739.60245670808229    3.46937e-08   1.31783e-09 DIIS/DAMP=1%
   @DF-UKS iter   9:  -739.60245671060557   -2.52328e-09   2.40587e-10 DIIS/DAMP=1%
  Energy and wave function converged.


  ==> Post-Iterations <==

   Electrons on quadrature grid:
      Nalpha   =   16.9999997525 ; deviation = -2.475e-07
      Nbeta    =   14.9999997488 ; deviation = -2.512e-07
      Ntotal   =   31.9999995013 ; deviation = -4.987e-07 

   @Spin Contamination Metric:   4.577297378E-03
   @S^2 Expected:                2.000000000E+00
   @S^2 Observed:                2.004577297E+00
   @S   Expected:                1.000000000E+00
   @S   Observed:                1.000000000E+00

    Orbital Energies [Eh]
    ---------------------

    Alpha Occupied:                                                       

       1A1   -88.617448     2A1   -76.846775     3A1    -7.678401  
       4A1    -6.314854     5A1    -5.640402     1B1    -5.638394  
       1B2    -5.638394     2B2    -4.477523     2B1    -4.477523  
       6A1    -4.475156     7A1    -0.476199     8A1    -0.289756  
       9A1    -0.080608     3B2    -0.064918     3B1    -0.064918  
       4B2     0.046867     4B1     0.046867  

    Alpha Virtual:                                                        

      10A1     0.251489    11A1     0.529414    12A1     0.597560  
       5B1     0.618062     5B2     0.618062     6B2     0.662997  
       6B1     0.662997    13A1     0.665229     1A2     0.687106  
      14A1     0.687107     7B2     0.741729     7B1     0.741729  
       2A2     0.864430    15A1     0.864431    16A1     0.879205  
      17A1     0.991815     8B2     1.046275     8B1     1.046275  
      18A1     1.391684  

    Beta Occupied:                                                        

       1A1   -88.614313     2A1   -76.841060     3A1    -7.675232  
       4A1    -6.308772     5A1    -5.638795     1B1    -5.632126  
       1B2    -5.632126     6A1    -4.471806     2B2    -4.465809  
       2B1    -4.465809     7A1    -0.454793     8A1    -0.239986  
       9A1    -0.061158     3B2    -0.027419     3B1    -0.027419  

    Beta Virtual:                                                         

       4B1     0.147399     4B2     0.147399    10A1     0.269332  
      11A1     0.541373    12A1     0.615928     5B1     0.644813  
       5B2     0.644813    13A1     0.675319     6B1     0.698149  
       6B2     0.698149    14A1     0.749398     1A2     0.749398  
       7B2     0.758516     7B1     0.758516    15A1     0.894954  
       2A2     0.898711    16A1     0.898712    17A1     1.007678  
       8B2     1.070918     8B1     1.070918    18A1     1.407426  

    Final Occupation by Irrep:
             A1    A2    B1    B2 
    DOCC [     9,    0,    3,    3 ]
    SOCC [     0,    0,    1,    1 ]
    NA   [     9,    0,    4,    4 ]
    NB   [     9,    0,    3,    3 ]

  @DF-UKS Final Energy:  -739.60245671060557

   => Energetics <=

    Nuclear Repulsion Energy =             62.0733952423138433
    One-Electron Energy =               -1153.9270049029591974
    Two-Electron Energy =                 391.8620813011590940
    DFT Exchange-Correlation Energy =     -39.6109283511193127
    Empirical Dispersion Energy =           0.0000000000000000
    VV10 Nonlocal Energy =                  0.0000000000000000
    Total Energy =                       -739.6024567106055656

  UHF NO Occupations:
  HONO-2 :    9 A1 1.9990201
  HONO-1 :    4 B2 1.0000000
  HONO-0 :    4 B1 1.0000000
  LUNO+0 :   10 A1 0.0009799
  LUNO+1 :    5 B2 0.0005730
  LUNO+2 :    5 B1 0.0005730
  LUNO+3 :   11 A1 0.0001293


Computation Completed


Properties will be evaluated at   0.000000,   0.000000,   0.000000 [a0]

Properties computed using the SCF density matrix


 Multipole Moments:

 ------------------------------------------------------------------------------------
     Multipole            Electronic (a.u.)      Nuclear  (a.u.)        Total (a.u.)
 ------------------------------------------------------------------------------------

 L = 1.  Multiply by 2.5417464519 to convert [e a0] to [Debye]
 Dipole X            :          0.0000000            0.0000000            0.0000000
 Dipole Y            :          0.0000000            0.0000000            0.0000000
 Dipole Z            :          1.0284435           -0.9827317            0.0457118
 Magnitude           :                                                    0.0457118

 ------------------------------------------------------------------------------------

*** tstop() called on Joses-MacBook-Pro-2.local at Thu Jul 17 12:01:20 2025
Module time:
	user time   =       6.97 seconds =       0.12 minutes
	system time =       2.01 seconds =       0.03 minutes
	total time  =          1 seconds =       0.02 minutes
Total time:
	user time   =     177.20 seconds =       2.95 minutes
	system time =      41.10 seconds =       0.69 minutes
	total time  =         21 seconds =       0.35 minutes

*** tstart() called on Joses-MacBook-Pro-2.local
*** at Thu Jul 17 12:01:20 2025


         ------------------------------------------------------------
                                   SCF GRAD                          
                          Rob Parrish, Justin Turney,                
                       Andy Simmonett, and Alex Sokolov              
         ------------------------------------------------------------

  ==> Geometry <==

    Molecular point group: c2v
    Full point group: C_inf_v

    Geometry (in Angstrom), charge = -1, multiplicity = 3:

       Center              X                  Y                   Z               Mass       
    ------------   -----------------  -----------------  -----------------  -----------------
         P            0.000000000000     0.000000000000     1.039227566886    30.973761998420
         S            0.000000000000     0.000000000000    -1.006778295449    31.972071174400

  Nuclear repulsion =   62.073395242313843

  ==> Basis Set <==

  Basis Set: CC-PVDZ
    Blend: CC-PVDZ
    Number of shells: 16
    Number of basis functions: 36
    Number of Cartesian functions: 38
    Spherical Harmonics?: true
    Max angular momentum: 2

  ==> DFJKGrad: Density-Fitted SCF Gradients <==

    Gradient:                    1
    J tasked:                  Yes
    K tasked:                  Yes
    wK tasked:                  No
    OpenMP threads:              1
    Integrals threads:           1
    Memory [MiB]:              375
    Schwarz Cutoff:          1E-12
    Fitting Condition:       1E-10

   => Auxiliary Basis Set <=

  Basis Set: (CC-PVDZ AUX)
    Blend: CC-PVDZ-JKFIT
    Number of shells: 72
    Number of basis functions: 224
    Number of Cartesian functions: 260
    Spherical Harmonics?: true
    Max angular momentum: 3

  ==> DFT Potential <==

   => LibXC <=

    Version 6.2.2
    S. Lehtola, C. Steigemann, M. J.T. Oliveira, and M. A.L. Marques.,  SoftwareX 7, 1–5 (2018) (10.1016/j.softx.2017.11.002)

   => Composite Functional: B3LYP <= 

    B3LYP Hyb-GGA Exchange-Correlation Functional

    P. J. Stephens, F. J. Devlin, C. F. Chabalowski, and M. J. Frisch.,  J. Phys. Chem. 98, 11623 (1994) (10.1021/j100096a001)

    Deriv               =              1
    GGA                 =           TRUE
    Meta                =          FALSE

    Exchange Hybrid     =           TRUE
    MP2 Hybrid          =          FALSE

   => Exchange Functionals <=

    0.0800   Slater exchange
    0.7200         Becke 88

   => Exact (HF) Exchange <=

    0.2000               HF 

   => Correlation Functionals <=

    0.1900   Vosko, Wilk & Nusair (VWN5_RPA)
    0.8100   Lee, Yang & Parr

   => LibXC Density Thresholds  <==

    XC_HYB_GGA_XC_B3LYP:  1.00E-15 

   => Molecular Quadrature <=

    Radial Scheme          =       TREUTLER
    Pruning Scheme         =           NONE
    Nuclear Scheme         =       TREUTLER

    Blocking Scheme        =         OCTREE
    BS radius alpha        =              1
    Pruning alpha          =              1
    Radial Points          =             75
    Spherical Points       =            302
    Total Points           =          40834
    Total Blocks           =            364
    Max Points             =            256
    Max Functions          =             36
    Weights Tolerance      =       1.00E-15


  -Total Gradient:
     Atom            X                  Y                   Z
    ------   -----------------  -----------------  -----------------
       1        0.000000000000     0.000000000000    -0.000102917091
       2        0.000000000000     0.000000000000     0.000110619046


*** tstop() called on Joses-MacBook-Pro-2.local at Thu Jul 17 12:01:20 2025
Module time:
	user time   =       2.24 seconds =       0.04 minutes
	system time =       1.49 seconds =       0.02 minutes
	total time  =          0 seconds =       0.00 minutes
Total time:
	user time   =     179.44 seconds =       2.99 minutes
	system time =      42.59 seconds =       0.71 minutes
	total time  =         21 seconds =       0.35 minutes

    			-----------------------------------------

    			 OPTKING 3.0: for geometry optimizations 

    			     By R.A. King, Bethel University     

    			        with contributions from          

    			    A.V. Copan, J. Cayton, A. Heide      

    			-----------------------------------------

    
	                            ===> Fragment 1 <== 

	 Z (Atomic Numbers)          Masses                          Geom                  
	      15.000000            30.973762          0.00000000  0.00000000  1.96385548   
	      16.000000            31.972071          0.00000000  0.00000000 -1.90253525   

	 - Coordinate -           - BOHR/RAD -       - ANG/DEG -
	 R(1,2)           =         3.866391           2.046006


	        --- Internal Coordinate Step in ANG or DEG, aJ/ANG or AJ/DEG ---
	-------------------------------------------------------------------------------
	           Coordinate      Previous         Force          Change          New 
	           ----------      --------        ------          ------        ------
	               R(1,2)       2.04601        0.00088        0.00025       2.04626
	-------------------------------------------------------------------------------

	                                 ==> Convergence Check <==                                  
    
	Measures of convergence in internal coordinates in au.
    
	Criteria marked as inactive (o), active & met (*), and active & unmet ( ).

	----------------------------------------------------------------------------------------------
	   Step    Total Energy     Delta E     Max Force     RMS Force      Max Disp      RMS Disp   
	----------------------------------------------------------------------------------------------
	  Convergence Criteria     1.00e-06 *    3.00e-04 *             o    1.20e-03 *             o
	----------------------------------------------------------------------------------------------
	    15    -739.60245671   -1.13e-06      1.07e-04 *    1.07e-04 o    4.72e-04 *    4.72e-04 o  ~
	----------------------------------------------------------------------------------------------

Next Geometry in Ang 
	Fragment 1 (Ang)

	    P   0.0000000000   0.0000000000   1.0393523629
	    S   0.0000000000   0.0000000000  -1.0069030915


    Final optimized geometry and variables:
    Molecular point group: c2v
    Full point group: C_inf_v

    Geometry (in Angstrom), charge = -1, multiplicity = 3:

    P            0.000000000000     0.000000000000     1.039227566886
    S            0.000000000000     0.000000000000    -1.006778295449


    Psi4 stopped on: Thursday, 17 July 2025 12:01PM
    Psi4 wall time for execution: 0:00:21.51

*** Psi4 exiting successfully. Buy a developer a beer!
