
    -----------------------------------------------------------------------
          Psi4: An Open-Source Ab Initio Electronic Structure Package
                               Psi4 1.9.1 release

                         Git: Rev {} zzzzzzz 


    D. G. A. Smith, L. A. Burns, A. C. Simmonett, R. M. Parrish,
    M. C. Schieber, R. Galvelis, P. Kraus, H. Kruse, R. Di Remigio,
    A. Alenaizan, A. M. James, S. Lehtola, J. P. Misiewicz, M. Scheurer,
    R. A. Shaw, J. B. Schriber, Y. Xie, Z. L. Glick, D. A. Sirianni,
    J. S. O'Brien, J. M. Waldrop, A. Kumar, E. G. Hohenstein,
    B. P. Pritchard, B. R. Brooks, H. F. Schaefer III, A. Yu. Sokolov,
    K. Patkowski, A. E. DePrince III, U. Bozkaya, R. A. King,
    F. A. Evangelista, J. M. Turney, T. D. Crawford, C. D. Sherrill,
    J. Chem. Phys. 152(18) 184108 (2020). https://doi.org/10.1063/5.0006002

                            Additional Code Authors
    E. T. Seidl, C. L. Janssen, E. F. Valeev, M. L. Leininger,
    J. F. Gonthier, R. M. Richard, H. R. McAlexander, M. Saitow, X. Wang,
    P. Verma, M. H. Lechner, A. Jiang, S. Behnle, A. G. Heide,
    M. F. Herbst, and D. L. Poole

             Previous Authors, Complete List of Code Contributors,
                       and Citations for Specific Modules
    https://github.com/psi4/psi4/blob/master/codemeta.json
    https://github.com/psi4/psi4/graphs/contributors
    http://psicode.org/psi4manual/master/introduction.html#citing-psifour

    -----------------------------------------------------------------------


    Psi4 started on: Thursday, 17 July 2025 10:40AM

    Process ID: 72710
    Host:       Joses-MacBook-Pro-2.local
    PSIDATADIR: /Users/joseantoniorodriguesromero/anaconda3/share/psi4
    Memory:     500.0 MiB
    Threads:    1
    
  ==> Input File <==

--------------------------------------------------------------------------
molecule { 
-1 3
O   0.00000        0.60000        0.00000
Na   0.00000       -0.60000        0.00000
}

set { 
basis              cc-pvdz
reference          uks
maxiter            500
geom_maxiter       500
DAMPING_PERCENTAGE 1
guess              SAP
}

optimize('b3lyp')
--------------------------------------------------------------------------

Scratch directory: /tmp/
gradient() will perform analytic gradient computation.
   => Libint2 <=

    Primary   basis highest AM E, G, H:  6, 6, 3
    Auxiliary basis highest AM E, G, H:  7, 7, 4
    Onebody   basis highest AM E, G, H:  -, -, -
    Solid Harmonics ordering:            Gaussian

*** tstart() called on Joses-MacBook-Pro-2.local
*** at Thu Jul 17 10:40:02 2025

   => Loading Basis Set <=

    Name: CC-PVDZ
    Role: ORBITAL
    Keyword: BASIS
    atoms 1 entry O          line   198 file /Users/joseantoniorodriguesromero/anaconda3/share/psi4/basis/cc-pvdz.gbs 
    atoms 2 entry NA         line   288 file /Users/joseantoniorodriguesromero/anaconda3/share/psi4/basis/cc-pvdz.gbs 


         ---------------------------------------------------------
                                   SCF
               by Justin Turney, Rob Parrish, Andy Simmonett
                          and Daniel G. A. Smith
                              UKS Reference
                        1 Threads,    500 MiB Core
         ---------------------------------------------------------

  ==> Geometry <==

    Molecular point group: c2v
    Full point group: C_inf_v

    Geometry (in Angstrom), charge = -1, multiplicity = 3:

       Center              X                  Y                   Z               Mass       
    ------------   -----------------  -----------------  -----------------  -----------------
         O            0.000000000000     0.000000000000     0.707655427143    15.994914619570
         NA           0.000000000000     0.000000000000    -0.492344572857    22.989769282000

  Running in c2v symmetry.

  Rotational constants: A = ************  B =      1.24111  C =      1.24111 [cm^-1]
  Rotational constants: A = ************  B =  37207.64522  C =  37207.64522 [MHz]
  Nuclear repulsion =   38.806328782466672

  Charge       = -1
  Multiplicity = 3
  Electrons    = 20
  Nalpha       = 11
  Nbeta        = 9

  ==> Algorithm <==

  SCF Algorithm Type is DF.
  DIIS enabled.
  MOM disabled.
  Fractional occupation disabled.
  Guess Type is SAP.
  Energy threshold   = 1.00e-08
  Density threshold  = 1.00e-08
  Integral threshold = 1.00e-12

  ==> Primary Basis <==

  Basis Set: CC-PVDZ
    Blend: CC-PVDZ
    Number of shells: 14
    Number of basis functions: 32
    Number of Cartesian functions: 34
    Spherical Harmonics?: true
    Max angular momentum: 2

  ==> DFT Potential <==

   => LibXC <=

    Version 6.2.2
    S. Lehtola, C. Steigemann, M. J.T. Oliveira, and M. A.L. Marques.,  SoftwareX 7, 1–5 (2018) (10.1016/j.softx.2017.11.002)

   => Composite Functional: B3LYP <= 

    B3LYP Hyb-GGA Exchange-Correlation Functional

    P. J. Stephens, F. J. Devlin, C. F. Chabalowski, and M. J. Frisch.,  J. Phys. Chem. 98, 11623 (1994) (10.1021/j100096a001)

    Deriv               =              1
    GGA                 =           TRUE
    Meta                =          FALSE

    Exchange Hybrid     =           TRUE
    MP2 Hybrid          =          FALSE

   => Exchange Functionals <=

    0.0800   Slater exchange
    0.7200         Becke 88

   => Exact (HF) Exchange <=

    0.2000               HF 

   => Correlation Functionals <=

    0.1900   Vosko, Wilk & Nusair (VWN5_RPA)
    0.8100   Lee, Yang & Parr

   => LibXC Density Thresholds  <==

    XC_HYB_GGA_XC_B3LYP:  1.00E-15 

   => Molecular Quadrature <=

    Radial Scheme          =       TREUTLER
    Pruning Scheme         =           NONE
    Nuclear Scheme         =       TREUTLER

    Blocking Scheme        =         OCTREE
    BS radius alpha        =              1
    Pruning alpha          =              1
    Radial Points          =             75
    Spherical Points       =            302
    Total Points           =          43701
    Total Blocks           =            419
    Max Points             =            253
    Max Functions          =             32
    Weights Tolerance      =       1.00E-15

   => Loading Basis Set <=

    Name: (CC-PVDZ AUX)
    Role: JKFIT
    Keyword: DF_BASIS_SCF
    atoms 1 entry O          line   221 file /Users/joseantoniorodriguesromero/anaconda3/share/psi4/basis/cc-pvdz-jkfit.gbs 
    atoms 2 entry NA         line   498 file /Users/joseantoniorodriguesromero/anaconda3/share/psi4/basis/def2-universal-jkfit.gbs 

  ==> Integral Setup <==

  DFHelper Memory: AOs need 0.002 GiB; user supplied 0.328 GiB. 
  Using in-core AOs.

  ==> MemDFJK: Density-Fitted J/K Matrices <==

    J tasked:                   Yes
    K tasked:                   Yes
    wK tasked:                   No
    OpenMP threads:               1
    Memory [MiB]:               335
    Algorithm:                 Core
    Schwarz Cutoff:           1E-12
    Mask sparsity (%):       0.0000
    Fitting Condition:        1E-10

   => Auxiliary Basis Set <=

  Basis Set: (CC-PVDZ AUX)
    Blend: CC-PVDZ-JKFIT + DEF2-UNIVERSAL-JKFIT
    Number of shells: 58
    Number of basis functions: 182
    Number of Cartesian functions: 218
    Spherical Harmonics?: true
    Max angular momentum: 4

  Cached 100.0% of DFT collocation blocks in 0.038 [GiB].

  Minimum eigenvalue in the overlap matrix is 1.8700006930E-02.
  Reciprocal condition number of the overlap matrix is 7.2084854326E-03.
    Using symmetric orthogonalization.

  ==> Pre-Iterations <==

  SCF Guess: Superposition of Atomic Potentials (doi:10.1021/acs.jctc.8b01089).

  ==> SAP guess <==

   => Molecular Quadrature <=

    Radial Scheme          =       TREUTLER
    Pruning Scheme         =           NONE
    Nuclear Scheme         =       TREUTLER

    Blocking Scheme        =         OCTREE
    BS radius alpha        =              1
    Pruning alpha          =              1
    Radial Points          =             75
    Spherical Points       =            302
    Total Points           =          43701
    Total Blocks           =            419
    Max Points             =            253
    Max Functions          =             32
    Weights Tolerance      =       1.00E-15

   -------------------------------------------------------
    Irrep   Nso     Nmo     Nalpha   Nbeta   Ndocc  Nsocc
   -------------------------------------------------------
     A1        16      16       7       5       5       2
     A2         2       2       0       0       0       0
     B1         7       7       2       2       2       0
     B2         7       7       2       2       2       0
   -------------------------------------------------------
    Total      32      32      11       9       9       2
   -------------------------------------------------------

  ==> Iterations <==

                           Total Energy        Delta E     RMS |[F,P]|

    Occupation by irrep:
             A1    A2    B1    B2 
    DOCC [     6,    0,    1,    2 ]
    SOCC [     1,    0,    1,    0 ]
    NA   [     7,    0,    2,    2 ]
    NB   [     6,    0,    1,    2 ]

   @DF-UKS iter   1:  -236.69114387539452   -2.36691e+02   4.29469e-02 ADIIS/DIIS
    Occupation by irrep:
             A1    A2    B1    B2 
    DOCC [     5,    0,    2,    2 ]
    SOCC [     2,    0,    0,    0 ]
    NA   [     7,    0,    2,    2 ]
    NB   [     5,    0,    2,    2 ]

   @DF-UKS iter   2:  -230.27247869196464    6.41867e+00   9.46971e-02 ADIIS/DIIS/DAMP=1%
   @DF-UKS iter   3:  -236.59498982910483   -6.32251e+00   3.84445e-02 ADIIS/DIIS/DAMP=1%
   @DF-UKS iter   4:  -236.98754705200213   -3.92557e-01   4.24121e-03 ADIIS/DIIS/DAMP=1%
   @DF-UKS iter   5:  -237.03297078143129   -4.54237e-02   5.00075e-04 ADIIS/DIIS/DAMP=1%
   @DF-UKS iter   6:  -237.02947009783875    3.50068e-03   5.38880e-04 ADIIS/DIIS/DAMP=1%
   @DF-UKS iter   7:  -237.03022102127244   -7.50923e-04   1.63457e-04 ADIIS/DIIS/DAMP=1%
   @DF-UKS iter   8:  -237.03018301775165    3.80035e-05   3.24695e-05 DIIS/DAMP=1%
   @DF-UKS iter   9:  -237.02999736528241    1.85652e-04   4.88244e-06 DIIS/DAMP=1%
   @DF-UKS iter  10:  -237.03001602221724   -1.86569e-05   5.59699e-07 DIIS/DAMP=1%
   @DF-UKS iter  11:  -237.03002083599222   -4.81377e-06   6.71329e-08 DIIS/DAMP=1%
   @DF-UKS iter  12:  -237.03002040382856    4.32164e-07   1.72243e-08 DIIS/DAMP=1%
   @DF-UKS iter  13:  -237.03002040214898    1.67958e-09   2.81873e-09 DIIS/DAMP=1%
  Energy and wave function converged.


  ==> Post-Iterations <==

   Electrons on quadrature grid:
      Nalpha   =   11.0000000418 ; deviation = 4.182e-08
      Nbeta    =    8.9999996112 ; deviation = -3.888e-07
      Ntotal   =   19.9999996530 ; deviation = -3.470e-07 

   @Spin Contamination Metric:   3.588700568E-03
   @S^2 Expected:                2.000000000E+00
   @S^2 Observed:                2.003588701E+00
   @S   Expected:                1.000000000E+00
   @S   Observed:                1.000000000E+00

    Orbital Energies [Eh]
    ---------------------

    Alpha Occupied:                                                       

       1A1   -38.257799     2A1   -18.890449     3A1    -2.098820  
       4A1    -1.142202     1B1    -0.992096     1B2    -0.992096  
       5A1    -0.572650     2B2    -0.099886     2B1    -0.099886  
       6A1    -0.005755     7A1     0.049790  

    Alpha Virtual:                                                        

       3B2     0.108511     3B1     0.108511     8A1     0.127470  
       9A1     0.204416     4B2     0.239824     4B1     0.239824  
      10A1     0.279819    11A1     0.333250     1A2     0.333250  
       5B2     0.381368     5B1     0.381368    12A1     0.413016  
      13A1     1.247119     6B2     1.339750     6B1     1.339750  
      14A1     1.848425     7B2     2.721557     7B1     2.721557  
       2A2     2.810586    15A1     2.810604    16A1     3.020047  

    Beta Occupied:                                                        

       1A1   -38.248267     2A1   -18.863790     3A1    -2.080007  
       4A1    -1.104044     1B1    -0.983663     1B2    -0.983663  
       5A1    -0.509238     2B1    -0.073819     2B2    -0.073819  

    Beta Virtual:                                                         

       6A1     0.099502     3B1     0.120226     3B2     0.120226  
       7A1     0.129678     8A1     0.178086     4B1     0.258128  
       4B2     0.258128     9A1     0.272873    10A1     0.300542  
       1A2     0.341085    11A1     0.341088     5B1     0.396071  
       5B2     0.396071    12A1     0.435741    13A1     1.324170  
       6B1     1.356894     6B2     1.356894    14A1     1.885447  
       7B1     2.789209     7B2     2.789209     2A2     2.826296  
      15A1     2.826313    16A1     3.099511  

    Final Occupation by Irrep:
             A1    A2    B1    B2 
    DOCC [     5,    0,    2,    2 ]
    SOCC [     2,    0,    0,    0 ]
    NA   [     7,    0,    2,    2 ]
    NB   [     5,    0,    2,    2 ]

  @DF-UKS Final Energy:  -237.03002040214898

   => Energetics <=

    Nuclear Repulsion Energy =             38.8063287824666716
    One-Electron Energy =                -412.1131113888137634
    Two-Electron Energy =                 155.1870745619744696
    DFT Exchange-Correlation Energy =     -18.9103123577763625
    Empirical Dispersion Energy =           0.0000000000000000
    VV10 Nonlocal Energy =                  0.0000000000000000
    Total Energy =                       -237.0300204021489776

  UHF NO Occupations:
  HONO-2 :    2 B2 1.9993833
  HONO-1 :    6 A1 1.0000000
  HONO-0 :    7 A1 1.0000000
  LUNO+0 :    3 B2 0.0006167
  LUNO+1 :    3 B1 0.0006167
  LUNO+2 :    8 A1 0.0004700
  LUNO+3 :    9 A1 0.0000890


Computation Completed


Properties will be evaluated at   0.000000,   0.000000,   0.000000 [a0]

Properties computed using the SCF density matrix


 Multipole Moments:

 ------------------------------------------------------------------------------------
     Multipole            Electronic (a.u.)      Nuclear  (a.u.)        Total (a.u.)
 ------------------------------------------------------------------------------------

 L = 1.  Multiply by 2.5417464519 to convert [e a0] to [Debye]
 Dipole X            :          0.0000000            0.0000000            0.0000000
 Dipole Y            :          0.0000000            0.0000000            0.0000000
 Dipole Z            :          0.9767109            0.4638392            1.4405501
 Magnitude           :                                                    1.4405501

 ------------------------------------------------------------------------------------

*** tstop() called on Joses-MacBook-Pro-2.local at Thu Jul 17 10:40:03 2025
Module time:
	user time   =       4.54 seconds =       0.08 minutes
	system time =       5.35 seconds =       0.09 minutes
	total time  =          1 seconds =       0.02 minutes
Total time:
	user time   =       4.54 seconds =       0.08 minutes
	system time =       5.35 seconds =       0.09 minutes
	total time  =          1 seconds =       0.02 minutes

*** tstart() called on Joses-MacBook-Pro-2.local
*** at Thu Jul 17 10:40:03 2025


         ------------------------------------------------------------
                                   SCF GRAD                          
                          Rob Parrish, Justin Turney,                
                       Andy Simmonett, and Alex Sokolov              
         ------------------------------------------------------------

  ==> Geometry <==

    Molecular point group: c2v
    Full point group: C_inf_v

    Geometry (in Angstrom), charge = -1, multiplicity = 3:

       Center              X                  Y                   Z               Mass       
    ------------   -----------------  -----------------  -----------------  -----------------
         O            0.000000000000     0.000000000000     0.707655427143    15.994914619570
         NA           0.000000000000     0.000000000000    -0.492344572857    22.989769282000

  Nuclear repulsion =   38.806328782466672

  ==> Basis Set <==

  Basis Set: CC-PVDZ
    Blend: CC-PVDZ
    Number of shells: 14
    Number of basis functions: 32
    Number of Cartesian functions: 34
    Spherical Harmonics?: true
    Max angular momentum: 2

  ==> DFJKGrad: Density-Fitted SCF Gradients <==

    Gradient:                    1
    J tasked:                  Yes
    K tasked:                  Yes
    wK tasked:                  No
    OpenMP threads:              1
    Integrals threads:           1
    Memory [MiB]:              375
    Schwarz Cutoff:          1E-12
    Fitting Condition:       1E-10

   => Auxiliary Basis Set <=

  Basis Set: (CC-PVDZ AUX)
    Blend: CC-PVDZ-JKFIT + DEF2-UNIVERSAL-JKFIT
    Number of shells: 58
    Number of basis functions: 182
    Number of Cartesian functions: 218
    Spherical Harmonics?: true
    Max angular momentum: 4

  ==> DFT Potential <==

   => LibXC <=

    Version 6.2.2
    S. Lehtola, C. Steigemann, M. J.T. Oliveira, and M. A.L. Marques.,  SoftwareX 7, 1–5 (2018) (10.1016/j.softx.2017.11.002)

   => Composite Functional: B3LYP <= 

    B3LYP Hyb-GGA Exchange-Correlation Functional

    P. J. Stephens, F. J. Devlin, C. F. Chabalowski, and M. J. Frisch.,  J. Phys. Chem. 98, 11623 (1994) (10.1021/j100096a001)

    Deriv               =              1
    GGA                 =           TRUE
    Meta                =          FALSE

    Exchange Hybrid     =           TRUE
    MP2 Hybrid          =          FALSE

   => Exchange Functionals <=

    0.0800   Slater exchange
    0.7200         Becke 88

   => Exact (HF) Exchange <=

    0.2000               HF 

   => Correlation Functionals <=

    0.1900   Vosko, Wilk & Nusair (VWN5_RPA)
    0.8100   Lee, Yang & Parr

   => LibXC Density Thresholds  <==

    XC_HYB_GGA_XC_B3LYP:  1.00E-15 

   => Molecular Quadrature <=

    Radial Scheme          =       TREUTLER
    Pruning Scheme         =           NONE
    Nuclear Scheme         =       TREUTLER

    Blocking Scheme        =         OCTREE
    BS radius alpha        =              1
    Pruning alpha          =              1
    Radial Points          =             75
    Spherical Points       =            302
    Total Points           =          43701
    Total Blocks           =            419
    Max Points             =            253
    Max Functions          =             32
    Weights Tolerance      =       1.00E-15


  -Total Gradient:
     Atom            X                  Y                   Z
    ------   -----------------  -----------------  -----------------
       1        0.000000000000    -0.000000000000    -1.066855371284
       2        0.000000000000     0.000000000000     1.066770602541


*** tstop() called on Joses-MacBook-Pro-2.local at Thu Jul 17 10:40:03 2025
Module time:
	user time   =       1.35 seconds =       0.02 minutes
	system time =       1.68 seconds =       0.03 minutes
	total time  =          0 seconds =       0.00 minutes
Total time:
	user time   =       5.89 seconds =       0.10 minutes
	system time =       7.03 seconds =       0.12 minutes
	total time  =          1 seconds =       0.02 minutes

    			-----------------------------------------

    			 OPTKING 3.0: for geometry optimizations 

    			     By R.A. King, Bethel University     

    			        with contributions from          

    			    A.V. Copan, J. Cayton, A. Heide      

    			-----------------------------------------

    
	                            ===> Fragment 1 <== 

	 Z (Atomic Numbers)          Masses                          Geom                  
	       8.000000            15.994915          0.00000000  0.00000000  1.33727495   
	      11.000000            22.989769          0.00000000  0.00000000 -0.93039640   

	 - Coordinate -           - BOHR/RAD -       - ANG/DEG -
	 R(1,2)           =         2.267671           1.200000


	        --- Internal Coordinate Step in ANG or DEG, aJ/ANG or AJ/DEG ---
	-------------------------------------------------------------------------------
	           Coordinate      Previous         Force          Change          New 
	           ----------      --------        ------          ------        ------
	               R(1,2)       1.20000        8.78918        0.12719       1.32719
	-------------------------------------------------------------------------------

	                                 ==> Convergence Check <==                                  
    
	Measures of convergence in internal coordinates in au.
    
	Criteria marked as inactive (o), active & met (*), and active & unmet ( ).

	----------------------------------------------------------------------------------------------
	   Step    Total Energy     Delta E     Max Force     RMS Force      Max Disp      RMS Disp   
	----------------------------------------------------------------------------------------------
	  Convergence Criteria     1.00e-06 *    3.00e-04 *             o    1.20e-03 *             o
	----------------------------------------------------------------------------------------------
	     1    -237.03002040   -2.37e+02      1.07e+00      1.07e+00 o    2.40e-01      2.40e-01 o  ~
	----------------------------------------------------------------------------------------------

Next Geometry in Ang 
	Fragment 1 (Ang)

	    O   0.0000000000   0.0000000000   0.7712486775
	   Na   0.0000000000   0.0000000000  -0.5559378232


    Structure for next step:
    Molecular point group: c2v
    Full point group: C_inf_v

    Geometry (in Angstrom), charge = -1, multiplicity = 3:

    O            0.000000000000     0.000000000000     0.782658941735
    NA           0.000000000000     0.000000000000    -0.544527559008


Scratch directory: /tmp/
gradient() will perform analytic gradient computation.
   => Libint2 <=

    Primary   basis highest AM E, G, H:  6, 6, 3
    Auxiliary basis highest AM E, G, H:  7, 7, 4
    Onebody   basis highest AM E, G, H:  -, -, -
    Solid Harmonics ordering:            Gaussian

*** tstart() called on Joses-MacBook-Pro-2.local
*** at Thu Jul 17 10:40:03 2025

   => Loading Basis Set <=

    Name: CC-PVDZ
    Role: ORBITAL
    Keyword: BASIS
    atoms 1 entry O          line   198 file /Users/joseantoniorodriguesromero/anaconda3/share/psi4/basis/cc-pvdz.gbs 
    atoms 2 entry NA         line   288 file /Users/joseantoniorodriguesromero/anaconda3/share/psi4/basis/cc-pvdz.gbs 


         ---------------------------------------------------------
                                   SCF
               by Justin Turney, Rob Parrish, Andy Simmonett
                          and Daniel G. A. Smith
                              UKS Reference
                        1 Threads,    500 MiB Core
         ---------------------------------------------------------

  ==> Geometry <==

    Molecular point group: c2v
    Full point group: C_inf_v

    Geometry (in Angstrom), charge = -1, multiplicity = 3:

       Center              X                  Y                   Z               Mass       
    ------------   -----------------  -----------------  -----------------  -----------------
         O            0.000000000000     0.000000000000     0.782658941735    15.994914619570
         NA           0.000000000000     0.000000000000    -0.544527559008    22.989769282000

  Running in c2v symmetry.

  Rotational constants: A = ************  B =      1.01464  C =      1.01464 [cm^-1]
  Rotational constants: A = ************  B =  30418.00774  C =  30418.00774 [MHz]
  Nuclear repulsion =   35.087453430904418

  Charge       = -1
  Multiplicity = 3
  Electrons    = 20
  Nalpha       = 11
  Nbeta        = 9

  ==> Algorithm <==

  SCF Algorithm Type is DF.
  DIIS enabled.
  MOM disabled.
  Fractional occupation disabled.
  Guess Type is READ.
  Energy threshold   = 1.00e-08
  Density threshold  = 1.00e-08
  Integral threshold = 1.00e-12

  ==> Primary Basis <==

  Basis Set: CC-PVDZ
    Blend: CC-PVDZ
    Number of shells: 14
    Number of basis functions: 32
    Number of Cartesian functions: 34
    Spherical Harmonics?: true
    Max angular momentum: 2

  ==> DFT Potential <==

   => LibXC <=

    Version 6.2.2
    S. Lehtola, C. Steigemann, M. J.T. Oliveira, and M. A.L. Marques.,  SoftwareX 7, 1–5 (2018) (10.1016/j.softx.2017.11.002)

   => Composite Functional: B3LYP <= 

    B3LYP Hyb-GGA Exchange-Correlation Functional

    P. J. Stephens, F. J. Devlin, C. F. Chabalowski, and M. J. Frisch.,  J. Phys. Chem. 98, 11623 (1994) (10.1021/j100096a001)

    Deriv               =              1
    GGA                 =           TRUE
    Meta                =          FALSE

    Exchange Hybrid     =           TRUE
    MP2 Hybrid          =          FALSE

   => Exchange Functionals <=

    0.0800   Slater exchange
    0.7200         Becke 88

   => Exact (HF) Exchange <=

    0.2000               HF 

   => Correlation Functionals <=

    0.1900   Vosko, Wilk & Nusair (VWN5_RPA)
    0.8100   Lee, Yang & Parr

   => LibXC Density Thresholds  <==

    XC_HYB_GGA_XC_B3LYP:  1.00E-15 

   => Molecular Quadrature <=

    Radial Scheme          =       TREUTLER
    Pruning Scheme         =           NONE
    Nuclear Scheme         =       TREUTLER

    Blocking Scheme        =         OCTREE
    BS radius alpha        =              1
    Pruning alpha          =              1
    Radial Points          =             75
    Spherical Points       =            302
    Total Points           =          43725
    Total Blocks           =            419
    Max Points             =            255
    Max Functions          =             32
    Weights Tolerance      =       1.00E-15

   => Loading Basis Set <=

    Name: (CC-PVDZ AUX)
    Role: JKFIT
    Keyword: DF_BASIS_SCF
    atoms 1 entry O          line   221 file /Users/joseantoniorodriguesromero/anaconda3/share/psi4/basis/cc-pvdz-jkfit.gbs 
    atoms 2 entry NA         line   498 file /Users/joseantoniorodriguesromero/anaconda3/share/psi4/basis/def2-universal-jkfit.gbs 

   => Loading Basis Set <=

    Name: CC-PVDZ
    Role: ORBITAL
    Keyword: BASIS
    atoms 1 entry O          line   198 file /Users/joseantoniorodriguesromero/anaconda3/share/psi4/basis/cc-pvdz.gbs 
    atoms 2 entry NA         line   288 file /Users/joseantoniorodriguesromero/anaconda3/share/psi4/basis/cc-pvdz.gbs 

  Reading orbitals from file /tmp/triplet_ONa.default.72710.180.npy, no projection.

  ==> Integral Setup <==

  DFHelper Memory: AOs need 0.002 GiB; user supplied 0.328 GiB. 
  Using in-core AOs.

  ==> MemDFJK: Density-Fitted J/K Matrices <==

    J tasked:                   Yes
    K tasked:                   Yes
    wK tasked:                   No
    OpenMP threads:               1
    Memory [MiB]:               335
    Algorithm:                 Core
    Schwarz Cutoff:           1E-12
    Mask sparsity (%):       0.0000
    Fitting Condition:        1E-10

   => Auxiliary Basis Set <=

  Basis Set: (CC-PVDZ AUX)
    Blend: CC-PVDZ-JKFIT + DEF2-UNIVERSAL-JKFIT
    Number of shells: 58
    Number of basis functions: 182
    Number of Cartesian functions: 218
    Spherical Harmonics?: true
    Max angular momentum: 4

  Cached 100.0% of DFT collocation blocks in 0.038 [GiB].

  Minimum eigenvalue in the overlap matrix is 1.8506078919E-02.
  Reciprocal condition number of the overlap matrix is 7.1222470934E-03.
    Using symmetric orthogonalization.

  ==> Pre-Iterations <==

  SCF Guess: Orbitals guess was supplied from a previous computation.

   -------------------------------------------------------
    Irrep   Nso     Nmo     Nalpha   Nbeta   Ndocc  Nsocc
   -------------------------------------------------------
     A1        16      16       7       5       5       2
     A2         2       2       0       0       0       0
     B1         7       7       2       2       2       0
     B2         7       7       2       2       2       0
   -------------------------------------------------------
    Total      32      32      11       9       9       2
   -------------------------------------------------------

  ==> Iterations <==

                           Total Energy        Delta E     RMS |[F,P]|

   @DF-UKS iter   0:  -237.19963328684815   -2.37200e+02   3.09335e-02 
   @DF-UKS iter   1:  -237.20964580933918   -1.00125e-02   1.08578e-02 ADIIS/DIIS
   @DF-UKS iter   2:  -237.18288194214153    2.67639e-02   1.77955e-02 ADIIS/DIIS/DAMP=1%
   @DF-UKS iter   3:  -237.23937146471272   -5.64895e-02   1.53047e-03 ADIIS/DIIS/DAMP=1%
   @DF-UKS iter   4:  -237.23168140985672    7.69005e-03   9.42167e-05 DIIS/DAMP=1%
   @DF-UKS iter   5:  -237.23051772337041    1.16369e-03   2.95813e-05 DIIS/DAMP=1%
   @DF-UKS iter   6:  -237.23049928836059    1.84350e-05   4.91069e-06 DIIS/DAMP=1%
   @DF-UKS iter   7:  -237.23048898967289    1.02987e-05   6.86177e-07 DIIS/DAMP=1%
   @DF-UKS iter   8:  -237.23048993880627   -9.49133e-07   1.53639e-07 DIIS/DAMP=1%
   @DF-UKS iter   9:  -237.23049011808371   -1.79277e-07   3.67578e-08 DIIS/DAMP=1%
   @DF-UKS iter  10:  -237.23049007848931    3.95944e-08   8.30530e-09 DIIS/DAMP=1%
   @DF-UKS iter  11:  -237.23049005245781    2.60315e-08   9.27777e-10 DIIS/DAMP=1%
   @DF-UKS iter  12:  -237.23049005921871   -6.76090e-09   2.81871e-10 DIIS/DAMP=1%
  Energy and wave function converged.


  ==> Post-Iterations <==

   Electrons on quadrature grid:
      Nalpha   =   11.0000002910 ; deviation = 2.910e-07
      Nbeta    =    9.0000000858 ; deviation = 8.577e-08
      Ntotal   =   20.0000003768 ; deviation = 3.768e-07 

   @Spin Contamination Metric:   4.361129774E-03
   @S^2 Expected:                2.000000000E+00
   @S^2 Observed:                2.004361130E+00
   @S   Expected:                1.000000000E+00
   @S   Observed:                1.000000000E+00

    Orbital Energies [Eh]
    ---------------------

    Alpha Occupied:                                                       

       1A1   -38.226269     2A1   -18.889598     3A1    -2.040134  
       4A1    -1.054500     1B2    -0.952664     1B1    -0.952664  
       5A1    -0.607710     2B2    -0.088145     2B1    -0.088145  
       6A1    -0.068498     7A1     0.046538  

    Alpha Virtual:                                                        

       3B1     0.110531     3B2     0.110531     8A1     0.130018  
       9A1     0.201313     4B1     0.242866     4B2     0.242866  
      10A1     0.281988     1A2     0.336189    11A1     0.336189  
       5B1     0.385523     5B2     0.385523    12A1     0.417824  
      13A1     1.264736     6B2     1.339762     6B1     1.339762  
      14A1     1.878030     7B2     2.742229     7B1     2.742229  
       2A2     2.832406    15A1     2.832415    16A1     2.878064  

    Beta Occupied:                                                        

       1A1   -38.219803     2A1   -18.862410     3A1    -2.027937  
       4A1    -1.022216     1B2    -0.947045     1B1    -0.947045  
       5A1    -0.537609     2B2    -0.061029     2B1    -0.061029  

    Beta Virtual:                                                         

       6A1     0.099797     3B1     0.121286     3B2     0.121286  
       7A1     0.127313     8A1     0.160432     9A1     0.242649  
       4B1     0.260598     4B2     0.260598    10A1     0.300196  
       1A2     0.343828    11A1     0.343831     5B1     0.400783  
       5B2     0.400783    12A1     0.438159    13A1     1.351473  
       6B2     1.357785     6B1     1.357785    14A1     1.917695  
       7B2     2.819917     7B1     2.819917     2A2     2.848662  
      15A1     2.848673    16A1     2.973539  

    Final Occupation by Irrep:
             A1    A2    B1    B2 
    DOCC [     5,    0,    2,    2 ]
    SOCC [     2,    0,    0,    0 ]
    NA   [     7,    0,    2,    2 ]
    NB   [     5,    0,    2,    2 ]

  @DF-UKS Final Energy:  -237.23049005921871

   => Energetics <=

    Nuclear Repulsion Energy =             35.0874534309044179
    One-Electron Energy =                -405.5205678372528837
    Two-Electron Energy =                 152.0670960410893997
    DFT Exchange-Correlation Energy =     -18.8644716939596506
    Empirical Dispersion Energy =           0.0000000000000000
    VV10 Nonlocal Energy =                  0.0000000000000000
    Total Energy =                       -237.2304900592187096

  UHF NO Occupations:
  HONO-2 :    2 B1 1.9992270
  HONO-1 :    6 A1 1.0000000
  HONO-0 :    7 A1 1.0000000
  LUNO+0 :    3 B1 0.0007730
  LUNO+1 :    3 B2 0.0007730
  LUNO+2 :    8 A1 0.0005781
  LUNO+3 :    9 A1 0.0000561


Computation Completed


Properties will be evaluated at   0.000000,   0.000000,   0.000000 [a0]

Properties computed using the SCF density matrix


 Multipole Moments:

 ------------------------------------------------------------------------------------
     Multipole            Electronic (a.u.)      Nuclear  (a.u.)        Total (a.u.)
 ------------------------------------------------------------------------------------

 L = 1.  Multiply by 2.5417464519 to convert [e a0] to [Debye]
 Dipole X            :          0.0000000            0.0000000            0.0000000
 Dipole Y            :          0.0000000            0.0000000            0.0000000
 Dipole Z            :          1.0594375            0.5130009            1.5724384
 Magnitude           :                                                    1.5724384

 ------------------------------------------------------------------------------------

*** tstop() called on Joses-MacBook-Pro-2.local at Thu Jul 17 10:40:04 2025
Module time:
	user time   =       4.39 seconds =       0.07 minutes
	system time =       4.81 seconds =       0.08 minutes
	total time  =          1 seconds =       0.02 minutes
Total time:
	user time   =      10.31 seconds =       0.17 minutes
	system time =      12.03 seconds =       0.20 minutes
	total time  =          2 seconds =       0.03 minutes

*** tstart() called on Joses-MacBook-Pro-2.local
*** at Thu Jul 17 10:40:04 2025


         ------------------------------------------------------------
                                   SCF GRAD                          
                          Rob Parrish, Justin Turney,                
                       Andy Simmonett, and Alex Sokolov              
         ------------------------------------------------------------

  ==> Geometry <==

    Molecular point group: c2v
    Full point group: C_inf_v

    Geometry (in Angstrom), charge = -1, multiplicity = 3:

       Center              X                  Y                   Z               Mass       
    ------------   -----------------  -----------------  -----------------  -----------------
         O            0.000000000000     0.000000000000     0.782658941735    15.994914619570
         NA           0.000000000000     0.000000000000    -0.544527559008    22.989769282000

  Nuclear repulsion =   35.087453430904418

  ==> Basis Set <==

  Basis Set: CC-PVDZ
    Blend: CC-PVDZ
    Number of shells: 14
    Number of basis functions: 32
    Number of Cartesian functions: 34
    Spherical Harmonics?: true
    Max angular momentum: 2

  ==> DFJKGrad: Density-Fitted SCF Gradients <==

    Gradient:                    1
    J tasked:                  Yes
    K tasked:                  Yes
    wK tasked:                  No
    OpenMP threads:              1
    Integrals threads:           1
    Memory [MiB]:              375
    Schwarz Cutoff:          1E-12
    Fitting Condition:       1E-10

   => Auxiliary Basis Set <=

  Basis Set: (CC-PVDZ AUX)
    Blend: CC-PVDZ-JKFIT + DEF2-UNIVERSAL-JKFIT
    Number of shells: 58
    Number of basis functions: 182
    Number of Cartesian functions: 218
    Spherical Harmonics?: true
    Max angular momentum: 4

  ==> DFT Potential <==

   => LibXC <=

    Version 6.2.2
    S. Lehtola, C. Steigemann, M. J.T. Oliveira, and M. A.L. Marques.,  SoftwareX 7, 1–5 (2018) (10.1016/j.softx.2017.11.002)

   => Composite Functional: B3LYP <= 

    B3LYP Hyb-GGA Exchange-Correlation Functional

    P. J. Stephens, F. J. Devlin, C. F. Chabalowski, and M. J. Frisch.,  J. Phys. Chem. 98, 11623 (1994) (10.1021/j100096a001)

    Deriv               =              1
    GGA                 =           TRUE
    Meta                =          FALSE

    Exchange Hybrid     =           TRUE
    MP2 Hybrid          =          FALSE

   => Exchange Functionals <=

    0.0800   Slater exchange
    0.7200         Becke 88

   => Exact (HF) Exchange <=

    0.2000               HF 

   => Correlation Functionals <=

    0.1900   Vosko, Wilk & Nusair (VWN5_RPA)
    0.8100   Lee, Yang & Parr

   => LibXC Density Thresholds  <==

    XC_HYB_GGA_XC_B3LYP:  1.00E-15 

   => Molecular Quadrature <=

    Radial Scheme          =       TREUTLER
    Pruning Scheme         =           NONE
    Nuclear Scheme         =       TREUTLER

    Blocking Scheme        =         OCTREE
    BS radius alpha        =              1
    Pruning alpha          =              1
    Radial Points          =             75
    Spherical Points       =            302
    Total Points           =          43725
    Total Blocks           =            419
    Max Points             =            255
    Max Functions          =             32
    Weights Tolerance      =       1.00E-15


  -Total Gradient:
     Atom            X                  Y                   Z
    ------   -----------------  -----------------  -----------------
       1       -0.000000000000     0.000000000000    -0.631180754029
       2        0.000000000000    -0.000000000000     0.631091323996


*** tstop() called on Joses-MacBook-Pro-2.local at Thu Jul 17 10:40:05 2025
Module time:
	user time   =       1.19 seconds =       0.02 minutes
	system time =       1.52 seconds =       0.03 minutes
	total time  =          1 seconds =       0.02 minutes
Total time:
	user time   =      11.50 seconds =       0.19 minutes
	system time =      13.55 seconds =       0.23 minutes
	total time  =          3 seconds =       0.05 minutes

    			-----------------------------------------

    			 OPTKING 3.0: for geometry optimizations 

    			     By R.A. King, Bethel University     

    			        with contributions from          

    			    A.V. Copan, J. Cayton, A. Heide      

    			-----------------------------------------

    
	                            ===> Fragment 1 <== 

	 Z (Atomic Numbers)          Masses                          Geom                  
	       8.000000            15.994915          0.00000000  0.00000000  1.47901105   
	      11.000000            22.989769          0.00000000  0.00000000 -1.02900795   

	 - Coordinate -           - BOHR/RAD -       - ANG/DEG -
	 R(1,2)           =         2.508019           1.327187


	        --- Internal Coordinate Step in ANG or DEG, aJ/ANG or AJ/DEG ---
	-------------------------------------------------------------------------------
	           Coordinate      Previous         Force          Change          New 
	           ----------      --------        ------          ------        ------
	               R(1,2)       1.32719        5.19976        0.14733       1.47452
	-------------------------------------------------------------------------------

	                                 ==> Convergence Check <==                                  
    
	Measures of convergence in internal coordinates in au.
    
	Criteria marked as inactive (o), active & met (*), and active & unmet ( ).

	----------------------------------------------------------------------------------------------
	   Step    Total Energy     Delta E     Max Force     RMS Force      Max Disp      RMS Disp   
	----------------------------------------------------------------------------------------------
	  Convergence Criteria     1.00e-06 *    3.00e-04 *             o    1.20e-03 *             o
	----------------------------------------------------------------------------------------------
	     2    -237.23049006   -2.00e-01      6.31e-01      6.31e-01 o    2.78e-01      2.78e-01 o  ~
	----------------------------------------------------------------------------------------------

Next Geometry in Ang 
	Fragment 1 (Ang)

	    O   0.0000000000   0.0000000000   0.8563262631
	   Na   0.0000000000   0.0000000000  -0.6181948804


    Structure for next step:
    Molecular point group: c2v
    Full point group: C_inf_v

    Geometry (in Angstrom), charge = -1, multiplicity = 3:

    O            0.000000000000     0.000000000000     0.869544074668
    NA           0.000000000000     0.000000000000    -0.604977068785


Scratch directory: /tmp/
gradient() will perform analytic gradient computation.
   => Libint2 <=

    Primary   basis highest AM E, G, H:  6, 6, 3
    Auxiliary basis highest AM E, G, H:  7, 7, 4
    Onebody   basis highest AM E, G, H:  -, -, -
    Solid Harmonics ordering:            Gaussian

*** tstart() called on Joses-MacBook-Pro-2.local
*** at Thu Jul 17 10:40:05 2025

   => Loading Basis Set <=

    Name: CC-PVDZ
    Role: ORBITAL
    Keyword: BASIS
    atoms 1 entry O          line   198 file /Users/joseantoniorodriguesromero/anaconda3/share/psi4/basis/cc-pvdz.gbs 
    atoms 2 entry NA         line   288 file /Users/joseantoniorodriguesromero/anaconda3/share/psi4/basis/cc-pvdz.gbs 


         ---------------------------------------------------------
                                   SCF
               by Justin Turney, Rob Parrish, Andy Simmonett
                          and Daniel G. A. Smith
                              UKS Reference
                        1 Threads,    500 MiB Core
         ---------------------------------------------------------

  ==> Geometry <==

    Molecular point group: c2v
    Full point group: C_inf_v

    Geometry (in Angstrom), charge = -1, multiplicity = 3:

       Center              X                  Y                   Z               Mass       
    ------------   -----------------  -----------------  -----------------  -----------------
         O            0.000000000000     0.000000000000     0.869544074668    15.994914619570
         NA           0.000000000000     0.000000000000    -0.604977068785    22.989769282000

  Running in c2v symmetry.

  Rotational constants: A = ************  B =      0.82200  C =      0.82200 [cm^-1]
  Rotational constants: A = ************  B =  24642.94846  C =  24642.94846 [MHz]
  Nuclear repulsion =   31.581503422823335

  Charge       = -1
  Multiplicity = 3
  Electrons    = 20
  Nalpha       = 11
  Nbeta        = 9

  ==> Algorithm <==

  SCF Algorithm Type is DF.
  DIIS enabled.
  MOM disabled.
  Fractional occupation disabled.
  Guess Type is READ.
  Energy threshold   = 1.00e-08
  Density threshold  = 1.00e-08
  Integral threshold = 1.00e-12

  ==> Primary Basis <==

  Basis Set: CC-PVDZ
    Blend: CC-PVDZ
    Number of shells: 14
    Number of basis functions: 32
    Number of Cartesian functions: 34
    Spherical Harmonics?: true
    Max angular momentum: 2

  ==> DFT Potential <==

   => LibXC <=

    Version 6.2.2
    S. Lehtola, C. Steigemann, M. J.T. Oliveira, and M. A.L. Marques.,  SoftwareX 7, 1–5 (2018) (10.1016/j.softx.2017.11.002)

   => Composite Functional: B3LYP <= 

    B3LYP Hyb-GGA Exchange-Correlation Functional

    P. J. Stephens, F. J. Devlin, C. F. Chabalowski, and M. J. Frisch.,  J. Phys. Chem. 98, 11623 (1994) (10.1021/j100096a001)

    Deriv               =              1
    GGA                 =           TRUE
    Meta                =          FALSE

    Exchange Hybrid     =           TRUE
    MP2 Hybrid          =          FALSE

   => Exchange Functionals <=

    0.0800   Slater exchange
    0.7200         Becke 88

   => Exact (HF) Exchange <=

    0.2000               HF 

   => Correlation Functionals <=

    0.1900   Vosko, Wilk & Nusair (VWN5_RPA)
    0.8100   Lee, Yang & Parr

   => LibXC Density Thresholds  <==

    XC_HYB_GGA_XC_B3LYP:  1.00E-15 

   => Molecular Quadrature <=

    Radial Scheme          =       TREUTLER
    Pruning Scheme         =           NONE
    Nuclear Scheme         =       TREUTLER

    Blocking Scheme        =         OCTREE
    BS radius alpha        =              1
    Pruning alpha          =              1
    Radial Points          =             75
    Spherical Points       =            302
    Total Points           =          43747
    Total Blocks           =            420
    Max Points             =            252
    Max Functions          =             32
    Weights Tolerance      =       1.00E-15

   => Loading Basis Set <=

    Name: (CC-PVDZ AUX)
    Role: JKFIT
    Keyword: DF_BASIS_SCF
    atoms 1 entry O          line   221 file /Users/joseantoniorodriguesromero/anaconda3/share/psi4/basis/cc-pvdz-jkfit.gbs 
    atoms 2 entry NA         line   498 file /Users/joseantoniorodriguesromero/anaconda3/share/psi4/basis/def2-universal-jkfit.gbs 

   => Loading Basis Set <=

    Name: CC-PVDZ
    Role: ORBITAL
    Keyword: BASIS
    atoms 1 entry O          line   198 file /Users/joseantoniorodriguesromero/anaconda3/share/psi4/basis/cc-pvdz.gbs 
    atoms 2 entry NA         line   288 file /Users/joseantoniorodriguesromero/anaconda3/share/psi4/basis/cc-pvdz.gbs 

  Reading orbitals from file /tmp/triplet_ONa.default.72710.180.npy, no projection.

  ==> Integral Setup <==

  DFHelper Memory: AOs need 0.002 GiB; user supplied 0.328 GiB. 
  Using in-core AOs.

  ==> MemDFJK: Density-Fitted J/K Matrices <==

    J tasked:                   Yes
    K tasked:                   Yes
    wK tasked:                   No
    OpenMP threads:               1
    Memory [MiB]:               335
    Algorithm:                 Core
    Schwarz Cutoff:           1E-12
    Mask sparsity (%):       0.0000
    Fitting Condition:        1E-10

   => Auxiliary Basis Set <=

  Basis Set: (CC-PVDZ AUX)
    Blend: CC-PVDZ-JKFIT + DEF2-UNIVERSAL-JKFIT
    Number of shells: 58
    Number of basis functions: 182
    Number of Cartesian functions: 218
    Spherical Harmonics?: true
    Max angular momentum: 4

  Cached 100.0% of DFT collocation blocks in 0.038 [GiB].

  Minimum eigenvalue in the overlap matrix is 1.8540106198E-02.
  Reciprocal condition number of the overlap matrix is 7.1213294139E-03.
    Using symmetric orthogonalization.

  ==> Pre-Iterations <==

  SCF Guess: Orbitals guess was supplied from a previous computation.

   -------------------------------------------------------
    Irrep   Nso     Nmo     Nalpha   Nbeta   Ndocc  Nsocc
   -------------------------------------------------------
     A1        16      16       7       5       5       2
     A2         2       2       0       0       0       0
     B1         7       7       2       2       2       0
     B2         7       7       2       2       2       0
   -------------------------------------------------------
    Total      32      32      11       9       9       2
   -------------------------------------------------------

  ==> Iterations <==

                           Total Energy        Delta E     RMS |[F,P]|

   @DF-UKS iter   0:  -237.35568818046585   -2.37356e+02   2.54084e-02 
   @DF-UKS iter   1:  -237.34749081429456    8.19737e-03   8.25274e-03 ADIIS/DIIS
   @DF-UKS iter   2:  -237.33170812724779    1.57827e-02   1.35098e-02 ADIIS/DIIS/DAMP=1%
   @DF-UKS iter   3:  -237.36632130623374   -3.46132e-02   9.35868e-04 ADIIS/DIIS/DAMP=1%
   @DF-UKS iter   4:  -237.36009106276060    6.23024e-03   1.27968e-04 ADIIS/DIIS/DAMP=1%
   @DF-UKS iter   5:  -237.35952265876440    5.68404e-04   2.65693e-05 DIIS/DAMP=1%
   @DF-UKS iter   6:  -237.35945359123701    6.90675e-05   4.54581e-06 DIIS/DAMP=1%
   @DF-UKS iter   7:  -237.35945214516062    1.44608e-06   1.98651e-07 DIIS/DAMP=1%
   @DF-UKS iter   8:  -237.35945432230253   -2.17714e-06   5.74831e-08 DIIS/DAMP=1%
   @DF-UKS iter   9:  -237.35945432081581    1.48671e-09   1.89133e-08 DIIS/DAMP=1%
   @DF-UKS iter  10:  -237.35945432487557   -4.05976e-09   2.60470e-09 DIIS/DAMP=1%
  Energy and wave function converged.


  ==> Post-Iterations <==

   Electrons on quadrature grid:
      Nalpha   =   11.0000054642 ; deviation = 5.464e-06
      Nbeta    =    9.0000055822 ; deviation = 5.582e-06
      Ntotal   =   20.0000110464 ; deviation = 1.105e-05 

   @Spin Contamination Metric:   4.620399687E-03
   @S^2 Expected:                2.000000000E+00
   @S^2 Observed:                2.004620400E+00
   @S   Expected:                1.000000000E+00
   @S   Observed:                1.000000000E+00

    Orbital Energies [Eh]
    ---------------------

    Alpha Occupied:                                                       

       1A1   -38.229056     2A1   -18.899674     3A1    -2.017407  
       4A1    -0.997259     1B2    -0.940430     1B1    -0.940430  
       5A1    -0.639334     6A1    -0.110697     2B1    -0.080786  
       2B2    -0.080786     7A1     0.045021  

    Alpha Virtual:                                                        

       3B1     0.111034     3B2     0.111034     8A1     0.130992  
       9A1     0.198518     4B1     0.241605     4B2     0.241605  
      10A1     0.282232     1A2     0.336459    11A1     0.336459  
       5B1     0.386040     5B2     0.386040    12A1     0.421353  
      13A1     1.251004     6B1     1.327057     6B2     1.327057  
      14A1     1.879955     7B2     2.762760     7B1     2.762760  
      15A1     2.797578    16A1     2.844406     2A2     2.844448  

    Beta Occupied:                                                        

       1A1   -38.225014     2A1   -18.873272     3A1    -2.010047  
       4A1    -0.975161     1B2    -0.936944     1B1    -0.936944  
       5A1    -0.565637     2B1    -0.053383     2B2    -0.053383  

    Beta Virtual:                                                         

       6A1     0.096344     7A1     0.117248     3B1     0.121377  
       3B2     0.121377     8A1     0.146568     9A1     0.228536  
       4B1     0.259616     4B2     0.259616    10A1     0.301107  
       1A2     0.344772    11A1     0.344778     5B1     0.402117  
       5B2     0.402117    12A1     0.440026    13A1     1.342837  
       6B1     1.345312     6B2     1.345312    14A1     1.918953  
       7B2     2.844265     7B1     2.844265    15A1     2.860779  
       2A2     2.860820    16A1     2.904445  

    Final Occupation by Irrep:
             A1    A2    B1    B2 
    DOCC [     5,    0,    2,    2 ]
    SOCC [     2,    0,    0,    0 ]
    NA   [     7,    0,    2,    2 ]
    NB   [     5,    0,    2,    2 ]

  @DF-UKS Final Energy:  -237.35945432487557

   => Energetics <=

    Nuclear Repulsion Energy =             31.5815034228233351
    One-Electron Energy =                -398.8905087596019712
    Two-Electron Energy =                 148.7592435642437749
    DFT Exchange-Correlation Energy =     -18.8096925523407208
    Empirical Dispersion Energy =           0.0000000000000000
    VV10 Nonlocal Energy =                  0.0000000000000000
    Total Energy =                       -237.3594543248755713

  UHF NO Occupations:
  HONO-2 :    2 B1 1.9991547
  HONO-1 :    6 A1 1.0000000
  HONO-0 :    7 A1 1.0000000
  LUNO+0 :    3 B1 0.0008453
  LUNO+1 :    3 B2 0.0008453
  LUNO+2 :    8 A1 0.0005939
  LUNO+3 :    9 A1 0.0000258


Computation Completed


Properties will be evaluated at   0.000000,   0.000000,   0.000000 [a0]

Properties computed using the SCF density matrix


 Multipole Moments:

 ------------------------------------------------------------------------------------
     Multipole            Electronic (a.u.)      Nuclear  (a.u.)        Total (a.u.)
 ------------------------------------------------------------------------------------

 L = 1.  Multiply by 2.5417464519 to convert [e a0] to [Debye]
 Dipole X            :          0.0000000            0.0000000            0.0000000
 Dipole Y            :          0.0000000            0.0000000            0.0000000
 Dipole Z            :          1.0099886            0.5699505            1.5799391
 Magnitude           :                                                    1.5799391

 ------------------------------------------------------------------------------------

*** tstop() called on Joses-MacBook-Pro-2.local at Thu Jul 17 10:40:05 2025
Module time:
	user time   =       3.16 seconds =       0.05 minutes
	system time =       4.37 seconds =       0.07 minutes
	total time  =          0 seconds =       0.00 minutes
Total time:
	user time   =      14.70 seconds =       0.24 minutes
	system time =      18.14 seconds =       0.30 minutes
	total time  =          3 seconds =       0.05 minutes

*** tstart() called on Joses-MacBook-Pro-2.local
*** at Thu Jul 17 10:40:05 2025


         ------------------------------------------------------------
                                   SCF GRAD                          
                          Rob Parrish, Justin Turney,                
                       Andy Simmonett, and Alex Sokolov              
         ------------------------------------------------------------

  ==> Geometry <==

    Molecular point group: c2v
    Full point group: C_inf_v

    Geometry (in Angstrom), charge = -1, multiplicity = 3:

       Center              X                  Y                   Z               Mass       
    ------------   -----------------  -----------------  -----------------  -----------------
         O            0.000000000000     0.000000000000     0.869544074668    15.994914619570
         NA           0.000000000000     0.000000000000    -0.604977068785    22.989769282000

  Nuclear repulsion =   31.581503422823335

  ==> Basis Set <==

  Basis Set: CC-PVDZ
    Blend: CC-PVDZ
    Number of shells: 14
    Number of basis functions: 32
    Number of Cartesian functions: 34
    Spherical Harmonics?: true
    Max angular momentum: 2

  ==> DFJKGrad: Density-Fitted SCF Gradients <==

    Gradient:                    1
    J tasked:                  Yes
    K tasked:                  Yes
    wK tasked:                  No
    OpenMP threads:              1
    Integrals threads:           1
    Memory [MiB]:              375
    Schwarz Cutoff:          1E-12
    Fitting Condition:       1E-10

   => Auxiliary Basis Set <=

  Basis Set: (CC-PVDZ AUX)
    Blend: CC-PVDZ-JKFIT + DEF2-UNIVERSAL-JKFIT
    Number of shells: 58
    Number of basis functions: 182
    Number of Cartesian functions: 218
    Spherical Harmonics?: true
    Max angular momentum: 4

  ==> DFT Potential <==

   => LibXC <=

    Version 6.2.2
    S. Lehtola, C. Steigemann, M. J.T. Oliveira, and M. A.L. Marques.,  SoftwareX 7, 1–5 (2018) (10.1016/j.softx.2017.11.002)

   => Composite Functional: B3LYP <= 

    B3LYP Hyb-GGA Exchange-Correlation Functional

    P. J. Stephens, F. J. Devlin, C. F. Chabalowski, and M. J. Frisch.,  J. Phys. Chem. 98, 11623 (1994) (10.1021/j100096a001)

    Deriv               =              1
    GGA                 =           TRUE
    Meta                =          FALSE

    Exchange Hybrid     =           TRUE
    MP2 Hybrid          =          FALSE

   => Exchange Functionals <=

    0.0800   Slater exchange
    0.7200         Becke 88

   => Exact (HF) Exchange <=

    0.2000               HF 

   => Correlation Functionals <=

    0.1900   Vosko, Wilk & Nusair (VWN5_RPA)
    0.8100   Lee, Yang & Parr

   => LibXC Density Thresholds  <==

    XC_HYB_GGA_XC_B3LYP:  1.00E-15 

   => Molecular Quadrature <=

    Radial Scheme          =       TREUTLER
    Pruning Scheme         =           NONE
    Nuclear Scheme         =       TREUTLER

    Blocking Scheme        =         OCTREE
    BS radius alpha        =              1
    Pruning alpha          =              1
    Radial Points          =             75
    Spherical Points       =            302
    Total Points           =          43747
    Total Blocks           =            420
    Max Points             =            252
    Max Functions          =             32
    Weights Tolerance      =       1.00E-15


  -Total Gradient:
     Atom            X                  Y                   Z
    ------   -----------------  -----------------  -----------------
       1        0.000000000000    -0.000000000000    -0.324783859817
       2       -0.000000000000    -0.000000000000     0.324634987337


*** tstop() called on Joses-MacBook-Pro-2.local at Thu Jul 17 10:40:06 2025
Module time:
	user time   =       1.22 seconds =       0.02 minutes
	system time =       1.52 seconds =       0.03 minutes
	total time  =          1 seconds =       0.02 minutes
Total time:
	user time   =      15.92 seconds =       0.27 minutes
	system time =      19.66 seconds =       0.33 minutes
	total time  =          4 seconds =       0.07 minutes

    			-----------------------------------------

    			 OPTKING 3.0: for geometry optimizations 

    			     By R.A. King, Bethel University     

    			        with contributions from          

    			    A.V. Copan, J. Cayton, A. Heide      

    			-----------------------------------------

    
	                            ===> Fragment 1 <== 

	 Z (Atomic Numbers)          Masses                          Geom                  
	       8.000000            15.994915          0.00000000  0.00000000  1.64320016   
	      11.000000            22.989769          0.00000000  0.00000000 -1.14324097   

	 - Coordinate -           - BOHR/RAD -       - ANG/DEG -
	 R(1,2)           =         2.786441           1.474521


	        --- Internal Coordinate Step in ANG or DEG, aJ/ANG or AJ/DEG ---
	-------------------------------------------------------------------------------
	           Coordinate      Previous         Force          Change          New 
	           ----------      --------        ------          ------        ------
	               R(1,2)       1.47452        2.67519        0.14449       1.61901
	-------------------------------------------------------------------------------

	                                 ==> Convergence Check <==                                  
    
	Measures of convergence in internal coordinates in au.
    
	Criteria marked as inactive (o), active & met (*), and active & unmet ( ).

	----------------------------------------------------------------------------------------------
	   Step    Total Energy     Delta E     Max Force     RMS Force      Max Disp      RMS Disp   
	----------------------------------------------------------------------------------------------
	  Convergence Criteria     1.00e-06 *    3.00e-04 *             o    1.20e-03 *             o
	----------------------------------------------------------------------------------------------
	     3    -237.35945432   -1.29e-01      3.25e-01      3.25e-01 o    2.73e-01      2.73e-01 o  ~
	----------------------------------------------------------------------------------------------

Next Geometry in Ang 
	Fragment 1 (Ang)

	    O   0.0000000000   0.0000000000   0.9417871239
	   Na   0.0000000000   0.0000000000  -0.6772201180


    Structure for next step:
    Molecular point group: c2v
    Full point group: C_inf_v

    Geometry (in Angstrom), charge = -1, multiplicity = 3:

    O            0.000000000000     0.000000000000     0.954749384433
    NA           0.000000000000     0.000000000000    -0.664257857474


Scratch directory: /tmp/
gradient() will perform analytic gradient computation.
   => Libint2 <=

    Primary   basis highest AM E, G, H:  6, 6, 3
    Auxiliary basis highest AM E, G, H:  7, 7, 4
    Onebody   basis highest AM E, G, H:  -, -, -
    Solid Harmonics ordering:            Gaussian

*** tstart() called on Joses-MacBook-Pro-2.local
*** at Thu Jul 17 10:40:06 2025

   => Loading Basis Set <=

    Name: CC-PVDZ
    Role: ORBITAL
    Keyword: BASIS
    atoms 1 entry O          line   198 file /Users/joseantoniorodriguesromero/anaconda3/share/psi4/basis/cc-pvdz.gbs 
    atoms 2 entry NA         line   288 file /Users/joseantoniorodriguesromero/anaconda3/share/psi4/basis/cc-pvdz.gbs 


         ---------------------------------------------------------
                                   SCF
               by Justin Turney, Rob Parrish, Andy Simmonett
                          and Daniel G. A. Smith
                              UKS Reference
                        1 Threads,    500 MiB Core
         ---------------------------------------------------------

  ==> Geometry <==

    Molecular point group: c2v
    Full point group: C_inf_v

    Geometry (in Angstrom), charge = -1, multiplicity = 3:

       Center              X                  Y                   Z               Mass       
    ------------   -----------------  -----------------  -----------------  -----------------
         O            0.000000000000     0.000000000000     0.954749384433    15.994914619570
         NA           0.000000000000     0.000000000000    -0.664257857474    22.989769282000

  Running in c2v symmetry.

  Rotational constants: A = ************  B =      0.68183  C =      0.68183 [cm^-1]
  Rotational constants: A = ************  B =  20440.76262  C =  20440.76262 [MHz]
  Nuclear repulsion =   28.763055120181654

  Charge       = -1
  Multiplicity = 3
  Electrons    = 20
  Nalpha       = 11
  Nbeta        = 9

  ==> Algorithm <==

  SCF Algorithm Type is DF.
  DIIS enabled.
  MOM disabled.
  Fractional occupation disabled.
  Guess Type is READ.
  Energy threshold   = 1.00e-08
  Density threshold  = 1.00e-08
  Integral threshold = 1.00e-12

  ==> Primary Basis <==

  Basis Set: CC-PVDZ
    Blend: CC-PVDZ
    Number of shells: 14
    Number of basis functions: 32
    Number of Cartesian functions: 34
    Spherical Harmonics?: true
    Max angular momentum: 2

  ==> DFT Potential <==

   => LibXC <=

    Version 6.2.2
    S. Lehtola, C. Steigemann, M. J.T. Oliveira, and M. A.L. Marques.,  SoftwareX 7, 1–5 (2018) (10.1016/j.softx.2017.11.002)

   => Composite Functional: B3LYP <= 

    B3LYP Hyb-GGA Exchange-Correlation Functional

    P. J. Stephens, F. J. Devlin, C. F. Chabalowski, and M. J. Frisch.,  J. Phys. Chem. 98, 11623 (1994) (10.1021/j100096a001)

    Deriv               =              1
    GGA                 =           TRUE
    Meta                =          FALSE

    Exchange Hybrid     =           TRUE
    MP2 Hybrid          =          FALSE

   => Exchange Functionals <=

    0.0800   Slater exchange
    0.7200         Becke 88

   => Exact (HF) Exchange <=

    0.2000               HF 

   => Correlation Functionals <=

    0.1900   Vosko, Wilk & Nusair (VWN5_RPA)
    0.8100   Lee, Yang & Parr

   => LibXC Density Thresholds  <==

    XC_HYB_GGA_XC_B3LYP:  1.00E-15 

   => Molecular Quadrature <=

    Radial Scheme          =       TREUTLER
    Pruning Scheme         =           NONE
    Nuclear Scheme         =       TREUTLER

    Blocking Scheme        =         OCTREE
    BS radius alpha        =              1
    Pruning alpha          =              1
    Radial Points          =             75
    Spherical Points       =            302
    Total Points           =          43757
    Total Blocks           =            419
    Max Points             =            255
    Max Functions          =             32
    Weights Tolerance      =       1.00E-15

   => Loading Basis Set <=

    Name: (CC-PVDZ AUX)
    Role: JKFIT
    Keyword: DF_BASIS_SCF
    atoms 1 entry O          line   221 file /Users/joseantoniorodriguesromero/anaconda3/share/psi4/basis/cc-pvdz-jkfit.gbs 
    atoms 2 entry NA         line   498 file /Users/joseantoniorodriguesromero/anaconda3/share/psi4/basis/def2-universal-jkfit.gbs 

   => Loading Basis Set <=

    Name: CC-PVDZ
    Role: ORBITAL
    Keyword: BASIS
    atoms 1 entry O          line   198 file /Users/joseantoniorodriguesromero/anaconda3/share/psi4/basis/cc-pvdz.gbs 
    atoms 2 entry NA         line   288 file /Users/joseantoniorodriguesromero/anaconda3/share/psi4/basis/cc-pvdz.gbs 

  Reading orbitals from file /tmp/triplet_ONa.default.72710.180.npy, no projection.

  ==> Integral Setup <==

  DFHelper Memory: AOs need 0.002 GiB; user supplied 0.328 GiB. 
  Using in-core AOs.

  ==> MemDFJK: Density-Fitted J/K Matrices <==

    J tasked:                   Yes
    K tasked:                   Yes
    wK tasked:                   No
    OpenMP threads:               1
    Memory [MiB]:               335
    Algorithm:                 Core
    Schwarz Cutoff:           1E-12
    Mask sparsity (%):       0.0000
    Fitting Condition:        1E-10

   => Auxiliary Basis Set <=

  Basis Set: (CC-PVDZ AUX)
    Blend: CC-PVDZ-JKFIT + DEF2-UNIVERSAL-JKFIT
    Number of shells: 58
    Number of basis functions: 182
    Number of Cartesian functions: 218
    Spherical Harmonics?: true
    Max angular momentum: 4

  Cached 100.0% of DFT collocation blocks in 0.038 [GiB].

  Minimum eigenvalue in the overlap matrix is 1.8828073545E-02.
  Reciprocal condition number of the overlap matrix is 7.2259222390E-03.
    Using symmetric orthogonalization.

  ==> Pre-Iterations <==

  SCF Guess: Orbitals guess was supplied from a previous computation.

   -------------------------------------------------------
    Irrep   Nso     Nmo     Nalpha   Nbeta   Ndocc  Nsocc
   -------------------------------------------------------
     A1        16      16       7       5       5       2
     A2         2       2       0       0       0       0
     B1         7       7       2       2       2       0
     B2         7       7       2       2       2       0
   -------------------------------------------------------
    Total      32      32      11       9       9       2
   -------------------------------------------------------

  ==> Iterations <==

                           Total Energy        Delta E     RMS |[F,P]|

   @DF-UKS iter   0:  -237.42502842452171   -2.37425e+02   1.77093e-02 
   @DF-UKS iter   1:  -237.41991845002951    5.10997e-03   4.28814e-03 ADIIS/DIIS
   @DF-UKS iter   2:  -237.41515767027315    4.76078e-03   7.14839e-03 ADIIS/DIIS/DAMP=1%
   @DF-UKS iter   3:  -237.42694697234819   -1.17893e-02   3.19621e-04 ADIIS/DIIS/DAMP=1%
   @DF-UKS iter   4:  -237.42320541641797    3.74156e-03   9.56298e-05 DIIS/DAMP=1%
   @DF-UKS iter   5:  -237.42311670548150    8.87109e-05   1.67335e-05 DIIS/DAMP=1%
   @DF-UKS iter   6:  -237.42305222838266    6.44771e-05   2.22118e-06 DIIS/DAMP=1%
   @DF-UKS iter   7:  -237.42305721624655   -4.98786e-06   1.88879e-07 DIIS/DAMP=1%
   @DF-UKS iter   8:  -237.42305842790802   -1.21166e-06   4.05233e-08 DIIS/DAMP=1%
   @DF-UKS iter   9:  -237.42305834377703    8.41310e-08   1.17042e-08 DIIS/DAMP=1%
   @DF-UKS iter  10:  -237.42305836816695   -2.43899e-08   1.08793e-09 DIIS/DAMP=1%
   @DF-UKS iter  11:  -237.42305836197352    6.19343e-09   5.14387e-11 DIIS/DAMP=1%
  Energy and wave function converged.


  ==> Post-Iterations <==

   Electrons on quadrature grid:
      Nalpha   =   11.0000077236 ; deviation = 7.724e-06
      Nbeta    =    9.0000084589 ; deviation = 8.459e-06
      Ntotal   =   20.0000161825 ; deviation = 1.618e-05 

   @Spin Contamination Metric:   4.836431834E-03
   @S^2 Expected:                2.000000000E+00
   @S^2 Observed:                2.004836432E+00
   @S   Expected:                1.000000000E+00
   @S   Observed:                1.000000000E+00

    Orbital Energies [Eh]
    ---------------------

    Alpha Occupied:                                                       

       1A1   -38.242946     2A1   -18.905672     3A1    -2.014185  
       4A1    -0.970168     1B2    -0.941954     1B1    -0.941954  
       5A1    -0.654137     6A1    -0.128006     2B1    -0.072859  
       2B2    -0.072859     7A1     0.043102  

    Alpha Virtual:                                                        

       3B2     0.110909     3B1     0.110909     8A1     0.131409  
       9A1     0.195581     4B2     0.238484     4B1     0.238484  
      10A1     0.281300    11A1     0.335472     1A2     0.335472  
       5B1     0.384152     5B2     0.384152    12A1     0.424797  
      13A1     1.221287     6B2     1.312092     6B1     1.312092  
      14A1     1.867651    15A1     2.775559     7B2     2.782061  
       7B1     2.782061    16A1     2.853400     2A2     2.853476  

    Beta Occupied:                                                        

       1A1   -38.240254     2A1   -18.880041     3A1    -2.009365  
       4A1    -0.956344     1B2    -0.939607     1B1    -0.939607  
       5A1    -0.577795     2B1    -0.045304     2B2    -0.045304  

    Beta Virtual:                                                         

       6A1     0.090291     7A1     0.111277     3B2     0.121048  
       3B1     0.121048     8A1     0.143155     9A1     0.222138  
       4B2     0.256977     4B1     0.256977    10A1     0.301977  
       1A2     0.344718    11A1     0.344724     5B1     0.401084  
       5B2     0.401084    12A1     0.442033    13A1     1.315885  
       6B2     1.330431     6B1     1.330431    14A1     1.906450  
       7B2     2.864383     7B1     2.864383    15A1     2.869846  
       2A2     2.869921    16A1     2.887487  

    Final Occupation by Irrep:
             A1    A2    B1    B2 
    DOCC [     5,    0,    2,    2 ]
    SOCC [     2,    0,    0,    0 ]
    NA   [     7,    0,    2,    2 ]
    NB   [     5,    0,    2,    2 ]

  @DF-UKS Final Energy:  -237.42305836197352

   => Energetics <=

    Nuclear Repulsion Energy =             28.7630551201816544
    One-Electron Energy =                -393.3938327285586070
    Two-Electron Energy =                 145.9763643246073741
    DFT Exchange-Correlation Energy =     -18.7686450782039422
    Empirical Dispersion Energy =           0.0000000000000000
    VV10 Nonlocal Energy =                  0.0000000000000000
    Total Energy =                       -237.4230583619735171

  UHF NO Occupations:
  HONO-2 :    2 B2 1.9990849
  HONO-1 :    6 A1 1.0000000
  HONO-0 :    7 A1 1.0000000
  LUNO+0 :    3 B2 0.0009151
  LUNO+1 :    3 B1 0.0009151
  LUNO+2 :    8 A1 0.0005777
  LUNO+3 :    9 A1 0.0000108


Computation Completed


Properties will be evaluated at   0.000000,   0.000000,   0.000000 [a0]

Properties computed using the SCF density matrix


 Multipole Moments:

 ------------------------------------------------------------------------------------
     Multipole            Electronic (a.u.)      Nuclear  (a.u.)        Total (a.u.)
 ------------------------------------------------------------------------------------

 L = 1.  Multiply by 2.5417464519 to convert [e a0] to [Debye]
 Dipole X            :          0.0000000            0.0000000            0.0000000
 Dipole Y            :          0.0000000            0.0000000            0.0000000
 Dipole Z            :          0.8888093            0.6257991            1.5146084
 Magnitude           :                                                    1.5146084

 ------------------------------------------------------------------------------------

*** tstop() called on Joses-MacBook-Pro-2.local at Thu Jul 17 10:40:07 2025
Module time:
	user time   =       3.97 seconds =       0.07 minutes
	system time =       4.33 seconds =       0.07 minutes
	total time  =          1 seconds =       0.02 minutes
Total time:
	user time   =      20.02 seconds =       0.33 minutes
	system time =      24.13 seconds =       0.40 minutes
	total time  =          5 seconds =       0.08 minutes

*** tstart() called on Joses-MacBook-Pro-2.local
*** at Thu Jul 17 10:40:07 2025


         ------------------------------------------------------------
                                   SCF GRAD                          
                          Rob Parrish, Justin Turney,                
                       Andy Simmonett, and Alex Sokolov              
         ------------------------------------------------------------

  ==> Geometry <==

    Molecular point group: c2v
    Full point group: C_inf_v

    Geometry (in Angstrom), charge = -1, multiplicity = 3:

       Center              X                  Y                   Z               Mass       
    ------------   -----------------  -----------------  -----------------  -----------------
         O            0.000000000000     0.000000000000     0.954749384433    15.994914619570
         NA           0.000000000000     0.000000000000    -0.664257857474    22.989769282000

  Nuclear repulsion =   28.763055120181654

  ==> Basis Set <==

  Basis Set: CC-PVDZ
    Blend: CC-PVDZ
    Number of shells: 14
    Number of basis functions: 32
    Number of Cartesian functions: 34
    Spherical Harmonics?: true
    Max angular momentum: 2

  ==> DFJKGrad: Density-Fitted SCF Gradients <==

    Gradient:                    1
    J tasked:                  Yes
    K tasked:                  Yes
    wK tasked:                  No
    OpenMP threads:              1
    Integrals threads:           1
    Memory [MiB]:              375
    Schwarz Cutoff:          1E-12
    Fitting Condition:       1E-10

   => Auxiliary Basis Set <=

  Basis Set: (CC-PVDZ AUX)
    Blend: CC-PVDZ-JKFIT + DEF2-UNIVERSAL-JKFIT
    Number of shells: 58
    Number of basis functions: 182
    Number of Cartesian functions: 218
    Spherical Harmonics?: true
    Max angular momentum: 4

  ==> DFT Potential <==

   => LibXC <=

    Version 6.2.2
    S. Lehtola, C. Steigemann, M. J.T. Oliveira, and M. A.L. Marques.,  SoftwareX 7, 1–5 (2018) (10.1016/j.softx.2017.11.002)

   => Composite Functional: B3LYP <= 

    B3LYP Hyb-GGA Exchange-Correlation Functional

    P. J. Stephens, F. J. Devlin, C. F. Chabalowski, and M. J. Frisch.,  J. Phys. Chem. 98, 11623 (1994) (10.1021/j100096a001)

    Deriv               =              1
    GGA                 =           TRUE
    Meta                =          FALSE

    Exchange Hybrid     =           TRUE
    MP2 Hybrid          =          FALSE

   => Exchange Functionals <=

    0.0800   Slater exchange
    0.7200         Becke 88

   => Exact (HF) Exchange <=

    0.2000               HF 

   => Correlation Functionals <=

    0.1900   Vosko, Wilk & Nusair (VWN5_RPA)
    0.8100   Lee, Yang & Parr

   => LibXC Density Thresholds  <==

    XC_HYB_GGA_XC_B3LYP:  1.00E-15 

   => Molecular Quadrature <=

    Radial Scheme          =       TREUTLER
    Pruning Scheme         =           NONE
    Nuclear Scheme         =       TREUTLER

    Blocking Scheme        =         OCTREE
    BS radius alpha        =              1
    Pruning alpha          =              1
    Radial Points          =             75
    Spherical Points       =            302
    Total Points           =          43757
    Total Blocks           =            419
    Max Points             =            255
    Max Functions          =             32
    Weights Tolerance      =       1.00E-15


  -Total Gradient:
     Atom            X                  Y                   Z
    ------   -----------------  -----------------  -----------------
       1        0.000000000000    -0.000000000000    -0.157916966424
       2        0.000000000000     0.000000000000     0.157730122353


*** tstop() called on Joses-MacBook-Pro-2.local at Thu Jul 17 10:40:07 2025
Module time:
	user time   =       1.06 seconds =       0.02 minutes
	system time =       1.73 seconds =       0.03 minutes
	total time  =          0 seconds =       0.00 minutes
Total time:
	user time   =      21.08 seconds =       0.35 minutes
	system time =      25.87 seconds =       0.43 minutes
	total time  =          5 seconds =       0.08 minutes

    			-----------------------------------------

    			 OPTKING 3.0: for geometry optimizations 

    			     By R.A. King, Bethel University     

    			        with contributions from          

    			    A.V. Copan, J. Cayton, A. Heide      

    			-----------------------------------------

    
	                            ===> Fragment 1 <== 

	 Z (Atomic Numbers)          Masses                          Geom                  
	       8.000000            15.994915          0.00000000  0.00000000  1.80421486   
	      11.000000            22.989769          0.00000000  0.00000000 -1.25526543   

	 - Coordinate -           - BOHR/RAD -       - ANG/DEG -
	 R(1,2)           =         3.059480           1.619007


	        --- Internal Coordinate Step in ANG or DEG, aJ/ANG or AJ/DEG ---
	-------------------------------------------------------------------------------
	           Coordinate      Previous         Force          Change          New 
	           ----------      --------        ------          ------        ------
	               R(1,2)       1.61901        1.30026        0.12857       1.74758
	-------------------------------------------------------------------------------

	                                 ==> Convergence Check <==                                  
    
	Measures of convergence in internal coordinates in au.
    
	Criteria marked as inactive (o), active & met (*), and active & unmet ( ).

	----------------------------------------------------------------------------------------------
	   Step    Total Energy     Delta E     Max Force     RMS Force      Max Disp      RMS Disp   
	----------------------------------------------------------------------------------------------
	  Convergence Criteria     1.00e-06 *    3.00e-04 *             o    1.20e-03 *             o
	----------------------------------------------------------------------------------------------
	     4    -237.42305836   -6.36e-02      1.58e-01      1.58e-01 o    2.43e-01      2.43e-01 o  ~
	----------------------------------------------------------------------------------------------

Next Geometry in Ang 
	Fragment 1 (Ang)

	    O   0.0000000000   0.0000000000   1.0190362432
	   Na   0.0000000000   0.0000000000  -0.7285447163


    Structure for next step:
    Molecular point group: c2v
    Full point group: C_inf_v

    Geometry (in Angstrom), charge = -1, multiplicity = 3:

    O            0.000000000000     0.000000000000     1.030570958655
    NA           0.000000000000     0.000000000000    -0.717010000879


Scratch directory: /tmp/
gradient() will perform analytic gradient computation.
   => Libint2 <=

    Primary   basis highest AM E, G, H:  6, 6, 3
    Auxiliary basis highest AM E, G, H:  7, 7, 4
    Onebody   basis highest AM E, G, H:  -, -, -
    Solid Harmonics ordering:            Gaussian

*** tstart() called on Joses-MacBook-Pro-2.local
*** at Thu Jul 17 10:40:07 2025

   => Loading Basis Set <=

    Name: CC-PVDZ
    Role: ORBITAL
    Keyword: BASIS
    atoms 1 entry O          line   198 file /Users/joseantoniorodriguesromero/anaconda3/share/psi4/basis/cc-pvdz.gbs 
    atoms 2 entry NA         line   288 file /Users/joseantoniorodriguesromero/anaconda3/share/psi4/basis/cc-pvdz.gbs 


         ---------------------------------------------------------
                                   SCF
               by Justin Turney, Rob Parrish, Andy Simmonett
                          and Daniel G. A. Smith
                              UKS Reference
                        1 Threads,    500 MiB Core
         ---------------------------------------------------------

  ==> Geometry <==

    Molecular point group: c2v
    Full point group: C_inf_v

    Geometry (in Angstrom), charge = -1, multiplicity = 3:

       Center              X                  Y                   Z               Mass       
    ------------   -----------------  -----------------  -----------------  -----------------
         O            0.000000000000     0.000000000000     1.030570958655    15.994914619570
         NA           0.000000000000     0.000000000000    -0.717010000879    22.989769282000

  Running in c2v symmetry.

  Rotational constants: A = ************  B =      0.58519  C =      0.58519 [cm^-1]
  Rotational constants: A = ************  B =  17543.65462  C =  17543.65462 [MHz]
  Nuclear repulsion =   26.646888251395975

  Charge       = -1
  Multiplicity = 3
[...]

	                                 ==> Convergence Check <==                                  
    
	Measures of convergence in internal coordinates in au.
    
	Criteria marked as inactive (o), active & met (*), and active & unmet ( ).

	----------------------------------------------------------------------------------------------
	   Step    Total Energy     Delta E     Max Force     RMS Force      Max Disp      RMS Disp   
	----------------------------------------------------------------------------------------------
	  Convergence Criteria     1.00e-06 *    3.00e-04 *             o    1.20e-03 *             o
	----------------------------------------------------------------------------------------------
	    11    -237.46494402   -9.59e-06      4.23e-04      4.23e-04 o    4.27e-03      4.27e-03 o  ~
	----------------------------------------------------------------------------------------------

Next Geometry in Ang 
	Fragment 1 (Ang)

	    O   0.0000000000   0.0000000000   1.1822701698
	   Na   0.0000000000   0.0000000000  -0.8228969376


    Structure for next step:
    Molecular point group: c2v
    Full point group: C_inf_v

    Geometry (in Angstrom), charge = -1, multiplicity = 3:

    O            0.000000000000     0.000000000000     1.182472821527
    NA           0.000000000000     0.000000000000    -0.822694285805


Scratch directory: /tmp/
gradient() will perform analytic gradient computation.
   => Libint2 <=

    Primary   basis highest AM E, G, H:  6, 6, 3
    Auxiliary basis highest AM E, G, H:  7, 7, 4
    Onebody   basis highest AM E, G, H:  -, -, -
    Solid Harmonics ordering:            Gaussian

*** tstart() called on Joses-MacBook-Pro-2.local
*** at Thu Jul 17 10:40:14 2025

   => Loading Basis Set <=

    Name: CC-PVDZ
    Role: ORBITAL
    Keyword: BASIS
    atoms 1 entry O          line   198 file /Users/joseantoniorodriguesromero/anaconda3/share/psi4/basis/cc-pvdz.gbs 
    atoms 2 entry NA         line   288 file /Users/joseantoniorodriguesromero/anaconda3/share/psi4/basis/cc-pvdz.gbs 


         ---------------------------------------------------------
                                   SCF
               by Justin Turney, Rob Parrish, Andy Simmonett
                          and Daniel G. A. Smith
                              UKS Reference
                        1 Threads,    500 MiB Core
         ---------------------------------------------------------

  ==> Geometry <==

    Molecular point group: c2v
    Full point group: C_inf_v

    Geometry (in Angstrom), charge = -1, multiplicity = 3:

       Center              X                  Y                   Z               Mass       
    ------------   -----------------  -----------------  -----------------  -----------------
         O            0.000000000000     0.000000000000     1.182472821527    15.994914619570
         NA           0.000000000000     0.000000000000    -0.822694285805    22.989769282000

  Running in c2v symmetry.

  Rotational constants: A = ************  B =      0.44450  C =      0.44450 [cm^-1]
  Rotational constants: A = ************  B =  13325.80745  C =  13325.80745 [MHz]
  Nuclear repulsion =   23.223797342710824

  Charge       = -1
  Multiplicity = 3
  Electrons    = 20
  Nalpha       = 11
  Nbeta        = 9

  ==> Algorithm <==

  SCF Algorithm Type is DF.
  DIIS enabled.
  MOM disabled.
  Fractional occupation disabled.
  Guess Type is READ.
  Energy threshold   = 1.00e-08
  Density threshold  = 1.00e-08
  Integral threshold = 1.00e-12

  ==> Primary Basis <==

  Basis Set: CC-PVDZ
    Blend: CC-PVDZ
    Number of shells: 14
    Number of basis functions: 32
    Number of Cartesian functions: 34
    Spherical Harmonics?: true
    Max angular momentum: 2

  ==> DFT Potential <==

   => LibXC <=

    Version 6.2.2
    S. Lehtola, C. Steigemann, M. J.T. Oliveira, and M. A.L. Marques.,  SoftwareX 7, 1–5 (2018) (10.1016/j.softx.2017.11.002)

   => Composite Functional: B3LYP <= 

    B3LYP Hyb-GGA Exchange-Correlation Functional

    P. J. Stephens, F. J. Devlin, C. F. Chabalowski, and M. J. Frisch.,  J. Phys. Chem. 98, 11623 (1994) (10.1021/j100096a001)

    Deriv               =              1
    GGA                 =           TRUE
    Meta                =          FALSE

    Exchange Hybrid     =           TRUE
    MP2 Hybrid          =          FALSE

   => Exchange Functionals <=

    0.0800   Slater exchange
    0.7200         Becke 88

   => Exact (HF) Exchange <=

    0.2000               HF 

   => Correlation Functionals <=

    0.1900   Vosko, Wilk & Nusair (VWN5_RPA)
    0.8100   Lee, Yang & Parr

   => LibXC Density Thresholds  <==

    XC_HYB_GGA_XC_B3LYP:  1.00E-15 

   => Molecular Quadrature <=

    Radial Scheme          =       TREUTLER
    Pruning Scheme         =           NONE
    Nuclear Scheme         =       TREUTLER

    Blocking Scheme        =         OCTREE
    BS radius alpha        =              1
    Pruning alpha          =              1
    Radial Points          =             75
    Spherical Points       =            302
    Total Points           =          43783
    Total Blocks           =            424
    Max Points             =            256
    Max Functions          =             32
    Weights Tolerance      =       1.00E-15

   => Loading Basis Set <=

    Name: (CC-PVDZ AUX)
    Role: JKFIT
    Keyword: DF_BASIS_SCF
    atoms 1 entry O          line   221 file /Users/joseantoniorodriguesromero/anaconda3/share/psi4/basis/cc-pvdz-jkfit.gbs 
    atoms 2 entry NA         line   498 file /Users/joseantoniorodriguesromero/anaconda3/share/psi4/basis/def2-universal-jkfit.gbs 

   => Loading Basis Set <=

    Name: CC-PVDZ
    Role: ORBITAL
    Keyword: BASIS
    atoms 1 entry O          line   198 file /Users/joseantoniorodriguesromero/anaconda3/share/psi4/basis/cc-pvdz.gbs 
    atoms 2 entry NA         line   288 file /Users/joseantoniorodriguesromero/anaconda3/share/psi4/basis/cc-pvdz.gbs 

  Reading orbitals from file /tmp/triplet_ONa.default.72710.180.npy, no projection.

  ==> Integral Setup <==

  DFHelper Memory: AOs need 0.002 GiB; user supplied 0.328 GiB. 
  Using in-core AOs.

  ==> MemDFJK: Density-Fitted J/K Matrices <==

    J tasked:                   Yes
    K tasked:                   Yes
    wK tasked:                   No
    OpenMP threads:               1
    Memory [MiB]:               336
    Algorithm:                 Core
    Schwarz Cutoff:           1E-12
    Mask sparsity (%):       0.0000
    Fitting Condition:        1E-10

   => Auxiliary Basis Set <=

  Basis Set: (CC-PVDZ AUX)
    Blend: CC-PVDZ-JKFIT + DEF2-UNIVERSAL-JKFIT
    Number of shells: 58
    Number of basis functions: 182
    Number of Cartesian functions: 218
    Spherical Harmonics?: true
    Max angular momentum: 4

  Cached 100.0% of DFT collocation blocks in 0.038 [GiB].

  Minimum eigenvalue in the overlap matrix is 2.1228114067E-02.
  Reciprocal condition number of the overlap matrix is 8.1999293919E-03.
    Using symmetric orthogonalization.

  ==> Pre-Iterations <==

  SCF Guess: Orbitals guess was supplied from a previous computation.

   -------------------------------------------------------
    Irrep   Nso     Nmo     Nalpha   Nbeta   Ndocc  Nsocc
   -------------------------------------------------------
     A1        16      16       7       5       5       2
     A2         2       2       0       0       0       0
     B1         7       7       2       2       2       0
     B2         7       7       2       2       2       0
   -------------------------------------------------------
    Total      32      32      11       9       9       2
   -------------------------------------------------------

  ==> Iterations <==

                           Total Energy        Delta E     RMS |[F,P]|

   @DF-UKS iter   0:  -237.46482601123824   -2.37465e+02   8.82224e-05 
   @DF-UKS iter   1:  -237.46494460747653   -1.18596e-04   1.66706e-05 DIIS
   @DF-UKS iter   2:  -237.46494445820397    1.49273e-07   3.58181e-05 DIIS/DAMP=1%
   @DF-UKS iter   3:  -237.46492522967117    1.92285e-05   2.69629e-06 DIIS/DAMP=1%
   @DF-UKS iter   4:  -237.46494344729524   -1.82176e-05   6.36596e-07 DIIS/DAMP=1%
   @DF-UKS iter   5:  -237.46494425779161   -8.10496e-07   2.52291e-08 DIIS/DAMP=1%
   @DF-UKS iter   6:  -237.46494467954491   -4.21753e-07   4.96844e-09 DIIS/DAMP=1%
   @DF-UKS iter   7:  -237.46494467504354    4.50137e-09   6.85243e-10 DIIS/DAMP=1%
  Energy and wave function converged.


  ==> Post-Iterations <==

   Electrons on quadrature grid:
      Nalpha   =   10.9999812013 ; deviation = -1.880e-05
      Nbeta    =    8.9999814490 ; deviation = -1.855e-05
      Ntotal   =   19.9999626503 ; deviation = -3.735e-05 

   @Spin Contamination Metric:   5.836221340E-03
   @S^2 Expected:                2.000000000E+00
   @S^2 Observed:                2.005836221E+00
   @S   Expected:                1.000000000E+00
   @S   Observed:                1.000000000E+00

    Orbital Energies [Eh]
    ---------------------

    Alpha Occupied:                                                       

       1A1   -38.280680     2A1   -18.901750     3A1    -2.031007  
       4A1    -0.963799     1B2    -0.962533     1B1    -0.962533  
       5A1    -0.647913     6A1    -0.124632     2B1    -0.049166  
       2B2    -0.049166     7A1     0.036056  

    Alpha Virtual:                                                        

       3B1     0.109148     3B2     0.109148     8A1     0.131831  
       9A1     0.187667     4B1     0.227282     4B2     0.227282  
      10A1     0.272890     1A2     0.329219    11A1     0.329219  
       5B1     0.371455     5B2     0.371455    12A1     0.431573  
      13A1     1.167954     6B1     1.273290     6B2     1.273290  
      14A1     1.846924    15A1     2.790684     7B2     2.821964  
       7B1     2.821964     2A2     2.874757    16A1     2.874947  

    Beta Occupied:                                                        

       1A1   -38.279352     2A1   -18.877376     3A1    -2.028565  
       1B2    -0.961247     1B1    -0.961247     4A1    -0.959723  
       5A1    -0.569314     2B1    -0.021278     2B2    -0.021278  

    Beta Virtual:                                                         

       6A1     0.083264     7A1     0.111863     3B1     0.119089  
       3B2     0.119089     8A1     0.141504     9A1     0.211649  
       4B1     0.246996     4B2     0.246996    10A1     0.300974  
       1A2     0.341510    11A1     0.341516     5B1     0.390549  
       5B2     0.390549    12A1     0.448403    13A1     1.265313  
       6B1     1.291645     6B2     1.291645    14A1     1.886648  
       2A2     2.891235    15A1     2.891437     7B2     2.903066  
       7B1     2.903066    16A1     2.903707  

    Final Occupation by Irrep:
             A1    A2    B1    B2 
    DOCC [     5,    0,    2,    2 ]
    SOCC [     2,    0,    0,    0 ]
    NA   [     7,    0,    2,    2 ]
    NB   [     5,    0,    2,    2 ]

  @DF-UKS Final Energy:  -237.46494467504354

   => Energetics <=

    Nuclear Repulsion Energy =             23.2237973427108244
    One-Electron Energy =                -382.3568857135238659
    Two-Electron Energy =                 140.3792749856487774
    DFT Exchange-Correlation Energy =     -18.7111312898793010
    Empirical Dispersion Energy =           0.0000000000000000
    VV10 Nonlocal Energy =                  0.0000000000000000
    Total Energy =                       -237.4649446750435402

  UHF NO Occupations:
  HONO-2 :    2 B2 1.9987953
  HONO-1 :    6 A1 1.0000000
  HONO-0 :    7 A1 1.0000000
  LUNO+0 :    3 B2 0.0012047
  LUNO+1 :    3 B1 0.0012047
  LUNO+2 :    8 A1 0.0005087
  LUNO+3 :    9 A1 0.0000010


Computation Completed


Properties will be evaluated at   0.000000,   0.000000,   0.000000 [a0]

Properties computed using the SCF density matrix


 Multipole Moments:

 ------------------------------------------------------------------------------------
     Multipole            Electronic (a.u.)      Nuclear  (a.u.)        Total (a.u.)
 ------------------------------------------------------------------------------------

 L = 1.  Multiply by 2.5417464519 to convert [e a0] to [Debye]
 Dipole X            :          0.0000000            0.0000000            0.0000000
 Dipole Y            :          0.0000000            0.0000000            0.0000000
 Dipole Z            :          0.3829456            0.7750625            1.1580081
 Magnitude           :                                                    1.1580081

 ------------------------------------------------------------------------------------

*** tstop() called on Joses-MacBook-Pro-2.local at Thu Jul 17 10:40:15 2025
Module time:
	user time   =       2.67 seconds =       0.04 minutes
	system time =       3.50 seconds =       0.06 minutes
	total time  =          1 seconds =       0.02 minutes
Total time:
	user time   =      54.98 seconds =       0.92 minutes
	system time =      68.90 seconds =       1.15 minutes
	total time  =         13 seconds =       0.22 minutes

*** tstart() called on Joses-MacBook-Pro-2.local
*** at Thu Jul 17 10:40:15 2025


         ------------------------------------------------------------
                                   SCF GRAD                          
                          Rob Parrish, Justin Turney,                
                       Andy Simmonett, and Alex Sokolov              
         ------------------------------------------------------------

  ==> Geometry <==

    Molecular point group: c2v
    Full point group: C_inf_v

    Geometry (in Angstrom), charge = -1, multiplicity = 3:

       Center              X                  Y                   Z               Mass       
    ------------   -----------------  -----------------  -----------------  -----------------
         O            0.000000000000     0.000000000000     1.182472821527    15.994914619570
         NA           0.000000000000     0.000000000000    -0.822694285805    22.989769282000

  Nuclear repulsion =   23.223797342710824

  ==> Basis Set <==

  Basis Set: CC-PVDZ
    Blend: CC-PVDZ
    Number of shells: 14
    Number of basis functions: 32
    Number of Cartesian functions: 34
    Spherical Harmonics?: true
    Max angular momentum: 2

  ==> DFJKGrad: Density-Fitted SCF Gradients <==

    Gradient:                    1
    J tasked:                  Yes
    K tasked:                  Yes
    wK tasked:                  No
    OpenMP threads:              1
    Integrals threads:           1
    Memory [MiB]:              375
    Schwarz Cutoff:          1E-12
    Fitting Condition:       1E-10

   => Auxiliary Basis Set <=

  Basis Set: (CC-PVDZ AUX)
    Blend: CC-PVDZ-JKFIT + DEF2-UNIVERSAL-JKFIT
    Number of shells: 58
    Number of basis functions: 182
    Number of Cartesian functions: 218
    Spherical Harmonics?: true
    Max angular momentum: 4

  ==> DFT Potential <==

   => LibXC <=

    Version 6.2.2
    S. Lehtola, C. Steigemann, M. J.T. Oliveira, and M. A.L. Marques.,  SoftwareX 7, 1–5 (2018) (10.1016/j.softx.2017.11.002)

   => Composite Functional: B3LYP <= 

    B3LYP Hyb-GGA Exchange-Correlation Functional

    P. J. Stephens, F. J. Devlin, C. F. Chabalowski, and M. J. Frisch.,  J. Phys. Chem. 98, 11623 (1994) (10.1021/j100096a001)

    Deriv               =              1
    GGA                 =           TRUE
    Meta                =          FALSE

    Exchange Hybrid     =           TRUE
    MP2 Hybrid          =          FALSE

   => Exchange Functionals <=

    0.0800   Slater exchange
    0.7200         Becke 88

   => Exact (HF) Exchange <=

    0.2000               HF 

   => Correlation Functionals <=

    0.1900   Vosko, Wilk & Nusair (VWN5_RPA)
    0.8100   Lee, Yang & Parr

   => LibXC Density Thresholds  <==

    XC_HYB_GGA_XC_B3LYP:  1.00E-15 

   => Molecular Quadrature <=

    Radial Scheme          =       TREUTLER
    Pruning Scheme         =           NONE
    Nuclear Scheme         =       TREUTLER

    Blocking Scheme        =         OCTREE
    BS radius alpha        =              1
    Pruning alpha          =              1
    Radial Points          =             75
    Spherical Points       =            302
    Total Points           =          43783
    Total Blocks           =            424
    Max Points             =            256
    Max Functions          =             32
    Weights Tolerance      =       1.00E-15


  -Total Gradient:
     Atom            X                  Y                   Z
    ------   -----------------  -----------------  -----------------
       1        0.000000000000    -0.000000000000    -0.000131137377
       2       -0.000000000000     0.000000000000     0.000034073711


*** tstop() called on Joses-MacBook-Pro-2.local at Thu Jul 17 10:40:15 2025
Module time:
	user time   =       1.16 seconds =       0.02 minutes
	system time =       1.60 seconds =       0.03 minutes
	total time  =          0 seconds =       0.00 minutes
Total time:
	user time   =      56.14 seconds =       0.94 minutes
	system time =      70.50 seconds =       1.18 minutes
	total time  =         13 seconds =       0.22 minutes

    			-----------------------------------------

    			 OPTKING 3.0: for geometry optimizations 

    			     By R.A. King, Bethel University     

    			        with contributions from          

    			    A.V. Copan, J. Cayton, A. Heide      

    			-----------------------------------------

    
	                            ===> Fragment 1 <== 

	 Z (Atomic Numbers)          Masses                          Geom                  
	       8.000000            15.994915          0.00000000  0.00000000  2.23454978   
	      11.000000            22.989769          0.00000000  0.00000000 -1.55466689   

	 - Coordinate -           - BOHR/RAD -       - ANG/DEG -
	 R(1,2)           =         3.789217           2.005167


	        --- Internal Coordinate Step in ANG or DEG, aJ/ANG or AJ/DEG ---
	-------------------------------------------------------------------------------
	           Coordinate      Previous         Force          Change          New 
	           ----------      --------        ------          ------        ------
	               R(1,2)       2.00517        0.00068        0.00050       2.00567
	-------------------------------------------------------------------------------

	                                 ==> Convergence Check <==                                  
    
	Measures of convergence in internal coordinates in au.
    
	Criteria marked as inactive (o), active & met (*), and active & unmet ( ).

	----------------------------------------------------------------------------------------------
	   Step    Total Energy     Delta E     Max Force     RMS Force      Max Disp      RMS Disp   
	----------------------------------------------------------------------------------------------
	  Convergence Criteria     1.00e-06 *    3.00e-04 *             o    1.20e-03 *             o
	----------------------------------------------------------------------------------------------
	    12    -237.46494468   -6.58e-07 *    8.26e-05 *    8.26e-05 o    9.45e-04 *    9.45e-04 o  ~
	----------------------------------------------------------------------------------------------

Next Geometry in Ang 
	Fragment 1 (Ang)

	    O   0.0000000000   0.0000000000   1.1827229136
	   Na   0.0000000000   0.0000000000  -0.8229443778


    Final optimized geometry and variables:
    Molecular point group: c2v
    Full point group: C_inf_v

    Geometry (in Angstrom), charge = -1, multiplicity = 3:

    O            0.000000000000     0.000000000000     1.182472821527
    NA           0.000000000000     0.000000000000    -0.822694285805


    Psi4 stopped on: Thursday, 17 July 2025 10:40AM
    Psi4 wall time for execution: 0:00:13.83

*** Psi4 exiting successfully. Buy a developer a beer!
