
    -----------------------------------------------------------------------
          Psi4: An Open-Source Ab Initio Electronic Structure Package
                               Psi4 1.9.1 release

                         Git: Rev {} zzzzzzz 


    D. G. A. Smith, L. A. Burns, A. C. Simmonett, R. M. Parrish,
    M. C. Schieber, R. Galvelis, P. Kraus, H. Kruse, R. Di Remigio,
    A. Alenaizan, A. M. James, S. Lehtola, J. P. Misiewicz, M. Scheurer,
    R. A. Shaw, J. B. Schriber, Y. Xie, Z. L. Glick, D. A. Sirianni,
    J. S. O'Brien, J. M. Waldrop, A. Kumar, E. G. Hohenstein,
    B. P. Pritchard, B. R. Brooks, H. F. Schaefer III, A. Yu. Sokolov,
    K. Patkowski, A. E. DePrince III, U. Bozkaya, R. A. King,
    F. A. Evangelista, J. M. Turney, T. D. Crawford, C. D. Sherrill,
    J. Chem. Phys. 152(18) 184108 (2020). https://doi.org/10.1063/5.0006002

                            Additional Code Authors
    E. T. Seidl, C. L. Janssen, E. F. Valeev, M. L. Leininger,
    J. F. Gonthier, R. M. Richard, H. R. McAlexander, M. Saitow, X. Wang,
    P. Verma, M. H. Lechner, A. Jiang, S. Behnle, A. G. Heide,
    M. F. Herbst, and D. L. Poole

             Previous Authors, Complete List of Code Contributors,
                       and Citations for Specific Modules
    https://github.com/psi4/psi4/blob/master/codemeta.json
    https://github.com/psi4/psi4/graphs/contributors
    http://psicode.org/psi4manual/master/introduction.html#citing-psifour

    -----------------------------------------------------------------------


    Psi4 started on: Thursday, 17 July 2025 10:00AM

    Process ID: 72456
    Host:       Joses-MacBook-Pro-2.local
    PSIDATADIR: /Users/joseantoniorodriguesromero/anaconda3/share/psi4
    Memory:     500.0 MiB
    Threads:    1
    
  ==> Input File <==

--------------------------------------------------------------------------
molecule { 
-1 3
C   0.00000        0.60000        0.00000
Na   0.00000       -0.60000        0.00000
}

set { 
basis              cc-pvdz
reference          uks
maxiter            500
geom_maxiter       500
DAMPING_PERCENTAGE 1
guess              SAP
}

optimize('b3lyp')
--------------------------------------------------------------------------

Scratch directory: /tmp/
gradient() will perform analytic gradient computation.
   => Libint2 <=

    Primary   basis highest AM E, G, H:  6, 6, 3
    Auxiliary basis highest AM E, G, H:  7, 7, 4
    Onebody   basis highest AM E, G, H:  -, -, -
    Solid Harmonics ordering:            Gaussian

*** tstart() called on Joses-MacBook-Pro-2.local
*** at Thu Jul 17 10:00:25 2025

   => Loading Basis Set <=

    Name: CC-PVDZ
    Role: ORBITAL
    Keyword: BASIS
    atoms 1 entry C          line   138 file /Users/joseantoniorodriguesromero/anaconda3/share/psi4/basis/cc-pvdz.gbs 
    atoms 2 entry NA         line   288 file /Users/joseantoniorodriguesromero/anaconda3/share/psi4/basis/cc-pvdz.gbs 


         ---------------------------------------------------------
                                   SCF
               by Justin Turney, Rob Parrish, Andy Simmonett
                          and Daniel G. A. Smith
                              UKS Reference
                        1 Threads,    500 MiB Core
         ---------------------------------------------------------

  ==> Geometry <==

    Molecular point group: c2v
    Full point group: C_inf_v

    Geometry (in Angstrom), charge = -1, multiplicity = 3:

       Center              X                  Y                   Z               Mass       
    ------------   -----------------  -----------------  -----------------  -----------------
         C            0.000000000000     0.000000000000     0.788451130273    12.000000000000
         NA           0.000000000000     0.000000000000    -0.411548869727    22.989769282000

  Running in c2v symmetry.

  Rotational constants: A = ************  B =      1.48477  C =      1.48477 [cm^-1]
  Rotational constants: A = ************  B =  44512.28891  C =  44512.28891 [MHz]
  Nuclear repulsion =   29.104746586850005

  Charge       = -1
  Multiplicity = 3
  Electrons    = 18
  Nalpha       = 10
  Nbeta        = 8

  ==> Algorithm <==

  SCF Algorithm Type is DF.
  DIIS enabled.
  MOM disabled.
  Fractional occupation disabled.
  Guess Type is SAP.
  Energy threshold   = 1.00e-08
  Density threshold  = 1.00e-08
  Integral threshold = 1.00e-12

  ==> Primary Basis <==

  Basis Set: CC-PVDZ
    Blend: CC-PVDZ
    Number of shells: 14
    Number of basis functions: 32
    Number of Cartesian functions: 34
    Spherical Harmonics?: true
    Max angular momentum: 2

  ==> DFT Potential <==

   => LibXC <=

    Version 6.2.2
    S. Lehtola, C. Steigemann, M. J.T. Oliveira, and M. A.L. Marques.,  SoftwareX 7, 1–5 (2018) (10.1016/j.softx.2017.11.002)

   => Composite Functional: B3LYP <= 

    B3LYP Hyb-GGA Exchange-Correlation Functional

    P. J. Stephens, F. J. Devlin, C. F. Chabalowski, and M. J. Frisch.,  J. Phys. Chem. 98, 11623 (1994) (10.1021/j100096a001)

    Deriv               =              1
    GGA                 =           TRUE
    Meta                =          FALSE

    Exchange Hybrid     =           TRUE
    MP2 Hybrid          =          FALSE

   => Exchange Functionals <=

    0.0800   Slater exchange
    0.7200         Becke 88

   => Exact (HF) Exchange <=

    0.2000               HF 

   => Correlation Functionals <=

    0.1900   Vosko, Wilk & Nusair (VWN5_RPA)
    0.8100   Lee, Yang & Parr

   => LibXC Density Thresholds  <==

    XC_HYB_GGA_XC_B3LYP:  1.00E-15 

   => Molecular Quadrature <=

    Radial Scheme          =       TREUTLER
    Pruning Scheme         =           NONE
    Nuclear Scheme         =       TREUTLER

    Blocking Scheme        =         OCTREE
    BS radius alpha        =              1
    Pruning alpha          =              1
    Radial Points          =             75
    Spherical Points       =            302
    Total Points           =          43708
    Total Blocks           =            425
    Max Points             =            256
    Max Functions          =             32
    Weights Tolerance      =       1.00E-15

   => Loading Basis Set <=

    Name: (CC-PVDZ AUX)
    Role: JKFIT
    Keyword: DF_BASIS_SCF
    atoms 1 entry C          line   121 file /Users/joseantoniorodriguesromero/anaconda3/share/psi4/basis/cc-pvdz-jkfit.gbs 
    atoms 2 entry NA         line   498 file /Users/joseantoniorodriguesromero/anaconda3/share/psi4/basis/def2-universal-jkfit.gbs 

  ==> Integral Setup <==

  DFHelper Memory: AOs need 0.002 GiB; user supplied 0.327 GiB. 
  Using in-core AOs.

  ==> MemDFJK: Density-Fitted J/K Matrices <==

    J tasked:                   Yes
    K tasked:                   Yes
    wK tasked:                   No
    OpenMP threads:               1
    Memory [MiB]:               334
    Algorithm:                 Core
    Schwarz Cutoff:           1E-12
    Mask sparsity (%):       0.0000
    Fitting Condition:        1E-10

   => Auxiliary Basis Set <=

  Basis Set: (CC-PVDZ AUX)
    Blend: CC-PVDZ-JKFIT + DEF2-UNIVERSAL-JKFIT
    Number of shells: 58
    Number of basis functions: 182
    Number of Cartesian functions: 218
    Spherical Harmonics?: true
    Max angular momentum: 4

  Cached 100.0% of DFT collocation blocks in 0.039 [GiB].

  Minimum eigenvalue in the overlap matrix is 5.9179638070E-03.
  Reciprocal condition number of the overlap matrix is 2.0436103089E-03.
    Using symmetric orthogonalization.

  ==> Pre-Iterations <==

  SCF Guess: Superposition of Atomic Potentials (doi:10.1021/acs.jctc.8b01089).

  ==> SAP guess <==

   => Molecular Quadrature <=

    Radial Scheme          =       TREUTLER
    Pruning Scheme         =           NONE
    Nuclear Scheme         =       TREUTLER

    Blocking Scheme        =         OCTREE
    BS radius alpha        =              1
    Pruning alpha          =              1
    Radial Points          =             75
    Spherical Points       =            302
    Total Points           =          43708
    Total Blocks           =            425
    Max Points             =            256
    Max Functions          =             32
    Weights Tolerance      =       1.00E-15

   -------------------------------------------------------
    Irrep   Nso     Nmo     Nalpha   Nbeta   Ndocc  Nsocc
   -------------------------------------------------------
     A1        16      16       6       5       5       1
     A2         2       2       0       0       0       0
     B1         7       7       2       2       2       0
     B2         7       7       2       1       1       1
   -------------------------------------------------------
    Total      32      32      10       8       8       2
   -------------------------------------------------------

  ==> Iterations <==

                           Total Energy        Delta E     RMS |[F,P]|

   @DF-UKS iter   1:  -199.12707630072734   -1.99127e+02   4.38950e-02 DIIS/ADIIS
   @DF-UKS iter   2:  -195.52030982836510    3.60677e+00   5.47155e-02 DIIS/ADIIS/DAMP=1%
   @DF-UKS iter   3:  -199.56582518706566   -4.04552e+00   1.00151e-02 DIIS/ADIIS/DAMP=1%
   @DF-UKS iter   4:  -199.78640998181183   -2.20585e-01   9.66327e-03 DIIS/ADIIS/DAMP=1%
   @DF-UKS iter   5:  -199.78945274677312   -3.04276e-03   1.96213e-03 DIIS/ADIIS/DAMP=1%
   @DF-UKS iter   6:  -199.79657552532342   -7.12278e-03   7.56221e-04 DIIS/ADIIS/DAMP=1%
   @DF-UKS iter   7:  -199.80008790930981   -3.51238e-03   2.67098e-04 DIIS/ADIIS/DAMP=1%
   @DF-UKS iter   8:  -199.79969246479143    3.95445e-04   6.66642e-05 DIIS/DAMP=1%
   @DF-UKS iter   9:  -199.79966604634797    2.64184e-05   9.80827e-06 DIIS/DAMP=1%
   @DF-UKS iter  10:  -199.79958573223803    8.03141e-05   5.53879e-06 DIIS/DAMP=1%
   @DF-UKS iter  11:  -199.79957555179539    1.01804e-05   7.88533e-07 DIIS/DAMP=1%
   @DF-UKS iter  12:  -199.79958224340487   -6.69161e-06   1.52352e-07 DIIS/DAMP=1%
   @DF-UKS iter  13:  -199.79958146207369    7.81331e-07   6.90290e-08 DIIS/DAMP=1%
   @DF-UKS iter  14:  -199.79958164026459   -1.78191e-07   1.15312e-08 DIIS/DAMP=1%
   @DF-UKS iter  15:  -199.79958160810887    3.21557e-08   9.37951e-10 DIIS/DAMP=1%
   @DF-UKS iter  16:  -199.79958160041747    7.69140e-09   1.49625e-10 DIIS/DAMP=1%
  Energy and wave function converged.


  ==> Post-Iterations <==

   Electrons on quadrature grid:
      Nalpha   =   10.0000002252 ; deviation = 2.252e-07
      Nbeta    =    7.9999999718 ; deviation = -2.823e-08
      Ntotal   =   18.0000001969 ; deviation = 1.969e-07 

   @Spin Contamination Metric:   5.649305428E-03
   @S^2 Expected:                2.000000000E+00
   @S^2 Observed:                2.005649305E+00
   @S   Expected:                1.000000000E+00
   @S   Observed:                1.000000000E+00

    Orbital Energies [Eh]
    ---------------------

    Alpha Occupied:                                                       

       1A1   -38.477401     2A1   -10.053189     3A1    -2.233189  
       4A1    -1.215283     1B2    -1.130258     1B1    -1.122270  
       5A1    -0.270331     2B2    -0.058854     2B1    -0.012539  
       6A1     0.038950  

    Alpha Virtual:                                                        

       3B2     0.115237     3B1     0.118548     7A1     0.132040  
       8A1     0.159797     4B2     0.233231     4B1     0.240385  
       9A1     0.244772     1A2     0.320689    10A1     0.320854  
      11A1     0.348744     5B2     0.369363     5B1     0.380725  
      12A1     0.411437    13A1     0.813033     6B2     0.828730  
       6B1     0.857656    14A1     1.198608     7B2     1.345654  
      15A1     1.371192     2A2     1.371303     7B1     1.380661  
      16A1     1.763852  

    Beta Occupied:                                                        

       1A1   -38.474841     2A1   -10.038097     3A1    -2.228581  
       4A1    -1.209102     1B2    -1.120794     1B1    -1.119895  
       5A1    -0.215153     2B1     0.006140  

    Beta Virtual:                                                         

       2B2     0.090153     6A1     0.099200     3B1     0.124449  
       7A1     0.135490     3B2     0.139211     8A1     0.177934  
       4B1     0.257857     4B2     0.264704     9A1     0.280424  
       1A2     0.331667    10A1     0.335534    11A1     0.371143  
       5B1     0.396174     5B2     0.404087    12A1     0.428338  
      13A1     0.827468     6B1     0.867935     6B2     0.886983  
      14A1     1.222004     7B1     1.391204     7B2     1.402448  
       2A2     1.422920    15A1     1.429292    16A1     1.787425  

    Final Occupation by Irrep:
             A1    A2    B1    B2 
    DOCC [     5,    0,    2,    1 ]
    SOCC [     1,    0,    0,    1 ]
    NA   [     6,    0,    2,    2 ]
    NB   [     5,    0,    2,    1 ]

  @DF-UKS Final Energy:  -199.79958160041747

   => Energetics <=

    Nuclear Repulsion Energy =             29.1047465868500055
    One-Electron Energy =                -337.3020826390657021
    Two-Electron Energy =                 124.5482871368907922
    DFT Exchange-Correlation Energy =     -16.1505326850925783
    Empirical Dispersion Energy =           0.0000000000000000
    VV10 Nonlocal Energy =                  0.0000000000000000
    Total Energy =                       -199.7995816004174685

  UHF NO Occupations:
  HONO-2 :    5 A1 1.9985211
  HONO-1 :    6 A1 1.0000000
  HONO-0 :    2 B2 1.0000000
  LUNO+0 :    7 A1 0.0014789
  LUNO+1 :    3 B1 0.0013343
  LUNO+2 :    8 A1 0.0000067
  LUNO+3 :    3 B2 0.0000062


Computation Completed


Properties will be evaluated at   0.000000,   0.000000,   0.000000 [a0]

Properties computed using the SCF density matrix


 Multipole Moments:

 ------------------------------------------------------------------------------------
     Multipole            Electronic (a.u.)      Nuclear  (a.u.)        Total (a.u.)
 ------------------------------------------------------------------------------------

 L = 1.  Multiply by 2.5417464519 to convert [e a0] to [Debye]
 Dipole X            :          0.0000000            0.0000000            0.0000000
 Dipole Y            :          0.0000000            0.0000000            0.0000000
 Dipole Z            :          0.6722042            0.3848790            1.0570832
 Magnitude           :                                                    1.0570832

 ------------------------------------------------------------------------------------

*** tstop() called on Joses-MacBook-Pro-2.local at Thu Jul 17 10:00:26 2025
Module time:
	user time   =       6.58 seconds =       0.11 minutes
	system time =       5.21 seconds =       0.09 minutes
	total time  =          1 seconds =       0.02 minutes
Total time:
	user time   =       6.58 seconds =       0.11 minutes
	system time =       5.21 seconds =       0.09 minutes
	total time  =          1 seconds =       0.02 minutes

*** tstart() called on Joses-MacBook-Pro-2.local
*** at Thu Jul 17 10:00:26 2025


         ------------------------------------------------------------
                                   SCF GRAD                          
                          Rob Parrish, Justin Turney,                
                       Andy Simmonett, and Alex Sokolov              
         ------------------------------------------------------------

  ==> Geometry <==

    Molecular point group: c2v
    Full point group: C_inf_v

    Geometry (in Angstrom), charge = -1, multiplicity = 3:

       Center              X                  Y                   Z               Mass       
    ------------   -----------------  -----------------  -----------------  -----------------
         C            0.000000000000     0.000000000000     0.788451130273    12.000000000000
         NA           0.000000000000     0.000000000000    -0.411548869727    22.989769282000

  Nuclear repulsion =   29.104746586850005

  ==> Basis Set <==

  Basis Set: CC-PVDZ
    Blend: CC-PVDZ
    Number of shells: 14
    Number of basis functions: 32
    Number of Cartesian functions: 34
    Spherical Harmonics?: true
    Max angular momentum: 2

  ==> DFJKGrad: Density-Fitted SCF Gradients <==

    Gradient:                    1
    J tasked:                  Yes
    K tasked:                  Yes
    wK tasked:                  No
    OpenMP threads:              1
    Integrals threads:           1
    Memory [MiB]:              375
    Schwarz Cutoff:          1E-12
    Fitting Condition:       1E-10

   => Auxiliary Basis Set <=

  Basis Set: (CC-PVDZ AUX)
    Blend: CC-PVDZ-JKFIT + DEF2-UNIVERSAL-JKFIT
    Number of shells: 58
    Number of basis functions: 182
    Number of Cartesian functions: 218
    Spherical Harmonics?: true
    Max angular momentum: 4

  ==> DFT Potential <==

   => LibXC <=

    Version 6.2.2
    S. Lehtola, C. Steigemann, M. J.T. Oliveira, and M. A.L. Marques.,  SoftwareX 7, 1–5 (2018) (10.1016/j.softx.2017.11.002)

   => Composite Functional: B3LYP <= 

    B3LYP Hyb-GGA Exchange-Correlation Functional

    P. J. Stephens, F. J. Devlin, C. F. Chabalowski, and M. J. Frisch.,  J. Phys. Chem. 98, 11623 (1994) (10.1021/j100096a001)

    Deriv               =              1
    GGA                 =           TRUE
    Meta                =          FALSE

    Exchange Hybrid     =           TRUE
    MP2 Hybrid          =          FALSE

   => Exchange Functionals <=

    0.0800   Slater exchange
    0.7200         Becke 88

   => Exact (HF) Exchange <=

    0.2000               HF 

   => Correlation Functionals <=

    0.1900   Vosko, Wilk & Nusair (VWN5_RPA)
    0.8100   Lee, Yang & Parr

   => LibXC Density Thresholds  <==

    XC_HYB_GGA_XC_B3LYP:  1.00E-15 

   => Molecular Quadrature <=

    Radial Scheme          =       TREUTLER
    Pruning Scheme         =           NONE
    Nuclear Scheme         =       TREUTLER

    Blocking Scheme        =         OCTREE
    BS radius alpha        =              1
    Pruning alpha          =              1
    Radial Points          =             75
    Spherical Points       =            302
    Total Points           =          43708
    Total Blocks           =            425
    Max Points             =            256
    Max Functions          =             32
    Weights Tolerance      =       1.00E-15


  -Total Gradient:
     Atom            X                  Y                   Z
    ------   -----------------  -----------------  -----------------
       1        0.000000000000     0.000000000000    -0.695322436918
       2        0.000000000000     0.000000000000     0.695294072198


*** tstop() called on Joses-MacBook-Pro-2.local at Thu Jul 17 10:00:26 2025
Module time:
	user time   =       0.73 seconds =       0.01 minutes
	system time =       2.18 seconds =       0.04 minutes
	total time  =          0 seconds =       0.00 minutes
Total time:
	user time   =       7.32 seconds =       0.12 minutes
	system time =       7.39 seconds =       0.12 minutes
	total time  =          1 seconds =       0.02 minutes

    			-----------------------------------------

    			 OPTKING 3.0: for geometry optimizations 

    			     By R.A. King, Bethel University     

    			        with contributions from          

    			    A.V. Copan, J. Cayton, A. Heide      

    			-----------------------------------------

    
	                            ===> Fragment 1 <== 

	 Z (Atomic Numbers)          Masses                          Geom                  
	       6.000000            12.000000          0.00000000  0.00000000  1.48995670   
	      11.000000            22.989769          0.00000000  0.00000000 -0.77771465   

	 - Coordinate -           - BOHR/RAD -       - ANG/DEG -
	 R(1,2)           =         2.267671           1.200000


	        --- Internal Coordinate Step in ANG or DEG, aJ/ANG or AJ/DEG ---
	-------------------------------------------------------------------------------
	           Coordinate      Previous         Force          Change          New 
	           ----------      --------        ------          ------        ------
	               R(1,2)       1.20000        5.72845        0.08567       1.28567
	-------------------------------------------------------------------------------

	                                 ==> Convergence Check <==                                  
    
	Measures of convergence in internal coordinates in au.
    
	Criteria marked as inactive (o), active & met (*), and active & unmet ( ).

	----------------------------------------------------------------------------------------------
	   Step    Total Energy     Delta E     Max Force     RMS Force      Max Disp      RMS Disp   
	----------------------------------------------------------------------------------------------
	  Convergence Criteria     1.00e-06 *    3.00e-04 *             o    1.20e-03 *             o
	----------------------------------------------------------------------------------------------
	     1    -199.79958160   -2.00e+02      6.95e-01      6.95e-01 o    1.62e-01      1.62e-01 o  ~
	----------------------------------------------------------------------------------------------

Next Geometry in Ang 
	Fragment 1 (Ang)

	    C   0.0000000000   0.0000000000   0.8312869405
	   Na   0.0000000000   0.0000000000  -0.4543846800


    Structure for next step:
    Molecular point group: c2v
    Full point group: C_inf_v

    Geometry (in Angstrom), charge = -1, multiplicity = 3:

    C            0.000000000000     0.000000000000     0.844741035258
    NA           0.000000000000     0.000000000000    -0.440930585199


Scratch directory: /tmp/
gradient() will perform analytic gradient computation.
   => Libint2 <=

    Primary   basis highest AM E, G, H:  6, 6, 3
    Auxiliary basis highest AM E, G, H:  7, 7, 4
    Onebody   basis highest AM E, G, H:  -, -, -
    Solid Harmonics ordering:            Gaussian

*** tstart() called on Joses-MacBook-Pro-2.local
*** at Thu Jul 17 10:00:26 2025

   => Loading Basis Set <=

    Name: CC-PVDZ
    Role: ORBITAL
    Keyword: BASIS
    atoms 1 entry C          line   138 file /Users/joseantoniorodriguesromero/anaconda3/share/psi4/basis/cc-pvdz.gbs 
    atoms 2 entry NA         line   288 file /Users/joseantoniorodriguesromero/anaconda3/share/psi4/basis/cc-pvdz.gbs 


         ---------------------------------------------------------
                                   SCF
               by Justin Turney, Rob Parrish, Andy Simmonett
                          and Daniel G. A. Smith
                              UKS Reference
                        1 Threads,    500 MiB Core
         ---------------------------------------------------------

  ==> Geometry <==

    Molecular point group: c2v
    Full point group: C_inf_v

    Geometry (in Angstrom), charge = -1, multiplicity = 3:

       Center              X                  Y                   Z               Mass       
    ------------   -----------------  -----------------  -----------------  -----------------
         C            0.000000000000     0.000000000000     0.844741035258    12.000000000000
         NA           0.000000000000     0.000000000000    -0.440930585199    22.989769282000

  Running in c2v symmetry.

  Rotational constants: A = ************  B =      1.29349  C =      1.29349 [cm^-1]
  Rotational constants: A = ************  B =  38777.72302  C =  38777.72302 [MHz]
  Nuclear repulsion =   27.165331604499382

  Charge       = -1
  Multiplicity = 3
  Electrons    = 18
  Nalpha       = 10
  Nbeta        = 8

  ==> Algorithm <==

  SCF Algorithm Type is DF.
  DIIS enabled.
  MOM disabled.
  Fractional occupation disabled.
  Guess Type is READ.
  Energy threshold   = 1.00e-08
  Density threshold  = 1.00e-08
  Integral threshold = 1.00e-12

  ==> Primary Basis <==

  Basis Set: CC-PVDZ
    Blend: CC-PVDZ
    Number of shells: 14
    Number of basis functions: 32
    Number of Cartesian functions: 34
    Spherical Harmonics?: true
    Max angular momentum: 2

  ==> DFT Potential <==

   => LibXC <=

    Version 6.2.2
    S. Lehtola, C. Steigemann, M. J.T. Oliveira, and M. A.L. Marques.,  SoftwareX 7, 1–5 (2018) (10.1016/j.softx.2017.11.002)

   => Composite Functional: B3LYP <= 

    B3LYP Hyb-GGA Exchange-Correlation Functional

    P. J. Stephens, F. J. Devlin, C. F. Chabalowski, and M. J. Frisch.,  J. Phys. Chem. 98, 11623 (1994) (10.1021/j100096a001)

    Deriv               =              1
    GGA                 =           TRUE
    Meta                =          FALSE

    Exchange Hybrid     =           TRUE
    MP2 Hybrid          =          FALSE

   => Exchange Functionals <=

    0.0800   Slater exchange
    0.7200         Becke 88

   => Exact (HF) Exchange <=

    0.2000               HF 

   => Correlation Functionals <=

    0.1900   Vosko, Wilk & Nusair (VWN5_RPA)
    0.8100   Lee, Yang & Parr

   => LibXC Density Thresholds  <==

    XC_HYB_GGA_XC_B3LYP:  1.00E-15 

   => Molecular Quadrature <=

    Radial Scheme          =       TREUTLER
    Pruning Scheme         =           NONE
    Nuclear Scheme         =       TREUTLER

    Blocking Scheme        =         OCTREE
    BS radius alpha        =              1
    Pruning alpha          =              1
    Radial Points          =             75
    Spherical Points       =            302
    Total Points           =          43717
    Total Blocks           =            420
    Max Points             =            256
    Max Functions          =             32
    Weights Tolerance      =       1.00E-15

   => Loading Basis Set <=

    Name: (CC-PVDZ AUX)
    Role: JKFIT
    Keyword: DF_BASIS_SCF
    atoms 1 entry C          line   121 file /Users/joseantoniorodriguesromero/anaconda3/share/psi4/basis/cc-pvdz-jkfit.gbs 
    atoms 2 entry NA         line   498 file /Users/joseantoniorodriguesromero/anaconda3/share/psi4/basis/def2-universal-jkfit.gbs 

   => Loading Basis Set <=

    Name: CC-PVDZ
    Role: ORBITAL
    Keyword: BASIS
    atoms 1 entry C          line   138 file /Users/joseantoniorodriguesromero/anaconda3/share/psi4/basis/cc-pvdz.gbs 
    atoms 2 entry NA         line   288 file /Users/joseantoniorodriguesromero/anaconda3/share/psi4/basis/cc-pvdz.gbs 

  Reading orbitals from file /tmp/triplet_CNa.default.72456.180.npy, no projection.

  ==> Integral Setup <==

  DFHelper Memory: AOs need 0.002 GiB; user supplied 0.327 GiB. 
  Using in-core AOs.

  ==> MemDFJK: Density-Fitted J/K Matrices <==

    J tasked:                   Yes
    K tasked:                   Yes
    wK tasked:                   No
    OpenMP threads:               1
    Memory [MiB]:               334
    Algorithm:                 Core
    Schwarz Cutoff:           1E-12
    Mask sparsity (%):       0.0000
    Fitting Condition:        1E-10

   => Auxiliary Basis Set <=

  Basis Set: (CC-PVDZ AUX)
    Blend: CC-PVDZ-JKFIT + DEF2-UNIVERSAL-JKFIT
    Number of shells: 58
    Number of basis functions: 182
    Number of Cartesian functions: 218
    Spherical Harmonics?: true
    Max angular momentum: 4

  Cached 100.0% of DFT collocation blocks in 0.039 [GiB].

  Minimum eigenvalue in the overlap matrix is 5.8721998681E-03.
  Reciprocal condition number of the overlap matrix is 2.0255860253E-03.
    Using symmetric orthogonalization.

  ==> Pre-Iterations <==

  SCF Guess: Orbitals guess was supplied from a previous computation.

   -------------------------------------------------------
    Irrep   Nso     Nmo     Nalpha   Nbeta   Ndocc  Nsocc
   -------------------------------------------------------
     A1        16      16       6       5       5       1
     A2         2       2       0       0       0       0
     B1         7       7       2       2       2       0
     B2         7       7       2       1       1       1
   -------------------------------------------------------
    Total      32      32      10       8       8       2
   -------------------------------------------------------

  ==> Iterations <==

                           Total Energy        Delta E     RMS |[F,P]|

   @DF-UKS iter   0:  -199.85205927916201   -1.99852e+02   1.43046e-02 
   @DF-UKS iter   1:  -199.89477218745600   -4.27129e-02   3.19442e-03 DIIS/ADIIS
   @DF-UKS iter   2:  -199.89103907909936    3.73311e-03   4.78349e-03 DIIS/ADIIS/DAMP=1%
   @DF-UKS iter   3:  -199.90092250504941   -9.88343e-03   3.84270e-04 DIIS/ADIIS/DAMP=1%
   @DF-UKS iter   4:  -199.89714807353604    3.77443e-03   6.65421e-05 DIIS/DAMP=1%
   @DF-UKS iter   5:  -199.89765590908780   -5.07836e-04   9.15355e-06 DIIS/DAMP=1%
   @DF-UKS iter   6:  -199.89758209891849    7.38102e-05   3.28282e-06 DIIS/DAMP=1%
   @DF-UKS iter   7:  -199.89759106991568   -8.97100e-06   3.29796e-07 DIIS/DAMP=1%
   @DF-UKS iter   8:  -199.89758897968258    2.09023e-06   1.28248e-07 DIIS/DAMP=1%
   @DF-UKS iter   9:  -199.89758879216578    1.87517e-07   4.78875e-08 DIIS/DAMP=1%
   @DF-UKS iter  10:  -199.89758895032537   -1.58160e-07   8.01456e-09 DIIS/DAMP=1%
   @DF-UKS iter  11:  -199.89758891435378    3.59716e-08   3.15032e-09 DIIS/DAMP=1%
   @DF-UKS iter  12:  -199.89758891917668   -4.82291e-09   1.83276e-10 DIIS/DAMP=1%
  Energy and wave function converged.


  ==> Post-Iterations <==

   Electrons on quadrature grid:
      Nalpha   =    9.9999992549 ; deviation = -7.451e-07
      Nbeta    =    7.9999994030 ; deviation = -5.970e-07
      Ntotal   =   17.9999986579 ; deviation = -1.342e-06 

   @Spin Contamination Metric:   5.388883259E-03
   @S^2 Expected:                2.000000000E+00
   @S^2 Observed:                2.005388883E+00
   @S   Expected:                1.000000000E+00
   @S   Observed:                1.000000000E+00

    Orbital Energies [Eh]
    ---------------------

    Alpha Occupied:                                                       

       1A1   -38.418814     2A1   -10.041469     3A1    -2.174133  
       4A1    -1.152348     1B2    -1.082709     1B1    -1.076225  
       5A1    -0.285497     2B2    -0.053866     2B1    -0.008361  
       6A1     0.038683  

    Alpha Virtual:                                                        

       3B2     0.115672     3B1     0.118944     7A1     0.130198  
       8A1     0.150380     9A1     0.229931     4B2     0.234487  
       4B1     0.241376    10A1     0.317070     1A2     0.322336  
      11A1     0.324592     5B2     0.373623     5B1     0.385081  
      12A1     0.416438    13A1     0.802516     6B2     0.824319  
       6B1     0.853316    14A1     1.208533     7B2     1.340487  
       7B1     1.375149    15A1     1.378365     2A2     1.378722  
      16A1     1.694484  

    Beta Occupied:                                                        

       1A1   -38.416666     2A1   -10.026776     3A1    -2.170236  
       4A1    -1.147246     1B2    -1.075287     1B1    -1.074175  
       5A1    -0.228876     2B1     0.010005  

    Beta Virtual:                                                         

       2B2     0.092071     6A1     0.098256     3B1     0.124580  
       7A1     0.133707     3B2     0.140408     8A1     0.170609  
       4B1     0.258731     9A1     0.264960     4B2     0.265577  
       1A2     0.333439    10A1     0.337555    11A1     0.340532  
       5B1     0.401182     5B2     0.409332    12A1     0.434132  
      13A1     0.817607     6B1     0.863979     6B2     0.883395  
      14A1     1.232282     7B1     1.386795     7B2     1.399525  
       2A2     1.430387    15A1     1.436634    16A1     1.719888  

    Final Occupation by Irrep:
             A1    A2    B1    B2 
    DOCC [     5,    0,    2,    1 ]
    SOCC [     1,    0,    0,    1 ]
    NA   [     6,    0,    2,    2 ]
    NB   [     5,    0,    2,    1 ]

  @DF-UKS Final Energy:  -199.89758891917668

   => Energetics <=

    Nuclear Repulsion Energy =             27.1653316044993822
    One-Electron Energy =                -334.1785066577757561
    Two-Electron Energy =                 123.2529226865428598
    DFT Exchange-Correlation Energy =     -16.1373365524431982
    Empirical Dispersion Energy =           0.0000000000000000
    VV10 Nonlocal Energy =                  0.0000000000000000
    Total Energy =                       -199.8975889191767124

  UHF NO Occupations:
  HONO-2 :    2 B1 1.9985643
  HONO-1 :    6 A1 1.0000000
  HONO-0 :    2 B2 1.0000000
  LUNO+0 :    3 B1 0.0014357
  LUNO+1 :    7 A1 0.0012484
  LUNO+2 :    8 A1 0.0000077
  LUNO+3 :    3 B2 0.0000041


Computation Completed


Properties will be evaluated at   0.000000,   0.000000,   0.000000 [a0]

Properties computed using the SCF density matrix


 Multipole Moments:

 ------------------------------------------------------------------------------------
     Multipole            Electronic (a.u.)      Nuclear  (a.u.)        Total (a.u.)
 ------------------------------------------------------------------------------------

 L = 1.  Multiply by 2.5417464519 to convert [e a0] to [Debye]
 Dipole X            :          0.0000000            0.0000000            0.0000000
 Dipole Y            :          0.0000000            0.0000000            0.0000000
 Dipole Z            :          0.6461431            0.4123567            1.0584998
 Magnitude           :                                                    1.0584998

 ------------------------------------------------------------------------------------

*** tstop() called on Joses-MacBook-Pro-2.local at Thu Jul 17 10:00:27 2025
Module time:
	user time   =       5.26 seconds =       0.09 minutes
	system time =       3.18 seconds =       0.05 minutes
	total time  =          1 seconds =       0.02 minutes
Total time:
	user time   =      12.61 seconds =       0.21 minutes
	system time =      10.79 seconds =       0.18 minutes
	total time  =          2 seconds =       0.03 minutes

*** tstart() called on Joses-MacBook-Pro-2.local
*** at Thu Jul 17 10:00:27 2025


         ------------------------------------------------------------
                                   SCF GRAD                          
                          Rob Parrish, Justin Turney,                
                       Andy Simmonett, and Alex Sokolov              
         ------------------------------------------------------------

  ==> Geometry <==

    Molecular point group: c2v
    Full point group: C_inf_v

    Geometry (in Angstrom), charge = -1, multiplicity = 3:

       Center              X                  Y                   Z               Mass       
    ------------   -----------------  -----------------  -----------------  -----------------
         C            0.000000000000     0.000000000000     0.844741035258    12.000000000000
         NA           0.000000000000     0.000000000000    -0.440930585199    22.989769282000

  Nuclear repulsion =   27.165331604499382

  ==> Basis Set <==

  Basis Set: CC-PVDZ
    Blend: CC-PVDZ
    Number of shells: 14
    Number of basis functions: 32
    Number of Cartesian functions: 34
    Spherical Harmonics?: true
    Max angular momentum: 2

  ==> DFJKGrad: Density-Fitted SCF Gradients <==

    Gradient:                    1
    J tasked:                  Yes
    K tasked:                  Yes
    wK tasked:                  No
    OpenMP threads:              1
    Integrals threads:           1
    Memory [MiB]:              375
    Schwarz Cutoff:          1E-12
    Fitting Condition:       1E-10

   => Auxiliary Basis Set <=

  Basis Set: (CC-PVDZ AUX)
    Blend: CC-PVDZ-JKFIT + DEF2-UNIVERSAL-JKFIT
    Number of shells: 58
    Number of basis functions: 182
    Number of Cartesian functions: 218
    Spherical Harmonics?: true
    Max angular momentum: 4

  ==> DFT Potential <==

   => LibXC <=

    Version 6.2.2
    S. Lehtola, C. Steigemann, M. J.T. Oliveira, and M. A.L. Marques.,  SoftwareX 7, 1–5 (2018) (10.1016/j.softx.2017.11.002)

   => Composite Functional: B3LYP <= 

    B3LYP Hyb-GGA Exchange-Correlation Functional

    P. J. Stephens, F. J. Devlin, C. F. Chabalowski, and M. J. Frisch.,  J. Phys. Chem. 98, 11623 (1994) (10.1021/j100096a001)

    Deriv               =              1
    GGA                 =           TRUE
    Meta                =          FALSE

    Exchange Hybrid     =           TRUE
    MP2 Hybrid          =          FALSE

   => Exchange Functionals <=

    0.0800   Slater exchange
    0.7200         Becke 88

   => Exact (HF) Exchange <=

    0.2000               HF 

   => Correlation Functionals <=

    0.1900   Vosko, Wilk & Nusair (VWN5_RPA)
    0.8100   Lee, Yang & Parr

   => LibXC Density Thresholds  <==

    XC_HYB_GGA_XC_B3LYP:  1.00E-15 

   => Molecular Quadrature <=

    Radial Scheme          =       TREUTLER
    Pruning Scheme         =           NONE
    Nuclear Scheme         =       TREUTLER

    Blocking Scheme        =         OCTREE
    BS radius alpha        =              1
    Pruning alpha          =              1
    Radial Points          =             75
    Spherical Points       =            302
    Total Points           =          43717
    Total Blocks           =            420
    Max Points             =            256
    Max Functions          =             32
    Weights Tolerance      =       1.00E-15


  -Total Gradient:
     Atom            X                  Y                   Z
    ------   -----------------  -----------------  -----------------
       1        0.000000000000     0.000000000000    -0.525256706640
       2        0.000000000000    -0.000000000000     0.525206007511


*** tstop() called on Joses-MacBook-Pro-2.local at Thu Jul 17 10:00:27 2025
Module time:
	user time   =       0.99 seconds =       0.02 minutes
	system time =       1.77 seconds =       0.03 minutes
	total time  =          0 seconds =       0.00 minutes
Total time:
	user time   =      13.61 seconds =       0.23 minutes
	system time =      12.56 seconds =       0.21 minutes
	total time  =          2 seconds =       0.03 minutes

    			-----------------------------------------

    			 OPTKING 3.0: for geometry optimizations 

    			     By R.A. King, Bethel University     

    			        with contributions from          

    			    A.V. Copan, J. Cayton, A. Heide      

    			-----------------------------------------

    
	                            ===> Fragment 1 <== 

	 Z (Atomic Numbers)          Masses                          Geom                  
	       6.000000            12.000000          0.00000000  0.00000000  1.59632920   
	      11.000000            22.989769          0.00000000  0.00000000 -0.83323805   

	 - Coordinate -           - BOHR/RAD -       - ANG/DEG -
	 R(1,2)           =         2.429567           1.285672


	        --- Internal Coordinate Step in ANG or DEG, aJ/ANG or AJ/DEG ---
	-------------------------------------------------------------------------------
	           Coordinate      Previous         Force          Change          New 
	           ----------      --------        ------          ------        ------
	               R(1,2)       1.28567        4.32724        0.12545       1.41112
	-------------------------------------------------------------------------------

	                                 ==> Convergence Check <==                                  
    
	Measures of convergence in internal coordinates in au.
    
	Criteria marked as inactive (o), active & met (*), and active & unmet ( ).

	----------------------------------------------------------------------------------------------
	   Step    Total Energy     Delta E     Max Force     RMS Force      Max Disp      RMS Disp   
	----------------------------------------------------------------------------------------------
	  Convergence Criteria     1.00e-06 *    3.00e-04 *             o    1.20e-03 *             o
	----------------------------------------------------------------------------------------------
	     2    -199.89758892   -9.80e-02      5.25e-01      5.25e-01 o    2.37e-01      2.37e-01 o  ~
	----------------------------------------------------------------------------------------------

Next Geometry in Ang 
	Fragment 1 (Ang)

	    C   0.0000000000   0.0000000000   0.9074639958
	   Na   0.0000000000   0.0000000000  -0.5036535457


    Structure for next step:
    Molecular point group: c2v
    Full point group: C_inf_v

    Geometry (in Angstrom), charge = -1, multiplicity = 3:

    C            0.000000000000     0.000000000000     0.927164350461
    NA           0.000000000000     0.000000000000    -0.483953191050


Scratch directory: /tmp/
gradient() will perform analytic gradient computation.
   => Libint2 <=

    Primary   basis highest AM E, G, H:  6, 6, 3
    Auxiliary basis highest AM E, G, H:  7, 7, 4
    Onebody   basis highest AM E, G, H:  -, -, -
    Solid Harmonics ordering:            Gaussian

*** tstart() called on Joses-MacBook-Pro-2.local
*** at Thu Jul 17 10:00:27 2025

   => Loading Basis Set <=

    Name: CC-PVDZ
    Role: ORBITAL
    Keyword: BASIS
    atoms 1 entry C          line   138 file /Users/joseantoniorodriguesromero/anaconda3/share/psi4/basis/cc-pvdz.gbs 
    atoms 2 entry NA         line   288 file /Users/joseantoniorodriguesromero/anaconda3/share/psi4/basis/cc-pvdz.gbs 


         ---------------------------------------------------------
                                   SCF
               by Justin Turney, Rob Parrish, Andy Simmonett
                          and Daniel G. A. Smith
                              UKS Reference
                        1 Threads,    500 MiB Core
         ---------------------------------------------------------

  ==> Geometry <==

    Molecular point group: c2v
    Full point group: C_inf_v

    Geometry (in Angstrom), charge = -1, multiplicity = 3:

       Center              X                  Y                   Z               Mass       
    ------------   -----------------  -----------------  -----------------  -----------------
         C            0.000000000000     0.000000000000     0.927164350461    12.000000000000
         NA           0.000000000000     0.000000000000    -0.483953191050    22.989769282000

  Running in c2v symmetry.

  Rotational constants: A = ************  B =      1.07373  C =      1.07373 [cm^-1]
  Rotational constants: A = ************  B =  32189.63395  C =  32189.63395 [MHz]
  Nuclear repulsion =   24.750380373573599

  Charge       = -1
  Multiplicity = 3
  Electrons    = 18
  Nalpha       = 10
  Nbeta        = 8

  ==> Algorithm <==

  SCF Algorithm Type is DF.
  DIIS enabled.
  MOM disabled.
  Fractional occupation disabled.
  Guess Type is READ.
  Energy threshold   = 1.00e-08
  Density threshold  = 1.00e-08
  Integral threshold = 1.00e-12

  ==> Primary Basis <==

  Basis Set: CC-PVDZ
    Blend: CC-PVDZ
    Number of shells: 14
    Number of basis functions: 32
    Number of Cartesian functions: 34
    Spherical Harmonics?: true
    Max angular momentum: 2

  ==> DFT Potential <==

   => LibXC <=

    Version 6.2.2
    S. Lehtola, C. Steigemann, M. J.T. Oliveira, and M. A.L. Marques.,  SoftwareX 7, 1–5 (2018) (10.1016/j.softx.2017.11.002)

   => Composite Functional: B3LYP <= 

    B3LYP Hyb-GGA Exchange-Correlation Functional

    P. J. Stephens, F. J. Devlin, C. F. Chabalowski, and M. J. Frisch.,  J. Phys. Chem. 98, 11623 (1994) (10.1021/j100096a001)

    Deriv               =              1
    GGA                 =           TRUE
    Meta                =          FALSE

    Exchange Hybrid     =           TRUE
    MP2 Hybrid          =          FALSE

   => Exchange Functionals <=

    0.0800   Slater exchange
    0.7200         Becke 88

   => Exact (HF) Exchange <=

    0.2000               HF 

   => Correlation Functionals <=

    0.1900   Vosko, Wilk & Nusair (VWN5_RPA)
    0.8100   Lee, Yang & Parr

   => LibXC Density Thresholds  <==

    XC_HYB_GGA_XC_B3LYP:  1.00E-15 

   => Molecular Quadrature <=

    Radial Scheme          =       TREUTLER
    Pruning Scheme         =           NONE
    Nuclear Scheme         =       TREUTLER

    Blocking Scheme        =         OCTREE
    BS radius alpha        =              1
    Pruning alpha          =              1
    Radial Points          =             75
    Spherical Points       =            302
    Total Points           =          43731
    Total Blocks           =            424
    Max Points             =            252
    Max Functions          =             32
    Weights Tolerance      =       1.00E-15

   => Loading Basis Set <=

    Name: (CC-PVDZ AUX)
    Role: JKFIT
    Keyword: DF_BASIS_SCF
    atoms 1 entry C          line   121 file /Users/joseantoniorodriguesromero/anaconda3/share/psi4/basis/cc-pvdz-jkfit.gbs 
    atoms 2 entry NA         line   498 file /Users/joseantoniorodriguesromero/anaconda3/share/psi4/basis/def2-universal-jkfit.gbs 

   => Loading Basis Set <=

    Name: CC-PVDZ
    Role: ORBITAL
    Keyword: BASIS
    atoms 1 entry C          line   138 file /Users/joseantoniorodriguesromero/anaconda3/share/psi4/basis/cc-pvdz.gbs 
    atoms 2 entry NA         line   288 file /Users/joseantoniorodriguesromero/anaconda3/share/psi4/basis/cc-pvdz.gbs 

  Reading orbitals from file /tmp/triplet_CNa.default.72456.180.npy, no projection.

  ==> Integral Setup <==

  DFHelper Memory: AOs need 0.002 GiB; user supplied 0.327 GiB. 
  Using in-core AOs.

  ==> MemDFJK: Density-Fitted J/K Matrices <==

    J tasked:                   Yes
    K tasked:                   Yes
    wK tasked:                   No
    OpenMP threads:               1
    Memory [MiB]:               334
    Algorithm:                 Core
    Schwarz Cutoff:           1E-12
    Mask sparsity (%):       0.0000
    Fitting Condition:        1E-10

   => Auxiliary Basis Set <=

  Basis Set: (CC-PVDZ AUX)
    Blend: CC-PVDZ-JKFIT + DEF2-UNIVERSAL-JKFIT
    Number of shells: 58
    Number of basis functions: 182
    Number of Cartesian functions: 218
    Spherical Harmonics?: true
    Max angular momentum: 4

  Cached 100.0% of DFT collocation blocks in 0.039 [GiB].

  Minimum eigenvalue in the overlap matrix is 5.8167541427E-03.
  Reciprocal condition number of the overlap matrix is 2.0033523689E-03.
    Using symmetric orthogonalization.

  ==> Pre-Iterations <==

  SCF Guess: Orbitals guess was supplied from a previous computation.

   -------------------------------------------------------
    Irrep   Nso     Nmo     Nalpha   Nbeta   Ndocc  Nsocc
   -------------------------------------------------------
     A1        16      16       6       5       5       1
     A2         2       2       0       0       0       0
     B1         7       7       2       2       2       0
     B2         7       7       2       1       1       1
   -------------------------------------------------------
    Total      32      32      10       8       8       2
   -------------------------------------------------------

  ==> Iterations <==

                           Total Energy        Delta E     RMS |[F,P]|

   @DF-UKS iter   0:  -199.95149901228541   -1.99951e+02   1.73649e-02 
   @DF-UKS iter   1:  -199.99617625842862   -4.46772e-02   3.76207e-03 DIIS/ADIIS
   @DF-UKS iter   2:  -199.98406316533561    1.21131e-02   7.20201e-03 DIIS/ADIIS/DAMP=1%
   @DF-UKS iter   3:  -200.00637705913405   -2.23139e-02   5.51276e-04 DIIS/ADIIS/DAMP=1%
   @DF-UKS iter   4:  -199.99988591325780    6.49115e-03   9.91157e-05 DIIS/DAMP=1%
   @DF-UKS iter   5:  -200.00057883740749   -6.92924e-04   2.48965e-05 DIIS/DAMP=1%
   @DF-UKS iter   6:  -200.00052029509021    5.85423e-05   9.43134e-06 DIIS/DAMP=1%
   @DF-UKS iter   7:  -200.00050577690646    1.45182e-05   1.05835e-06 DIIS/DAMP=1%
   @DF-UKS iter   8:  -200.00051402311166   -8.24621e-06   4.50327e-07 DIIS/DAMP=1%
   @DF-UKS iter   9:  -200.00051254801403    1.47510e-06   1.20547e-07 DIIS/DAMP=1%
   @DF-UKS iter  10:  -200.00051312300522   -5.74991e-07   3.16686e-08 DIIS/DAMP=1%
   @DF-UKS iter  11:  -200.00051298348973    1.39515e-07   1.03921e-08 DIIS/DAMP=1%
   @DF-UKS iter  12:  -200.00051301707373   -3.35840e-08   7.50108e-10 DIIS/DAMP=1%
   @DF-UKS iter  13:  -200.00051301186821    5.20552e-09   2.36223e-10 DIIS/DAMP=1%
  Energy and wave function converged.


  ==> Post-Iterations <==

   Electrons on quadrature grid:
      Nalpha   =    9.9999998330 ; deviation = -1.670e-07
      Nbeta    =    8.0000004181 ; deviation = 4.181e-07
      Ntotal   =   18.0000002511 ; deviation = 2.511e-07 

   @Spin Contamination Metric:   6.519651668E-03
   @S^2 Expected:                2.000000000E+00
   @S^2 Observed:                2.006519652E+00
   @S   Expected:                1.000000000E+00
   @S   Observed:                1.000000000E+00

    Orbital Energies [Eh]
    ---------------------

    Alpha Occupied:                                                       

       1A1   -38.350638     2A1   -10.028793     3A1    -2.108776  
       4A1    -1.075999     1B2    -1.027770     1B1    -1.022939  
       5A1    -0.302276     2B2    -0.043837     2B1    -0.000013  
       6A1     0.036935  

    Alpha Virtual:                                                        

       3B2     0.116540     3B1     0.119601     7A1     0.122098  
       8A1     0.136329     9A1     0.213360     4B2     0.235736  
       4B1     0.242196    10A1     0.301879     1A2     0.325227  
      11A1     0.326000     5B2     0.378976     5B1     0.390480  
      12A1     0.422152    13A1     0.796516     6B2     0.815473  
       6B1     0.844234    14A1     1.228809     7B2     1.347413  
       7B1     1.381074    15A1     1.387183     2A2     1.388097  
      16A1     1.599008  

    Beta Occupied:                                                        

       1A1   -38.348828     2A1   -10.014041     3A1    -2.105449  
       4A1    -1.072291     1B2    -1.022349     1B1    -1.021103  
       5A1    -0.242405     2B1     0.019248  

    Beta Virtual:                                                         

       6A1     0.095740     2B2     0.096660     3B1     0.124734  
       7A1     0.130688     3B2     0.143394     8A1     0.158725  
       9A1     0.244995     4B1     0.259136     4B2     0.266169  
      10A1     0.324087     1A2     0.336117    11A1     0.340732  
       5B1     0.406995     5B2     0.415694    12A1     0.440863  
      13A1     0.815239     6B1     0.856189     6B2     0.875928  
      14A1     1.254057     7B1     1.396384     7B2     1.410677  
       2A2     1.440483    15A1     1.446405    16A1     1.629001  

    Final Occupation by Irrep:
             A1    A2    B1    B2 
    DOCC [     5,    0,    2,    1 ]
    SOCC [     1,    0,    0,    1 ]
    NA   [     6,    0,    2,    2 ]
    NB   [     5,    0,    2,    1 ]

  @DF-UKS Final Energy:  -200.00051301186821

   => Energetics <=

    Nuclear Repulsion Energy =             24.7503803735735985
    One-Electron Energy =                -330.2168040389099133
    Two-Electron Energy =                 121.5884353203789630
    DFT Exchange-Correlation Energy =     -16.1225246669108344
    Empirical Dispersion Energy =           0.0000000000000000
    VV10 Nonlocal Energy =                  0.0000000000000000
    Total Energy =                       -200.0005130118682075

  UHF NO Occupations:
  HONO-2 :    2 B1 1.9977262
  HONO-1 :    6 A1 1.0000000
  HONO-0 :    2 B2 1.0000000
  LUNO+0 :    3 B1 0.0022738
  LUNO+1 :    7 A1 0.0009745
  LUNO+2 :    8 A1 0.0000121
  LUNO+3 :    3 B2 0.0000021


Computation Completed


Properties will be evaluated at   0.000000,   0.000000,   0.000000 [a0]

Properties computed using the SCF density matrix


 Multipole Moments:

 ------------------------------------------------------------------------------------
     Multipole            Electronic (a.u.)      Nuclear  (a.u.)        Total (a.u.)
 ------------------------------------------------------------------------------------

 L = 1.  Multiply by 2.5417464519 to convert [e a0] to [Debye]
 Dipole X            :          0.0000000            0.0000000            0.0000000
 Dipole Y            :          0.0000000            0.0000000            0.0000000
 Dipole Z            :          0.4451703            0.4525913            0.8977616
 Magnitude           :                                                    0.8977616

 ------------------------------------------------------------------------------------

*** tstop() called on Joses-MacBook-Pro-2.local at Thu Jul 17 10:00:30 2025
Module time:
	user time   =       5.66 seconds =       0.09 minutes
	system time =       5.11 seconds =       0.09 minutes
	total time  =          3 seconds =       0.05 minutes
Total time:
	user time   =      19.31 seconds =       0.32 minutes
	system time =      17.89 seconds =       0.30 minutes
	total time  =          5 seconds =       0.08 minutes

*** tstart() called on Joses-MacBook-Pro-2.local
*** at Thu Jul 17 10:00:30 2025


         ------------------------------------------------------------
                                   SCF GRAD                          
                          Rob Parrish, Justin Turney,                
                       Andy Simmonett, and Alex Sokolov              
         ------------------------------------------------------------

  ==> Geometry <==

    Molecular point group: c2v
    Full point group: C_inf_v

    Geometry (in Angstrom), charge = -1, multiplicity = 3:

       Center              X                  Y                   Z               Mass       
    ------------   -----------------  -----------------  -----------------  -----------------
         C            0.000000000000     0.000000000000     0.927164350461    12.000000000000
         NA           0.000000000000     0.000000000000    -0.483953191050    22.989769282000

  Nuclear repulsion =   24.750380373573599

  ==> Basis Set <==

  Basis Set: CC-PVDZ
    Blend: CC-PVDZ
    Number of shells: 14
    Number of basis functions: 32
    Number of Cartesian functions: 34
    Spherical Harmonics?: true
    Max angular momentum: 2

  ==> DFJKGrad: Density-Fitted SCF Gradients <==

    Gradient:                    1
    J tasked:                  Yes
    K tasked:                  Yes
    wK tasked:                  No
    OpenMP threads:              1
    Integrals threads:           1
    Memory [MiB]:              375
    Schwarz Cutoff:          1E-12
    Fitting Condition:       1E-10

   => Auxiliary Basis Set <=

  Basis Set: (CC-PVDZ AUX)
    Blend: CC-PVDZ-JKFIT + DEF2-UNIVERSAL-JKFIT
    Number of shells: 58
    Number of basis functions: 182
    Number of Cartesian functions: 218
    Spherical Harmonics?: true
    Max angular momentum: 4

  ==> DFT Potential <==

   => LibXC <=

    Version 6.2.2
    S. Lehtola, C. Steigemann, M. J.T. Oliveira, and M. A.L. Marques.,  SoftwareX 7, 1–5 (2018) (10.1016/j.softx.2017.11.002)

   => Composite Functional: B3LYP <= 

    B3LYP Hyb-GGA Exchange-Correlation Functional

    P. J. Stephens, F. J. Devlin, C. F. Chabalowski, and M. J. Frisch.,  J. Phys. Chem. 98, 11623 (1994) (10.1021/j100096a001)

    Deriv               =              1
    GGA                 =           TRUE
    Meta                =          FALSE

    Exchange Hybrid     =           TRUE
    MP2 Hybrid          =          FALSE

   => Exchange Functionals <=

    0.0800   Slater exchange
    0.7200         Becke 88

   => Exact (HF) Exchange <=

    0.2000               HF 

   => Correlation Functionals <=

    0.1900   Vosko, Wilk & Nusair (VWN5_RPA)
    0.8100   Lee, Yang & Parr

   => LibXC Density Thresholds  <==

    XC_HYB_GGA_XC_B3LYP:  1.00E-15 

   => Molecular Quadrature <=

    Radial Scheme          =       TREUTLER
    Pruning Scheme         =           NONE
    Nuclear Scheme         =       TREUTLER

    Blocking Scheme        =         OCTREE
    BS radius alpha        =              1
    Pruning alpha          =              1
    Radial Points          =             75
    Spherical Points       =            302
    Total Points           =          43731
    Total Blocks           =            424
    Max Points             =            252
    Max Functions          =             32
    Weights Tolerance      =       1.00E-15


  -Total Gradient:
     Atom            X                  Y                   Z
    ------   -----------------  -----------------  -----------------
       1        0.000000000000    -0.000000000000    -0.355087662465
       2        0.000000000000     0.000000000000     0.355057122479


*** tstop() called on Joses-MacBook-Pro-2.local at Thu Jul 17 10:00:31 2025
Module time:
	user time   =       0.64 seconds =       0.01 minutes
	system time =       2.16 seconds =       0.04 minutes
	total time  =          1 seconds =       0.02 minutes
Total time:
	user time   =      19.95 seconds =       0.33 minutes
	system time =      20.05 seconds =       0.33 minutes
	total time  =          6 seconds =       0.10 minutes

    			-----------------------------------------

    			 OPTKING 3.0: for geometry optimizations 

    			     By R.A. King, Bethel University     

    			        with contributions from          

    			    A.V. Copan, J. Cayton, A. Heide      

    			-----------------------------------------

    
	                            ===> Fragment 1 <== 

	 Z (Atomic Numbers)          Masses                          Geom                  
	       6.000000            12.000000          0.00000000  0.00000000  1.75208670   
	      11.000000            22.989769          0.00000000  0.00000000 -0.91453899   

	 - Coordinate -           - BOHR/RAD -       - ANG/DEG -
	 R(1,2)           =         2.666626           1.411118


	        --- Internal Coordinate Step in ANG or DEG, aJ/ANG or AJ/DEG ---
	-------------------------------------------------------------------------------
	           Coordinate      Previous         Force          Change          New 
	           ----------      --------        ------          ------        ------
	               R(1,2)       1.41112        2.92534        0.19148       1.60259
	-------------------------------------------------------------------------------

	                                 ==> Convergence Check <==                                  
    
	Measures of convergence in internal coordinates in au.
    
	Criteria marked as inactive (o), active & met (*), and active & unmet ( ).

	----------------------------------------------------------------------------------------------
	   Step    Total Energy     Delta E     Max Force     RMS Force      Max Disp      RMS Disp   
	----------------------------------------------------------------------------------------------
	  Convergence Criteria     1.00e-06 *    3.00e-04 *             o    1.20e-03 *             o
	----------------------------------------------------------------------------------------------
	     3    -200.00051301   -1.03e-01      3.55e-01      3.55e-01 o    3.62e-01      3.62e-01 o  ~
	----------------------------------------------------------------------------------------------

Next Geometry in Ang 
	Fragment 1 (Ang)

	    C   0.0000000000   0.0000000000   1.0229029383
	   Na   0.0000000000   0.0000000000  -0.5796917789


    Structure for next step:
    Molecular point group: c2v
    Full point group: C_inf_v

    Geometry (in Angstrom), charge = -1, multiplicity = 3:

    C            0.000000000000     0.000000000000     1.052973013422
    NA           0.000000000000     0.000000000000    -0.549621703727


Scratch directory: /tmp/
gradient() will perform analytic gradient computation.
   => Libint2 <=

    Primary   basis highest AM E, G, H:  6, 6, 3
    Auxiliary basis highest AM E, G, H:  7, 7, 4
    Onebody   basis highest AM E, G, H:  -, -, -
    Solid Harmonics ordering:            Gaussian

*** tstart() called on Joses-MacBook-Pro-2.local
*** at Thu Jul 17 10:00:31 2025

   => Loading Basis Set <=

    Name: CC-PVDZ
    Role: ORBITAL
    Keyword: BASIS
    atoms 1 entry C          line   138 file /Users/joseantoniorodriguesromero/anaconda3/share/psi4/basis/cc-pvdz.gbs 
    atoms 2 entry NA         line   288 file /Users/joseantoniorodriguesromero/anaconda3/share/psi4/basis/cc-pvdz.gbs 


         ---------------------------------------------------------
                                   SCF
               by Justin Turney, Rob Parrish, Andy Simmonett
                          and Daniel G. A. Smith
                              UKS Reference
                        1 Threads,    500 MiB Core
         ---------------------------------------------------------

  ==> Geometry <==

    Molecular point group: c2v
    Full point group: C_inf_v

    Geometry (in Angstrom), charge = -1, multiplicity = 3:

       Center              X                  Y                   Z               Mass       
    ------------   -----------------  -----------------  -----------------  -----------------
         C            0.000000000000     0.000000000000     1.052973013422    12.000000000000
         NA           0.000000000000     0.000000000000    -0.549621703727    22.989769282000

  Running in c2v symmetry.

  Rotational constants: A = ************  B =      0.83248  C =      0.83248 [cm^-1]
  Rotational constants: A = ************  B =  24957.15094  C =  24957.15094 [MHz]
  Nuclear repulsion =   21.793217917470891

  Charge       = -1
  Multiplicity = 3
  Electrons    = 18
  Nalpha       = 10
  Nbeta        = 8

  ==> Algorithm <==

  SCF Algorithm Type is DF.
  DIIS enabled.
  MOM disabled.
  Fractional occupation disabled.
  Guess Type is READ.
  Energy threshold   = 1.00e-08
  Density threshold  = 1.00e-08
  Integral threshold = 1.00e-12

  ==> Primary Basis <==

  Basis Set: CC-PVDZ
    Blend: CC-PVDZ
    Number of shells: 14
    Number of basis functions: 32
    Number of Cartesian functions: 34
    Spherical Harmonics?: true
    Max angular momentum: 2

  ==> DFT Potential <==

   => LibXC <=

    Version 6.2.2
    S. Lehtola, C. Steigemann, M. J.T. Oliveira, and M. A.L. Marques.,  SoftwareX 7, 1–5 (2018) (10.1016/j.softx.2017.11.002)

   => Composite Functional: B3LYP <= 

    B3LYP Hyb-GGA Exchange-Correlation Functional

    P. J. Stephens, F. J. Devlin, C. F. Chabalowski, and M. J. Frisch.,  J. Phys. Chem. 98, 11623 (1994) (10.1021/j100096a001)

    Deriv               =              1
    GGA                 =           TRUE
    Meta                =          FALSE

    Exchange Hybrid     =           TRUE
    MP2 Hybrid          =          FALSE

   => Exchange Functionals <=

    0.0800   Slater exchange
    0.7200         Becke 88

   => Exact (HF) Exchange <=

    0.2000               HF 

   => Correlation Functionals <=

    0.1900   Vosko, Wilk & Nusair (VWN5_RPA)
    0.8100   Lee, Yang & Parr

   => LibXC Density Thresholds  <==

    XC_HYB_GGA_XC_B3LYP:  1.00E-15 

   => Molecular Quadrature <=

    Radial Scheme          =       TREUTLER
    Pruning Scheme         =           NONE
    Nuclear Scheme         =       TREUTLER

    Blocking Scheme        =         OCTREE
    BS radius alpha        =              1
    Pruning alpha          =              1
    Radial Points          =             75
    Spherical Points       =            302
    Total Points           =          43750
    Total Blocks           =            423
    Max Points             =            254
    Max Functions          =             32
    Weights Tolerance      =       1.00E-15

   => Loading Basis Set <=

    Name: (CC-PVDZ AUX)
    Role: JKFIT
    Keyword: DF_BASIS_SCF
    atoms 1 entry C          line   121 file /Users/joseantoniorodriguesromero/anaconda3/share/psi4/basis/cc-pvdz-jkfit.gbs 
    atoms 2 entry NA         line   498 file /Users/joseantoniorodriguesromero/anaconda3/share/psi4/basis/def2-universal-jkfit.gbs 

   => Loading Basis Set <=

    Name: CC-PVDZ
    Role: ORBITAL
    Keyword: BASIS
    atoms 1 entry C          line   138 file /Users/joseantoniorodriguesromero/anaconda3/share/psi4/basis/cc-pvdz.gbs 
    atoms 2 entry NA         line   288 file /Users/joseantoniorodriguesromero/anaconda3/share/psi4/basis/cc-pvdz.gbs 

  Reading orbitals from file /tmp/triplet_CNa.default.72456.180.npy, no projection.

  ==> Integral Setup <==

  DFHelper Memory: AOs need 0.002 GiB; user supplied 0.327 GiB. 
  Using in-core AOs.

  ==> MemDFJK: Density-Fitted J/K Matrices <==

    J tasked:                   Yes
    K tasked:                   Yes
    wK tasked:                   No
    OpenMP threads:               1
    Memory [MiB]:               334
    Algorithm:                 Core
    Schwarz Cutoff:           1E-12
    Mask sparsity (%):       0.0000
    Fitting Condition:        1E-10

   => Auxiliary Basis Set <=

  Basis Set: (CC-PVDZ AUX)
    Blend: CC-PVDZ-JKFIT + DEF2-UNIVERSAL-JKFIT
    Number of shells: 58
    Number of basis functions: 182
    Number of Cartesian functions: 218
    Spherical Harmonics?: true
    Max angular momentum: 4

  Cached 100.0% of DFT collocation blocks in 0.039 [GiB].

  Minimum eigenvalue in the overlap matrix is 5.7511629226E-03.
  Reciprocal condition number of the overlap matrix is 1.9782010004E-03.
    Using symmetric orthogonalization.

  ==> Pre-Iterations <==

  SCF Guess: Orbitals guess was supplied from a previous computation.

   -------------------------------------------------------
    Irrep   Nso     Nmo     Nalpha   Nbeta   Ndocc  Nsocc
   -------------------------------------------------------
     A1        16      16       6       5       5       1
     A2         2       2       0       0       0       0
     B1         7       7       2       2       2       0
     B2         7       7       2       1       1       1
   -------------------------------------------------------
    Total      32      32      10       8       8       2
   -------------------------------------------------------

  ==> Iterations <==

                           Total Energy        Delta E     RMS |[F,P]|

   @DF-UKS iter   0:  -200.05499979558959   -2.00055e+02   1.99482e-02 
   @DF-UKS iter   1:  -200.09132416818593   -3.63244e-02   3.97839e-03 DIIS/ADIIS
   @DF-UKS iter   2:  -200.04113296032187    5.01912e-02   1.28457e-02 DIIS/ADIIS/DAMP=1%
   @DF-UKS iter   3:  -200.10820610485490   -6.70731e-02   5.35932e-04 DIIS/ADIIS/DAMP=1%
   @DF-UKS iter   4:  -200.09720602700310    1.10001e-02   2.06372e-04 DIIS/ADIIS/DAMP=1%
   @DF-UKS iter   5:  -200.09746811298655   -2.62086e-04   1.27854e-04 DIIS/ADIIS/DAMP=1%
   @DF-UKS iter   6:  -200.09752332578176   -5.52128e-05   8.08783e-05 DIIS/DAMP=1%
   @DF-UKS iter   7:  -200.09746252347315    6.08023e-05   5.01296e-05 DIIS/DAMP=1%
   @DF-UKS iter   8:  -200.09762847744670   -1.65954e-04   3.95553e-05 DIIS/DAMP=1%
   @DF-UKS iter   9:  -200.09754873972958    7.97377e-05   3.80881e-06 DIIS/DAMP=1%
   @DF-UKS iter  10:  -200.09758977121578   -4.10315e-05   9.97070e-07 DIIS/DAMP=1%
   @DF-UKS iter  11:  -200.09758958784644    1.83369e-07   9.66184e-07 DIIS/DAMP=1%
   @DF-UKS iter  12:  -200.09759175449170   -2.16665e-06   1.97662e-07 DIIS/DAMP=1%
   @DF-UKS iter  13:  -200.09759067942974    1.07506e-06   1.84001e-07 DIIS/DAMP=1%
   @DF-UKS iter  14:  -200.09759137702468   -6.97595e-07   4.01377e-08 DIIS/DAMP=1%
   @DF-UKS iter  15:  -200.09759125852548    1.18499e-07   6.89325e-09 DIIS/DAMP=1%
   @DF-UKS iter  16:  -200.09759121865758    3.98679e-08   1.54429e-09 DIIS/DAMP=1%
   @DF-UKS iter  17:  -200.09759121083263    7.82495e-09   2.53392e-10 DIIS/DAMP=1%
  Energy and wave function converged.


  ==> Post-Iterations <==

   Electrons on quadrature grid:
      Nalpha   =    9.9999995744 ; deviation = -4.256e-07
      Nbeta    =    8.0000005578 ; deviation = 5.578e-07
      Ntotal   =   18.0000001322 ; deviation = 1.322e-07 

   @Spin Contamination Metric:   5.907333700E-02
   @S^2 Expected:                2.000000000E+00
   @S^2 Observed:                2.059073337E+00
   @S   Expected:                1.000000000E+00
   @S   Observed:                1.000000000E+00

    Orbital Energies [Eh]
    ---------------------

    Alpha Occupied:                                                       

       1A1   -38.287330     2A1   -10.011734     3A1    -2.049706  
       4A1    -1.000364     1B2    -0.976332     1B1    -0.973186  
       5A1    -0.316025     2B2    -0.024478     2B1     0.010957  
       6A1     0.026668  

    Alpha Virtual:                                                        

       7A1     0.093837     3B2     0.117239     3B1     0.118209  
       8A1     0.133142     9A1     0.198758     4B2     0.233590  
       4B1     0.239234    10A1     0.293115     1A2     0.328038  
      11A1     0.328604     5B2     0.381700     5B1     0.392613  
      12A1     0.424854    13A1     0.795014     6B2     0.804684  
       6B1     0.828965    14A1     1.253496     7B2     1.376470  
      15A1     1.396516     2A2     1.398967     7B1     1.403629  
      16A1     1.482517  

    Beta Occupied:                                                        

       1A1   -38.285439     2A1    -9.992773     3A1    -2.046190  
       4A1    -0.996948     1B2    -0.972289     1B1    -0.971123  
       5A1    -0.238610     2B1     0.045565  

    Beta Virtual:                                                         

       6A1     0.085988     2B2     0.104120     3B1     0.125115  
       7A1     0.130383     8A1     0.151092     3B2     0.152798  
       9A1     0.228128     4B1     0.253378     4B2     0.262161  
      10A1     0.315982     1A2     0.336614    11A1     0.341917  
       5B1     0.408295     5B2     0.419095    12A1     0.444232  
      13A1     0.830768     6B1     0.851752     6B2     0.869283  
      14A1     1.286732     7B1     1.439411     7B2     1.452730  
       2A2     1.460665    15A1     1.464743    16A1     1.531537  

    Final Occupation by Irrep:
             A1    A2    B1    B2 
    DOCC [     5,    0,    2,    1 ]
    SOCC [     1,    0,    0,    1 ]
    NA   [     6,    0,    2,    2 ]
    NB   [     5,    0,    2,    1 ]

  @DF-UKS Final Energy:  -200.09759121083263

   => Energetics <=

    Nuclear Repulsion Energy =             21.7932179174708907
    One-Electron Energy =                -325.1830889845876413
    Two-Electron Energy =                 119.3943022749691494
    DFT Exchange-Correlation Energy =     -16.1020224186850065
    Empirical Dispersion Energy =           0.0000000000000000
    VV10 Nonlocal Energy =                  0.0000000000000000
    Total Energy =                       -200.0975912108326042

  UHF NO Occupations:
  HONO-2 :    2 B1 1.9712023
  HONO-1 :    2 B2 1.0000000
  HONO-0 :    6 A1 1.0000000
  LUNO+0 :    3 B1 0.0287977
  LUNO+1 :    7 A1 0.0011325
  LUNO+2 :    8 A1 0.0000205
  LUNO+3 :    3 B2 0.0000008


Computation Completed


Properties will be evaluated at   0.000000,   0.000000,   0.000000 [a0]

Properties computed using the SCF density matrix


 Multipole Moments:

 ------------------------------------------------------------------------------------
     Multipole            Electronic (a.u.)      Nuclear  (a.u.)        Total (a.u.)
 ------------------------------------------------------------------------------------

 L = 1.  Multiply by 2.5417464519 to convert [e a0] to [Debye]
 Dipole X            :          0.0000000            0.0000000            0.0000000
 Dipole Y            :          0.0000000            0.0000000            0.0000000
 Dipole Z            :         -0.5762647            0.5140043           -0.0622604
 Magnitude           :                                                    0.0622604

 ------------------------------------------------------------------------------------

*** tstop() called on Joses-MacBook-Pro-2.local at Thu Jul 17 10:00:32 2025
Module time:
	user time   =       5.67 seconds =       0.09 minutes
	system time =       6.04 seconds =       0.10 minutes
	total time  =          1 seconds =       0.02 minutes
Total time:
	user time   =      25.65 seconds =       0.43 minutes
	system time =      26.30 seconds =       0.44 minutes
	total time  =          7 seconds =       0.12 minutes

*** tstart() called on Joses-MacBook-Pro-2.local
*** at Thu Jul 17 10:00:32 2025


         ------------------------------------------------------------
                                   SCF GRAD                          
                          Rob Parrish, Justin Turney,                
                       Andy Simmonett, and Alex Sokolov              
         ------------------------------------------------------------

  ==> Geometry <==

    Molecular point group: c2v
    Full point group: C_inf_v

    Geometry (in Angstrom), charge = -1, multiplicity = 3:

       Center              X                  Y                   Z               Mass       
    ------------   -----------------  -----------------  -----------------  -----------------
         C            0.000000000000     0.000000000000     1.052973013422    12.000000000000
         NA           0.000000000000     0.000000000000    -0.549621703727    22.989769282000

  Nuclear repulsion =   21.793217917470891

  ==> Basis Set <==

  Basis Set: CC-PVDZ
    Blend: CC-PVDZ
    Number of shells: 14
    Number of basis functions: 32
    Number of Cartesian functions: 34
    Spherical Harmonics?: true
    Max angular momentum: 2

  ==> DFJKGrad: Density-Fitted SCF Gradients <==

    Gradient:                    1
    J tasked:                  Yes
    K tasked:                  Yes
    wK tasked:                  No
    OpenMP threads:              1
    Integrals threads:           1
    Memory [MiB]:              375
    Schwarz Cutoff:          1E-12
    Fitting Condition:       1E-10

   => Auxiliary Basis Set <=

  Basis Set: (CC-PVDZ AUX)
    Blend: CC-PVDZ-JKFIT + DEF2-UNIVERSAL-JKFIT
    Number of shells: 58
    Number of basis functions: 182
    Number of Cartesian functions: 218
    Spherical Harmonics?: true
    Max angular momentum: 4

  ==> DFT Potential <==

   => LibXC <=

    Version 6.2.2
    S. Lehtola, C. Steigemann, M. J.T. Oliveira, and M. A.L. Marques.,  SoftwareX 7, 1–5 (2018) (10.1016/j.softx.2017.11.002)

   => Composite Functional: B3LYP <= 

    B3LYP Hyb-GGA Exchange-Correlation Functional

    P. J. Stephens, F. J. Devlin, C. F. Chabalowski, and M. J. Frisch.,  J. Phys. Chem. 98, 11623 (1994) (10.1021/j100096a001)

    Deriv               =              1
    GGA                 =           TRUE
    Meta                =          FALSE

    Exchange Hybrid     =           TRUE
    MP2 Hybrid          =          FALSE

   => Exchange Functionals <=

    0.0800   Slater exchange
    0.7200         Becke 88

   => Exact (HF) Exchange <=

    0.2000               HF 

   => Correlation Functionals <=

    0.1900   Vosko, Wilk & Nusair (VWN5_RPA)
    0.8100   Lee, Yang & Parr

   => LibXC Density Thresholds  <==

    XC_HYB_GGA_XC_B3LYP:  1.00E-15 

   => Molecular Quadrature <=

    Radial Scheme          =       TREUTLER
    Pruning Scheme         =           NONE
    Nuclear Scheme         =       TREUTLER

    Blocking Scheme        =         OCTREE
    BS radius alpha        =              1
    Pruning alpha          =              1
    Radial Points          =             75
    Spherical Points       =            302
    Total Points           =          43750
    Total Blocks           =            423
    Max Points             =            254
    Max Functions          =             32
    Weights Tolerance      =       1.00E-15


  -Total Gradient:
     Atom            X                  Y                   Z
    ------   -----------------  -----------------  -----------------
       1       -0.000000000000     0.000000000000    -0.198890953800
       2        0.000000000000     0.000000000000     0.198834088723


*** tstop() called on Joses-MacBook-Pro-2.local at Thu Jul 17 10:00:32 2025
Module time:
	user time   =       0.85 seconds =       0.01 minutes
	system time =       2.07 seconds =       0.03 minutes
	total time  =          0 seconds =       0.00 minutes
Total time:
	user time   =      26.50 seconds =       0.44 minutes
	system time =      28.37 seconds =       0.47 minutes
	total time  =          7 seconds =       0.12 minutes

    			-----------------------------------------

    			 OPTKING 3.0: for geometry optimizations 

    			     By R.A. King, Bethel University     

    			        with contributions from          

    			    A.V. Copan, J. Cayton, A. Heide      

    			-----------------------------------------

    
	                            ===> Fragment 1 <== 

	 Z (Atomic Numbers)          Masses                          Geom                  
	       6.000000            12.000000          0.00000000  0.00000000  1.98983061   
	      11.000000            22.989769          0.00000000  0.00000000 -1.03863449   

	 - Coordinate -           - BOHR/RAD -       - ANG/DEG -
	 R(1,2)           =         3.028465           1.602595


	        --- Internal Coordinate Step in ANG or DEG, aJ/ANG or AJ/DEG ---
	-------------------------------------------------------------------------------
	           Coordinate      Previous         Force          Change          New 
	           ----------      --------        ------          ------        ------
	               R(1,2)       1.60259        1.63837        0.20660       1.80920
	-------------------------------------------------------------------------------

	                                 ==> Convergence Check <==                                  
    
	Measures of convergence in internal coordinates in au.
    
	Criteria marked as inactive (o), active & met (*), and active & unmet ( ).

	----------------------------------------------------------------------------------------------
	   Step    Total Energy     Delta E     Max Force     RMS Force      Max Disp      RMS Disp   
	----------------------------------------------------------------------------------------------
	  Convergence Criteria     1.00e-06 *    3.00e-04 *             o    1.20e-03 *             o
	----------------------------------------------------------------------------------------------
	     4    -200.09759121   -9.71e-02      1.99e-01      1.99e-01 o    3.90e-01      3.90e-01 o  ~
	----------------------------------------------------------------------------------------------

Next Geometry in Ang 
	Fragment 1 (Ang)

	    C   0.0000000000   0.0000000000   1.1562745724
	   Na   0.0000000000   0.0000000000  -0.6529232627


    Structure for next step:
    Molecular point group: c2v
    Full point group: C_inf_v

    Geometry (in Angstrom), charge = -1, multiplicity = 3:

    C            0.000000000000     0.000000000000     1.188720064959
    NA           0.000000000000     0.000000000000    -0.620477770113


Scratch directory: /tmp/
gradient() will perform analytic gradient computation.
   => Libint2 <=

    Primary   basis highest AM E, G, H:  6, 6, 3
    Auxiliary basis highest AM E, G, H:  7, 7, 4
    Onebody   basis highest AM E, G, H:  -, -, -
    Solid Harmonics ordering:            Gaussian

*** tstart() called on Joses-MacBook-Pro-2.local
*** at Thu Jul 17 10:00:32 2025

   => Loading Basis Set <=

    Name: CC-PVDZ
    Role: ORBITAL
    Keyword: BASIS
    atoms 1 entry C          line   138 file /Users/joseantoniorodriguesromero/anaconda3/share/psi4/basis/cc-pvdz.gbs 
    atoms 2 entry NA         line   288 file /Users/joseantoniorodriguesromero/anaconda3/share/psi4/basis/cc-pvdz.gbs 


         ---------------------------------------------------------
                                   SCF
               by Justin Turney, Rob Parrish, Andy Simmonett
                          and Daniel G. A. Smith
                              UKS Reference
                        1 Threads,    500 MiB Core
         ---------------------------------------------------------

  ==> Geometry <==

    Molecular point group: c2v
    Full point group: C_inf_v

    Geometry (in Angstrom), charge = -1, multiplicity = 3:

[...]
    
	Measures of convergence in internal coordinates in au.
    
	Criteria marked as inactive (o), active & met (*), and active & unmet ( ).

	----------------------------------------------------------------------------------------------
	   Step    Total Energy     Delta E     Max Force     RMS Force      Max Disp      RMS Disp   
	----------------------------------------------------------------------------------------------
	  Convergence Criteria     1.00e-06 *    3.00e-04 *             o    1.20e-03 *             o
	----------------------------------------------------------------------------------------------
	    12    -200.23484856   -1.73e-06      1.35e-04 *    1.35e-04 o    3.29e-03      3.29e-03 o  ~
	----------------------------------------------------------------------------------------------

Next Geometry in Ang 
	Fragment 1 (Ang)

	    C   0.0000000000   0.0000000000   1.5604214972
	   Na   0.0000000000   0.0000000000  -0.8149114256


    Structure for next step:
    Molecular point group: c2v
    Full point group: C_inf_v

    Geometry (in Angstrom), charge = -1, multiplicity = 3:

    C            0.000000000000     0.000000000000     1.560694939770
    NA           0.000000000000     0.000000000000    -0.814637982988


Scratch directory: /tmp/
gradient() will perform analytic gradient computation.
   => Libint2 <=

    Primary   basis highest AM E, G, H:  6, 6, 3
    Auxiliary basis highest AM E, G, H:  7, 7, 4
    Onebody   basis highest AM E, G, H:  -, -, -
    Solid Harmonics ordering:            Gaussian

*** tstart() called on Joses-MacBook-Pro-2.local
*** at Thu Jul 17 10:17:52 2025

   => Loading Basis Set <=

    Name: CC-PVDZ
    Role: ORBITAL
    Keyword: BASIS
    atoms 1 entry C          line   138 file /Users/joseantoniorodriguesromero/anaconda3/share/psi4/basis/cc-pvdz.gbs 
    atoms 2 entry NA         line   288 file /Users/joseantoniorodriguesromero/anaconda3/share/psi4/basis/cc-pvdz.gbs 


         ---------------------------------------------------------
                                   SCF
               by Justin Turney, Rob Parrish, Andy Simmonett
                          and Daniel G. A. Smith
                              UKS Reference
                        1 Threads,    500 MiB Core
         ---------------------------------------------------------

  ==> Geometry <==

    Molecular point group: c2v
    Full point group: C_inf_v

    Geometry (in Angstrom), charge = -1, multiplicity = 3:

       Center              X                  Y                   Z               Mass       
    ------------   -----------------  -----------------  -----------------  -----------------
         C            0.000000000000     0.000000000000     1.560694939770    12.000000000000
         NA           0.000000000000     0.000000000000    -0.814637982988    22.989769282000

  Running in c2v symmetry.

  Rotational constants: A = ************  B =      0.37894  C =      0.37894 [cm^-1]
  Rotational constants: A = ************  B =  11360.39528  C =  11360.39528 [MHz]
  Nuclear repulsion =   14.703495063619823

  Charge       = -1
  Multiplicity = 3
  Electrons    = 18
  Nalpha       = 10
  Nbeta        = 8

  ==> Algorithm <==

  SCF Algorithm Type is DF.
  DIIS enabled.
  MOM disabled.
  Fractional occupation disabled.
  Guess Type is READ.
  Energy threshold   = 1.00e-08
  Density threshold  = 1.00e-08
  Integral threshold = 1.00e-12

  ==> Primary Basis <==

  Basis Set: CC-PVDZ
    Blend: CC-PVDZ
    Number of shells: 14
    Number of basis functions: 32
    Number of Cartesian functions: 34
    Spherical Harmonics?: true
    Max angular momentum: 2

  ==> DFT Potential <==

   => LibXC <=

    Version 6.2.2
    S. Lehtola, C. Steigemann, M. J.T. Oliveira, and M. A.L. Marques.,  SoftwareX 7, 1–5 (2018) (10.1016/j.softx.2017.11.002)

   => Composite Functional: B3LYP <= 

    B3LYP Hyb-GGA Exchange-Correlation Functional

    P. J. Stephens, F. J. Devlin, C. F. Chabalowski, and M. J. Frisch.,  J. Phys. Chem. 98, 11623 (1994) (10.1021/j100096a001)

    Deriv               =              1
    GGA                 =           TRUE
    Meta                =          FALSE

    Exchange Hybrid     =           TRUE
    MP2 Hybrid          =          FALSE

   => Exchange Functionals <=

    0.0800   Slater exchange
    0.7200         Becke 88

   => Exact (HF) Exchange <=

    0.2000               HF 

   => Correlation Functionals <=

    0.1900   Vosko, Wilk & Nusair (VWN5_RPA)
    0.8100   Lee, Yang & Parr

   => LibXC Density Thresholds  <==

    XC_HYB_GGA_XC_B3LYP:  1.00E-15 

   => Molecular Quadrature <=

    Radial Scheme          =       TREUTLER
    Pruning Scheme         =           NONE
    Nuclear Scheme         =       TREUTLER

    Blocking Scheme        =         OCTREE
    BS radius alpha        =              1
    Pruning alpha          =              1
    Radial Points          =             75
    Spherical Points       =            302
    Total Points           =          43801
    Total Blocks           =            427
    Max Points             =            256
    Max Functions          =             32
    Weights Tolerance      =       1.00E-15

   => Loading Basis Set <=

    Name: (CC-PVDZ AUX)
    Role: JKFIT
    Keyword: DF_BASIS_SCF
    atoms 1 entry C          line   121 file /Users/joseantoniorodriguesromero/anaconda3/share/psi4/basis/cc-pvdz-jkfit.gbs 
    atoms 2 entry NA         line   498 file /Users/joseantoniorodriguesromero/anaconda3/share/psi4/basis/def2-universal-jkfit.gbs 

   => Loading Basis Set <=

    Name: CC-PVDZ
    Role: ORBITAL
    Keyword: BASIS
    atoms 1 entry C          line   138 file /Users/joseantoniorodriguesromero/anaconda3/share/psi4/basis/cc-pvdz.gbs 
    atoms 2 entry NA         line   288 file /Users/joseantoniorodriguesromero/anaconda3/share/psi4/basis/cc-pvdz.gbs 

  Reading orbitals from file /tmp/triplet_CNa.default.72456.180.npy, no projection.

  ==> Integral Setup <==

  DFHelper Memory: AOs need 0.002 GiB; user supplied 0.327 GiB. 
  Using in-core AOs.

  ==> MemDFJK: Density-Fitted J/K Matrices <==

    J tasked:                   Yes
    K tasked:                   Yes
    wK tasked:                   No
    OpenMP threads:               1
    Memory [MiB]:               334
    Algorithm:                 Core
    Schwarz Cutoff:           1E-12
    Mask sparsity (%):       0.0000
    Fitting Condition:        1E-10

   => Auxiliary Basis Set <=

  Basis Set: (CC-PVDZ AUX)
    Blend: CC-PVDZ-JKFIT + DEF2-UNIVERSAL-JKFIT
    Number of shells: 58
    Number of basis functions: 182
    Number of Cartesian functions: 218
    Spherical Harmonics?: true
    Max angular momentum: 4

  Cached 100.0% of DFT collocation blocks in 0.039 [GiB].

  Minimum eigenvalue in the overlap matrix is 8.7241397982E-03.
  Reciprocal condition number of the overlap matrix is 3.0624010951E-03.
    Using symmetric orthogonalization.

  ==> Pre-Iterations <==

  SCF Guess: Orbitals guess was supplied from a previous computation.

   -------------------------------------------------------
    Irrep   Nso     Nmo     Nalpha   Nbeta   Ndocc  Nsocc
   -------------------------------------------------------
     A1        16      16       6       6       6       0
     A2         2       2       0       0       0       0
     B1         7       7       2       1       1       1
     B2         7       7       2       1       1       1
   -------------------------------------------------------
    Total      32      32      10       8       8       2
   -------------------------------------------------------

  ==> Iterations <==

                           Total Energy        Delta E     RMS |[F,P]|

   @DF-UKS iter   0:  -200.23476954755682   -2.00235e+02   5.61165e-05 
   @DF-UKS iter   1:  -200.23484867436568   -7.91268e-05   4.51611e-06 DIIS
   @DF-UKS iter   2:  -200.23484866234566    1.20200e-08   8.31636e-06 DIIS/DAMP=1%
   @DF-UKS iter   3:  -200.23484446949632    4.19285e-06   8.70826e-07 DIIS/DAMP=1%
   @DF-UKS iter   4:  -200.23484816768101   -3.69818e-06   1.76536e-07 DIIS/DAMP=1%
   @DF-UKS iter   5:  -200.23484862238593   -4.54705e-07   4.87427e-08 DIIS/DAMP=1%
   @DF-UKS iter   6:  -200.23484869989093   -7.75050e-08   7.69756e-09 DIIS/DAMP=1%
   @DF-UKS iter   7:  -200.23484868658571    1.33052e-08   6.93004e-10 DIIS/DAMP=1%
   @DF-UKS iter   8:  -200.23484868716716   -5.81451e-10   3.00540e-10 DIIS/DAMP=1%
  Energy and wave function converged.


  ==> Post-Iterations <==

   Electrons on quadrature grid:
      Nalpha   =   10.0000039716 ; deviation = 3.972e-06
      Nbeta    =    7.9999998002 ; deviation = -1.998e-07
      Ntotal   =   18.0000037718 ; deviation = 3.772e-06 

   @Spin Contamination Metric:   8.272093466E-01
   @S^2 Expected:                2.000000000E+00
   @S^2 Observed:                2.827209347E+00
   @S   Expected:                1.000000000E+00
   @S   Observed:                1.000000000E+00

    Orbital Energies [Eh]
    ---------------------

    Alpha Occupied:                                                       

       1A1   -38.285815     2A1   -10.001934     3A1    -2.034319  
       1B1    -0.966660     1B2    -0.966660     4A1    -0.964471  
       5A1    -0.337658     6A1    -0.015445     2B1    -0.005036  
       2B2    -0.005036  

    Alpha Virtual:                                                        

       7A1     0.087846     3B1     0.117012     3B2     0.117012  
       8A1     0.133968     9A1     0.198443     4B1     0.231339  
       4B2     0.231339    10A1     0.287283    11A1     0.328405  
       1A2     0.328405     5B2     0.365726     5B1     0.365726  
      12A1     0.429590     6B2     0.750033     6B1     0.750033  
      13A1     0.750260    14A1     1.180458    15A1     1.377038  
       2A2     1.377070    16A1     1.391623     7B2     1.412378  
       7B1     1.412378  

    Beta Occupied:                                                        

       1A1   -38.285968     2A1    -9.970435     3A1    -2.034773  
       1B1    -0.966840     1B2    -0.966840     4A1    -0.964340  
       5A1    -0.203397     6A1     0.029733  

    Beta Virtual:                                                         

       2B1     0.099323     2B2     0.099323     7A1     0.135231  
       8A1     0.142845     3B1     0.174619     3B2     0.174619  
       9A1     0.192712     4B1     0.224073     4B2     0.224073  
      10A1     0.292486    11A1     0.322869     1A2     0.322869  
       5B2     0.377226     5B1     0.377226    12A1     0.442066  
      13A1     0.824193     6B2     0.824470     6B1     0.824470  
      14A1     1.244485    15A1     1.482684     2A2     1.482734  
      16A1     1.489417     7B2     1.512500     7B1     1.512500  

    Final Occupation by Irrep:
             A1    A2    B1    B2 
    DOCC [     6,    0,    1,    1 ]
    SOCC [     0,    0,    1,    1 ]
    NA   [     6,    0,    2,    2 ]
    NB   [     6,    0,    1,    1 ]

  @DF-UKS Final Energy:  -200.23484868716716

   => Energetics <=

    Nuclear Repulsion Energy =             14.7034950636198225
    One-Electron Energy =                -311.4213347006476624
    Two-Electron Energy =                 112.5481095109509226
    DFT Exchange-Correlation Energy =     -16.0651185610902267
    Empirical Dispersion Energy =           0.0000000000000000
    VV10 Nonlocal Energy =                  0.0000000000000000
    Total Energy =                       -200.2348486871671582

  UHF NO Occupations:
  HONO-2 :    6 A1 1.4196996
  HONO-1 :    2 B1 1.0000000
  HONO-0 :    2 B2 1.0000000
  LUNO+0 :    7 A1 0.5803004
  LUNO+1 :    8 A1 0.0016775
  LUNO+2 :    9 A1 0.0000012
  LUNO+3 :    3 B1 0.0000005


Computation Completed


Properties will be evaluated at   0.000000,   0.000000,   0.000000 [a0]

Properties computed using the SCF density matrix


 Multipole Moments:

 ------------------------------------------------------------------------------------
     Multipole            Electronic (a.u.)      Nuclear  (a.u.)        Total (a.u.)
 ------------------------------------------------------------------------------------

 L = 1.  Multiply by 2.5417464519 to convert [e a0] to [Debye]
 Dipole X            :          0.0000000            0.0000000            0.0000000
 Dipole Y            :          0.0000000            0.0000000            0.0000000
 Dipole Z            :         -0.1806941            0.7618465            0.5811524
 Magnitude           :                                                    0.5811524

 ------------------------------------------------------------------------------------

*** tstop() called on Joses-MacBook-Pro-2.local at Thu Jul 17 10:17:52 2025
Module time:
	user time   =       2.71 seconds =       0.05 minutes
	system time =       4.01 seconds =       0.07 minutes
	total time  =          0 seconds =       0.00 minutes
Total time:
	user time   =     102.07 seconds =       1.70 minutes
	system time =     104.60 seconds =       1.74 minutes
	total time  =       1047 seconds =      17.45 minutes

*** tstart() called on Joses-MacBook-Pro-2.local
*** at Thu Jul 17 10:17:52 2025


         ------------------------------------------------------------
                                   SCF GRAD                          
                          Rob Parrish, Justin Turney,                
                       Andy Simmonett, and Alex Sokolov              
         ------------------------------------------------------------

  ==> Geometry <==

    Molecular point group: c2v
    Full point group: C_inf_v

    Geometry (in Angstrom), charge = -1, multiplicity = 3:

       Center              X                  Y                   Z               Mass       
    ------------   -----------------  -----------------  -----------------  -----------------
         C            0.000000000000     0.000000000000     1.560694939770    12.000000000000
         NA           0.000000000000     0.000000000000    -0.814637982988    22.989769282000

  Nuclear repulsion =   14.703495063619823

  ==> Basis Set <==

  Basis Set: CC-PVDZ
    Blend: CC-PVDZ
    Number of shells: 14
    Number of basis functions: 32
    Number of Cartesian functions: 34
    Spherical Harmonics?: true
    Max angular momentum: 2

  ==> DFJKGrad: Density-Fitted SCF Gradients <==

    Gradient:                    1
    J tasked:                  Yes
    K tasked:                  Yes
    wK tasked:                  No
    OpenMP threads:              1
    Integrals threads:           1
    Memory [MiB]:              375
    Schwarz Cutoff:          1E-12
    Fitting Condition:       1E-10

   => Auxiliary Basis Set <=

  Basis Set: (CC-PVDZ AUX)
    Blend: CC-PVDZ-JKFIT + DEF2-UNIVERSAL-JKFIT
    Number of shells: 58
    Number of basis functions: 182
    Number of Cartesian functions: 218
    Spherical Harmonics?: true
    Max angular momentum: 4

  ==> DFT Potential <==

   => LibXC <=

    Version 6.2.2
    S. Lehtola, C. Steigemann, M. J.T. Oliveira, and M. A.L. Marques.,  SoftwareX 7, 1–5 (2018) (10.1016/j.softx.2017.11.002)

   => Composite Functional: B3LYP <= 

    B3LYP Hyb-GGA Exchange-Correlation Functional

    P. J. Stephens, F. J. Devlin, C. F. Chabalowski, and M. J. Frisch.,  J. Phys. Chem. 98, 11623 (1994) (10.1021/j100096a001)

    Deriv               =              1
    GGA                 =           TRUE
    Meta                =          FALSE

    Exchange Hybrid     =           TRUE
    MP2 Hybrid          =          FALSE

   => Exchange Functionals <=

    0.0800   Slater exchange
    0.7200         Becke 88

   => Exact (HF) Exchange <=

    0.2000               HF 

   => Correlation Functionals <=

    0.1900   Vosko, Wilk & Nusair (VWN5_RPA)
    0.8100   Lee, Yang & Parr

   => LibXC Density Thresholds  <==

    XC_HYB_GGA_XC_B3LYP:  1.00E-15 

   => Molecular Quadrature <=

    Radial Scheme          =       TREUTLER
    Pruning Scheme         =           NONE
    Nuclear Scheme         =       TREUTLER

    Blocking Scheme        =         OCTREE
    BS radius alpha        =              1
    Pruning alpha          =              1
    Radial Points          =             75
    Spherical Points       =            302
    Total Points           =          43801
    Total Blocks           =            427
    Max Points             =            256
    Max Functions          =             32
    Weights Tolerance      =       1.00E-15


  -Total Gradient:
     Atom            X                  Y                   Z
    ------   -----------------  -----------------  -----------------
       1       -0.000000000000     0.000000000000    -0.000031607415
       2        0.000000000000    -0.000000000000     0.000019336649


*** tstop() called on Joses-MacBook-Pro-2.local at Thu Jul 17 10:17:53 2025
Module time:
	user time   =       0.65 seconds =       0.01 minutes
	system time =       2.23 seconds =       0.04 minutes
	total time  =          1 seconds =       0.02 minutes
Total time:
	user time   =     102.72 seconds =       1.71 minutes
	system time =     106.83 seconds =       1.78 minutes
	total time  =       1048 seconds =      17.47 minutes

    			-----------------------------------------

    			 OPTKING 3.0: for geometry optimizations 

    			     By R.A. King, Bethel University     

    			        with contributions from          

    			    A.V. Copan, J. Cayton, A. Heide      

    			-----------------------------------------

    
	                            ===> Fragment 1 <== 

	 Z (Atomic Numbers)          Masses                          Geom                  
	       6.000000            12.000000          0.00000000  0.00000000  2.94928600   
	      11.000000            22.989769          0.00000000  0.00000000 -1.53944268   

	 - Coordinate -           - BOHR/RAD -       - ANG/DEG -
	 R(1,2)           =         4.488729           2.375333


	        --- Internal Coordinate Step in ANG or DEG, aJ/ANG or AJ/DEG ---
	-------------------------------------------------------------------------------
	           Coordinate      Previous         Force          Change          New 
	           ----------      --------        ------          ------        ------
	               R(1,2)       2.37533        0.00021        0.00037       2.37570
	-------------------------------------------------------------------------------

	                                 ==> Convergence Check <==                                  
    
	Measures of convergence in internal coordinates in au.
    
	Criteria marked as inactive (o), active & met (*), and active & unmet ( ).

	----------------------------------------------------------------------------------------------
	   Step    Total Energy     Delta E     Max Force     RMS Force      Max Disp      RMS Disp   
	----------------------------------------------------------------------------------------------
	  Convergence Criteria     1.00e-06 *    3.00e-04 *             o    1.20e-03 *             o
	----------------------------------------------------------------------------------------------
	    13    -200.23484869   -1.31e-07 *    2.55e-05 *    2.55e-05 o    6.93e-04 *    6.93e-04 o  ~
	----------------------------------------------------------------------------------------------

Next Geometry in Ang 
	Fragment 1 (Ang)

	    C   0.0000000000   0.0000000000   1.5608782565
	   Na   0.0000000000   0.0000000000  -0.8148212997


    Final optimized geometry and variables:
    Molecular point group: c2v
    Full point group: C_inf_v

    Geometry (in Angstrom), charge = -1, multiplicity = 3:

    C            0.000000000000     0.000000000000     1.560694939770
    NA           0.000000000000     0.000000000000    -0.814637982988


    Psi4 stopped on: Thursday, 17 July 2025 10:17AM
    Psi4 wall time for execution: 0:17:28.31

*** Psi4 exiting successfully. Buy a developer a beer!
