
    -----------------------------------------------------------------------
          Psi4: An Open-Source Ab Initio Electronic Structure Package
                               Psi4 1.9.1 release

                         Git: Rev {} zzzzzzz 


    D. G. A. Smith, L. A. Burns, A. C. Simmonett, R. M. Parrish,
    M. C. Schieber, R. Galvelis, P. Kraus, H. Kruse, R. Di Remigio,
    A. Alenaizan, A. M. James, S. Lehtola, J. P. Misiewicz, M. Scheurer,
    R. A. Shaw, J. B. Schriber, Y. Xie, Z. L. Glick, D. A. Sirianni,
    J. S. O'Brien, J. M. Waldrop, A. Kumar, E. G. Hohenstein,
    B. P. Pritchard, B. R. Brooks, H. F. Schaefer III, A. Yu. Sokolov,
    K. Patkowski, A. E. DePrince III, U. Bozkaya, R. A. King,
    F. A. Evangelista, J. M. Turney, T. D. Crawford, C. D. Sherrill,
    J. Chem. Phys. 152(18) 184108 (2020). https://doi.org/10.1063/5.0006002

                            Additional Code Authors
    E. T. Seidl, C. L. Janssen, E. F. Valeev, M. L. Leininger,
    J. F. Gonthier, R. M. Richard, H. R. McAlexander, M. Saitow, X. Wang,
    P. Verma, M. H. Lechner, A. Jiang, S. Behnle, A. G. Heide,
    M. F. Herbst, and D. L. Poole

             Previous Authors, Complete List of Code Contributors,
                       and Citations for Specific Modules
    https://github.com/psi4/psi4/blob/master/codemeta.json
    https://github.com/psi4/psi4/graphs/contributors
    http://psicode.org/psi4manual/master/introduction.html#citing-psifour

    -----------------------------------------------------------------------


    Psi4 started on: Sunday, 10 August 2025 06:31PM

    Process ID: 50258
    Host:       Mac.lan
    PSIDATADIR: /Users/joseantoniorodriguesromero/anaconda3/share/psi4
    Memory:     500.0 MiB
    Threads:    1
    
  ==> Input File <==

--------------------------------------------------------------------------
molecule { 
1 3
N           0.000000           0.000000           0.000000
C           0.000000           0.000000           1.242755
}

set { 
basis              cc-pvtz
reference          uks
maxiter            500
DAMPING_PERCENTAGE 1
E_CONVERGENCE      1.0E-8
D_CONVERGENCE      1.0E-8
DIIS_MAX_VECS      400
MBIS_MAXITER       8000
guess              SAP
}

E, wfn = optimize('b3lyp', return_wfn=True)
frequencies('b3lyp', wfn=wfn, return_wfn=True)
properties('b3lyp','MULLIKEN_CHARGES', wfn=wfn)
--------------------------------------------------------------------------

Scratch directory: /tmp/
gradient() will perform analytic gradient computation.
   => Libint2 <=

    Primary   basis highest AM E, G, H:  6, 6, 3
    Auxiliary basis highest AM E, G, H:  7, 7, 4
    Onebody   basis highest AM E, G, H:  -, -, -
    Solid Harmonics ordering:            Gaussian

*** tstart() called on Mac.lan
*** at Sun Aug 10 18:31:02 2025

   => Loading Basis Set <=

    Name: CC-PVTZ
    Role: ORBITAL
    Keyword: BASIS
    atoms 1 entry N          line   224 file /Users/joseantoniorodriguesromero/anaconda3/share/psi4/basis/cc-pvtz.gbs 
    atoms 2 entry C          line   186 file /Users/joseantoniorodriguesromero/anaconda3/share/psi4/basis/cc-pvtz.gbs 


         ---------------------------------------------------------
                                   SCF
               by Justin Turney, Rob Parrish, Andy Simmonett
                          and Daniel G. A. Smith
                              UKS Reference
                        1 Threads,    500 MiB Core
         ---------------------------------------------------------

  ==> Geometry <==

    Molecular point group: c2v
    Full point group: C_inf_v

    Geometry (in Angstrom), charge = 1, multiplicity = 3:

       Center              X                  Y                   Z               Mass       
    ------------   -----------------  -----------------  -----------------  -----------------
         N            0.000000000000     0.000000000000    -0.573511423975    14.003074004430
         C            0.000000000000     0.000000000000     0.669243576025    12.000000000000

  Running in c2v symmetry.

  Rotational constants: A = ************  B =      1.68906  C =      1.68906 [cm^-1]
  Rotational constants: A = ************  B =  50636.79655  C =  50636.79655 [MHz]
  Nuclear repulsion =   17.884010000474753

  Charge       = 1
  Multiplicity = 3
  Electrons    = 12
  Nalpha       = 7
  Nbeta        = 5

  ==> Algorithm <==

  SCF Algorithm Type is DF.
  DIIS enabled.
  MOM disabled.
  Fractional occupation disabled.
  Guess Type is SAP.
  Energy threshold   = 1.00e-08
  Density threshold  = 1.00e-08
  Integral threshold = 1.00e-12

  ==> Primary Basis <==

  Basis Set: CC-PVTZ
    Blend: CC-PVTZ
    Number of shells: 20
    Number of basis functions: 60
    Number of Cartesian functions: 70
    Spherical Harmonics?: true
    Max angular momentum: 3

  ==> DFT Potential <==

   => LibXC <=

    Version 6.2.2
    S. Lehtola, C. Steigemann, M. J.T. Oliveira, and M. A.L. Marques.,  SoftwareX 7, 1–5 (2018) (10.1016/j.softx.2017.11.002)

   => Composite Functional: B3LYP <= 

    B3LYP Hyb-GGA Exchange-Correlation Functional

    P. J. Stephens, F. J. Devlin, C. F. Chabalowski, and M. J. Frisch.,  J. Phys. Chem. 98, 11623 (1994) (10.1021/j100096a001)

    Deriv               =              1
    GGA                 =           TRUE
    Meta                =          FALSE

    Exchange Hybrid     =           TRUE
    MP2 Hybrid          =          FALSE

   => Exchange Functionals <=

    0.0800   Slater exchange
    0.7200         Becke 88

   => Exact (HF) Exchange <=

    0.2000               HF 

   => Correlation Functionals <=

    0.1900   Vosko, Wilk & Nusair (VWN5_RPA)
    0.8100   Lee, Yang & Parr

   => LibXC Density Thresholds  <==

    XC_HYB_GGA_XC_B3LYP:  1.00E-15 

   => Molecular Quadrature <=

    Radial Scheme          =       TREUTLER
    Pruning Scheme         =           NONE
    Nuclear Scheme         =       TREUTLER

    Blocking Scheme        =         OCTREE
    BS radius alpha        =              1
    Pruning alpha          =              1
    Radial Points          =             75
    Spherical Points       =            302
    Total Points           =          43248
    Total Blocks           =            393
    Max Points             =            256
    Max Functions          =             60
    Weights Tolerance      =       1.00E-15

   => Loading Basis Set <=

    Name: (CC-PVTZ AUX)
    Role: JKFIT
    Keyword: DF_BASIS_SCF
    atoms 1 entry N          line   177 file /Users/joseantoniorodriguesromero/anaconda3/share/psi4/basis/cc-pvtz-jkfit.gbs 
    atoms 2 entry C          line   125 file /Users/joseantoniorodriguesromero/anaconda3/share/psi4/basis/cc-pvtz-jkfit.gbs 

  ==> Integral Setup <==

  DFHelper Memory: AOs need 0.005 GiB; user supplied 0.294 GiB. 
  Using in-core AOs.

  ==> MemDFJK: Density-Fitted J/K Matrices <==

    J tasked:                   Yes
    K tasked:                   Yes
    wK tasked:                   No
    OpenMP threads:               1
    Memory [MiB]:               301
    Algorithm:                 Core
    Schwarz Cutoff:           1E-12
    Mask sparsity (%):       0.0000
    Fitting Condition:        1E-10

   => Auxiliary Basis Set <=

  Basis Set: (CC-PVTZ AUX)
    Blend: CC-PVTZ-JKFIT
    Number of shells: 50
    Number of basis functions: 158
    Number of Cartesian functions: 192
    Spherical Harmonics?: true
    Max angular momentum: 4

  Cached 100.0% of DFT collocation blocks in 0.072 [GiB].

  Minimum eigenvalue in the overlap matrix is 2.2093944827E-03.
  Reciprocal condition number of the overlap matrix is 5.4689851127E-04.
    Using symmetric orthogonalization.

  ==> Pre-Iterations <==

  SCF Guess: Superposition of Atomic Potentials (doi:10.1021/acs.jctc.8b01089).

  ==> SAP guess <==

   => Molecular Quadrature <=

    Radial Scheme          =       TREUTLER
    Pruning Scheme         =           NONE
    Nuclear Scheme         =       TREUTLER

    Blocking Scheme        =         OCTREE
    BS radius alpha        =              1
    Pruning alpha          =              1
    Radial Points          =             75
    Spherical Points       =            302
    Total Points           =          43248
    Total Blocks           =            393
    Max Points             =            256
    Max Functions          =             60
    Weights Tolerance      =       1.00E-15

   -------------------------------------------------------
    Irrep   Nso     Nmo     Nalpha   Nbeta   Ndocc  Nsocc
   -------------------------------------------------------
     A1        26      26       5       4       4       1
     A2         6       6       0       0       0       0
     B1        14      14       1       1       1       0
     B2        14      14       1       0       0       1
   -------------------------------------------------------
    Total      60      60       7       5       5       2
   -------------------------------------------------------

  ==> Iterations <==

                           Total Energy        Delta E     RMS |[F,P]|

   @DF-UKS iter   1:   -92.13755822694064   -9.21376e+01   1.48207e-02 DIIS/ADIIS
   @DF-UKS iter   2:   -91.52567671464742    6.11882e-01   3.53056e-02 DIIS/ADIIS/DAMP=1%
   @DF-UKS iter   3:   -92.21668293256246   -6.91006e-01   2.68836e-03 DIIS/ADIIS/DAMP=1%
   @DF-UKS iter   4:   -92.22869928541466   -1.20164e-02   9.70317e-04 DIIS/ADIIS/DAMP=1%
   @DF-UKS iter   5:   -92.23033617045422   -1.63689e-03   1.35119e-04 DIIS/ADIIS/DAMP=1%
   @DF-UKS iter   6:   -92.23015679556892    1.79375e-04   2.07242e-05 DIIS/DAMP=1%
   @DF-UKS iter   7:   -92.23022363712232   -6.68416e-05   1.06508e-05 DIIS/DAMP=1%
   @DF-UKS iter   8:   -92.23021623846101    7.39866e-06   4.52317e-06 DIIS/DAMP=1%
   @DF-UKS iter   9:   -92.23021834338134   -2.10492e-06   1.70622e-06 DIIS/DAMP=1%
   @DF-UKS iter  10:   -92.23021728983034    1.05355e-06   8.35816e-07 DIIS/DAMP=1%
   @DF-UKS iter  11:   -92.23021771587524   -4.26045e-07   4.69743e-07 DIIS/DAMP=1%
   @DF-UKS iter  12:   -92.23021788464722   -1.68772e-07   3.34912e-08 DIIS/DAMP=1%
   @DF-UKS iter  13:   -92.23021779975467    8.48925e-08   4.99739e-09 DIIS/DAMP=1%
   @DF-UKS iter  14:   -92.23021779960504    1.49626e-10   1.45889e-09 DIIS/DAMP=1%
  Energy and wave function converged.


  ==> Post-Iterations <==

   Electrons on quadrature grid:
      Nalpha   =    7.0000002225 ; deviation = 2.225e-07
      Nbeta    =    5.0000001709 ; deviation = 1.709e-07
      Ntotal   =   12.0000003934 ; deviation = 3.934e-07 

   @Spin Contamination Metric:   5.169765747E-03
   @S^2 Expected:                2.000000000E+00
   @S^2 Observed:                2.005169766E+00
   @S   Expected:                1.000000000E+00
   @S   Observed:                1.000000000E+00

    Orbital Energies [Eh]
    ---------------------

    Alpha Occupied:                                                       

       1A1   -14.852386     2A1   -10.768255     3A1    -1.382986  
       4A1    -0.905804     1B2    -0.818392     5A1    -0.795246  
       1B1    -0.775653  

    Alpha Virtual:                                                        

       2B2    -0.452820     2B1    -0.420001     6A1    -0.105880  
       3B2    -0.005879     7A1     0.001413     3B1     0.004227  
       8A1     0.111440     9A1     0.156074     4B2     0.200467  
       4B1     0.218283     1A2     0.269571    10A1     0.270069  
       5B2     0.433864     5B1     0.456144    11A1     0.560507  
       2A2     0.771576    12A1     0.772164    13A1     0.834941  
       6B2     1.119149     6B1     1.141728    14A1     1.365884  
       7B2     1.567820     7B1     1.588970    15A1     1.768370  
       8B2     2.225218     8B1     2.225348    16A1     2.270452  
       3A2     2.270782     9B2     2.304677     9B1     2.335156  
      17A1     2.392651    10B2     2.473378    18A1     2.499076  
       4A2     2.499337    10B1     2.504043    19A1     2.636499  
      11B2     2.943657    11B1     2.971273    20A1     3.277792  
      12B2     3.484404    12B1     3.484555    21A1     3.863106  
       5A2     3.863210     6A2     4.086671    22A1     4.086746  
      13B2     4.297522    13B1     4.335091    23A1     4.409005  
      24A1     4.894150    14B2     4.908987    14B1     4.940626  
      25A1     5.146698    26A1    10.737463  

    Beta Occupied:                                                        

       1A1   -14.834613     2A1   -10.744235     3A1    -1.315193  
       4A1    -0.814053     1B1    -0.753829  

    Beta Virtual:                                                         

       1B2    -0.639193     5A1    -0.609622     2B1    -0.384317  
       2B2    -0.349267     6A1    -0.084381     3B1     0.012222  
       3B2     0.018565     7A1     0.038552     8A1     0.147064  
       9A1     0.202808     4B1     0.222526     4B2     0.232457  
       1A2     0.301086    10A1     0.303427     5B1     0.490666  
       5B2     0.495904    11A1     0.583630     2A2     0.802978  
      12A1     0.805704    13A1     0.884142     6B1     1.161948  
       6B2     1.167030    14A1     1.401994     7B1     1.608994  
       7B2     1.617268    15A1     1.833248     8B1     2.269906  
       8B2     2.270934     3A2     2.314979    16A1     2.317781  
       9B1     2.365190     9B2     2.382167    17A1     2.450384  
      10B1     2.553555     4A2     2.568714    10B2     2.568939  
      18A1     2.573510    19A1     2.725217    11B1     3.018697  
      11B2     3.027388    20A1     3.337144    12B1     3.525819  
      12B2     3.527155     5A2     3.911167    21A1     3.916718  
       6A2     4.134122    22A1     4.139200    13B1     4.362172  
      13B2     4.379551    23A1     4.462613    24A1     4.940032  
      14B1     4.968542    14B2     4.976685    25A1     5.178646  
      26A1    10.774544  

    Final Occupation by Irrep:
             A1    A2    B1    B2 
    DOCC [     4,    0,    1,    0 ]
    SOCC [     1,    0,    0,    1 ]
    NA   [     5,    0,    1,    1 ]
    NB   [     4,    0,    1,    0 ]

  @DF-UKS Final Energy:   -92.23021779960504

   => Energetics <=

    Nuclear Repulsion Energy =             17.8840100004747526
    One-Electron Energy =                -154.6155487828299897
    Two-Electron Energy =                  54.0103527048304244
    DFT Exchange-Correlation Energy =      -9.5090317220802252
    Empirical Dispersion Energy =           0.0000000000000000
    VV10 Nonlocal Energy =                  0.0000000000000000
    Total Energy =                        -92.2302177996050432

  UHF NO Occupations:
  HONO-2 :    1 B1 1.9986532
  HONO-1 :    5 A1 1.0000000
  HONO-0 :    1 B2 1.0000000
  LUNO+0 :    2 B1 0.0013468
  LUNO+1 :    6 A1 0.0009423
  LUNO+2 :    7 A1 0.0002962
  LUNO+3 :    8 A1 0.0000005


Computation Completed


Properties will be evaluated at   0.000000,   0.000000,   0.000000 [a0]

Properties computed using the SCF density matrix


 Multipole Moments:

 ------------------------------------------------------------------------------------
     Multipole            Electronic (a.u.)      Nuclear  (a.u.)        Total (a.u.)
 ------------------------------------------------------------------------------------

 L = 1.  Multiply by 2.5417464519 to convert [e a0] to [Debye]
 Dipole X            :          0.0000000            0.0000000            0.0000000
 Dipole Y            :          0.0000000            0.0000000            0.0000000
 Dipole Z            :          0.7151788            0.0016658            0.7168445
 Magnitude           :                                                    0.7168445

 ------------------------------------------------------------------------------------

*** tstop() called on Mac.lan at Sun Aug 10 18:31:05 2025
Module time:
	user time   =      32.68 seconds =       0.54 minutes
	system time =       1.89 seconds =       0.03 minutes
	total time  =          3 seconds =       0.05 minutes
Total time:
	user time   =      32.68 seconds =       0.54 minutes
	system time =       1.89 seconds =       0.03 minutes
	total time  =          3 seconds =       0.05 minutes

*** tstart() called on Mac.lan
*** at Sun Aug 10 18:31:05 2025


         ------------------------------------------------------------
                                   SCF GRAD                          
                          Rob Parrish, Justin Turney,                
                       Andy Simmonett, and Alex Sokolov              
         ------------------------------------------------------------

  ==> Geometry <==

    Molecular point group: c2v
    Full point group: C_inf_v

    Geometry (in Angstrom), charge = 1, multiplicity = 3:

       Center              X                  Y                   Z               Mass       
    ------------   -----------------  -----------------  -----------------  -----------------
         N            0.000000000000     0.000000000000    -0.573511423975    14.003074004430
         C            0.000000000000     0.000000000000     0.669243576025    12.000000000000

  Nuclear repulsion =   17.884010000474753

  ==> Basis Set <==

  Basis Set: CC-PVTZ
    Blend: CC-PVTZ
    Number of shells: 20
    Number of basis functions: 60
    Number of Cartesian functions: 70
    Spherical Harmonics?: true
    Max angular momentum: 3

  ==> DFJKGrad: Density-Fitted SCF Gradients <==

    Gradient:                    1
    J tasked:                  Yes
    K tasked:                  Yes
    wK tasked:                  No
    OpenMP threads:              1
    Integrals threads:           1
    Memory [MiB]:              375
    Schwarz Cutoff:          1E-12
    Fitting Condition:       1E-10

   => Auxiliary Basis Set <=

  Basis Set: (CC-PVTZ AUX)
    Blend: CC-PVTZ-JKFIT
    Number of shells: 50
    Number of basis functions: 158
    Number of Cartesian functions: 192
    Spherical Harmonics?: true
    Max angular momentum: 4

  ==> DFT Potential <==

   => LibXC <=

    Version 6.2.2
    S. Lehtola, C. Steigemann, M. J.T. Oliveira, and M. A.L. Marques.,  SoftwareX 7, 1–5 (2018) (10.1016/j.softx.2017.11.002)

   => Composite Functional: B3LYP <= 

    B3LYP Hyb-GGA Exchange-Correlation Functional

    P. J. Stephens, F. J. Devlin, C. F. Chabalowski, and M. J. Frisch.,  J. Phys. Chem. 98, 11623 (1994) (10.1021/j100096a001)

    Deriv               =              1
    GGA                 =           TRUE
    Meta                =          FALSE

    Exchange Hybrid     =           TRUE
    MP2 Hybrid          =          FALSE

   => Exchange Functionals <=

    0.0800   Slater exchange
    0.7200         Becke 88

   => Exact (HF) Exchange <=

    0.2000               HF 

   => Correlation Functionals <=

    0.1900   Vosko, Wilk & Nusair (VWN5_RPA)
    0.8100   Lee, Yang & Parr

   => LibXC Density Thresholds  <==

    XC_HYB_GGA_XC_B3LYP:  1.00E-15 

   => Molecular Quadrature <=

    Radial Scheme          =       TREUTLER
    Pruning Scheme         =           NONE
    Nuclear Scheme         =       TREUTLER

    Blocking Scheme        =         OCTREE
    BS radius alpha        =              1
    Pruning alpha          =              1
    Radial Points          =             75
    Spherical Points       =            302
    Total Points           =          43248
    Total Blocks           =            393
    Max Points             =            256
    Max Functions          =             60
    Weights Tolerance      =       1.00E-15


  -Total Gradient:
     Atom            X                  Y                   Z
    ------   -----------------  -----------------  -----------------
       1        0.000000000000    -0.000000000000    -0.015878451904
       2        0.000000000000     0.000000000000     0.015879326148


*** tstop() called on Mac.lan at Sun Aug 10 18:31:06 2025
Module time:
	user time   =       4.71 seconds =       0.08 minutes
	system time =       0.65 seconds =       0.01 minutes
	total time  =          1 seconds =       0.02 minutes
Total time:
	user time   =      37.40 seconds =       0.62 minutes
	system time =       2.54 seconds =       0.04 minutes
	total time  =          4 seconds =       0.07 minutes

    			-----------------------------------------

    			 OPTKING 3.0: for geometry optimizations 

    			     By R.A. King, Bethel University     

    			        with contributions from          

    			    A.V. Copan, J. Cayton, A. Heide      

    			-----------------------------------------

    
	                            ===> Fragment 1 <== 

	 Z (Atomic Numbers)          Masses                          Geom                  
	       7.000000            14.003074          0.00000000  0.00000000 -1.08377952   
	       6.000000            12.000000          0.00000000  0.00000000  1.26468707   

	 - Coordinate -           - BOHR/RAD -       - ANG/DEG -
	 R(1,2)           =         2.348467           1.242755


	        --- Internal Coordinate Step in ANG or DEG, aJ/ANG or AJ/DEG ---
	-------------------------------------------------------------------------------
	           Coordinate      Previous         Force          Change          New 
	           ----------      --------        ------          ------        ------
	               R(1,2)       1.24276       -0.13082       -0.00977       1.23298
	-------------------------------------------------------------------------------

	                                 ==> Convergence Check <==                                  
    
	Measures of convergence in internal coordinates in au.
    
	Criteria marked as inactive (o), active & met (*), and active & unmet ( ).

	----------------------------------------------------------------------------------------------
	   Step    Total Energy     Delta E     Max Force     RMS Force      Max Disp      RMS Disp   
	----------------------------------------------------------------------------------------------
	  Convergence Criteria     1.00e-06 *    3.00e-04 *             o    1.20e-03 *             o
	----------------------------------------------------------------------------------------------
	     1     -92.23021780   -9.22e+01      1.59e-02      1.59e-02 o    1.85e-02      1.85e-02 o  ~
	----------------------------------------------------------------------------------------------

Next Geometry in Ang 
	Fragment 1 (Ang)

	    N   0.0000000000   0.0000000000  -0.5686261900
	    C   0.0000000000   0.0000000000   0.6643583421


    Structure for next step:
    Molecular point group: c2v
    Full point group: C_inf_v

    Geometry (in Angstrom), charge = 1, multiplicity = 3:

    N            0.000000000000     0.000000000000    -0.569002510322
    C            0.000000000000     0.000000000000     0.663982021729


Scratch directory: /tmp/
gradient() will perform analytic gradient computation.
   => Libint2 <=

    Primary   basis highest AM E, G, H:  6, 6, 3
    Auxiliary basis highest AM E, G, H:  7, 7, 4
    Onebody   basis highest AM E, G, H:  -, -, -
    Solid Harmonics ordering:            Gaussian

*** tstart() called on Mac.lan
*** at Sun Aug 10 18:31:06 2025

   => Loading Basis Set <=

    Name: CC-PVTZ
    Role: ORBITAL
    Keyword: BASIS
    atoms 1 entry N          line   224 file /Users/joseantoniorodriguesromero/anaconda3/share/psi4/basis/cc-pvtz.gbs 
    atoms 2 entry C          line   186 file /Users/joseantoniorodriguesromero/anaconda3/share/psi4/basis/cc-pvtz.gbs 


         ---------------------------------------------------------
                                   SCF
               by Justin Turney, Rob Parrish, Andy Simmonett
                          and Daniel G. A. Smith
                              UKS Reference
                        1 Threads,    500 MiB Core
         ---------------------------------------------------------

  ==> Geometry <==

    Molecular point group: c2v
    Full point group: C_inf_v

    Geometry (in Angstrom), charge = 1, multiplicity = 3:

       Center              X                  Y                   Z               Mass       
    ------------   -----------------  -----------------  -----------------  -----------------
         N            0.000000000000     0.000000000000    -0.569002510322    14.003074004430
         C            0.000000000000     0.000000000000     0.663982021729    12.000000000000

  Running in c2v symmetry.

  Rotational constants: A = ************  B =      1.71594  C =      1.71594 [cm^-1]
  Rotational constants: A = ************  B =  51442.49269  C =  51442.49269 [MHz]
  Nuclear repulsion =   18.025727225606257

  Charge       = 1
  Multiplicity = 3
  Electrons    = 12
  Nalpha       = 7
  Nbeta        = 5

  ==> Algorithm <==

  SCF Algorithm Type is DF.
  DIIS enabled.
  MOM disabled.
  Fractional occupation disabled.
  Guess Type is READ.
  Energy threshold   = 1.00e-08
  Density threshold  = 1.00e-08
  Integral threshold = 1.00e-12

  ==> Primary Basis <==

  Basis Set: CC-PVTZ
    Blend: CC-PVTZ
    Number of shells: 20
    Number of basis functions: 60
    Number of Cartesian functions: 70
    Spherical Harmonics?: true
    Max angular momentum: 3

  ==> DFT Potential <==

   => LibXC <=

    Version 6.2.2
    S. Lehtola, C. Steigemann, M. J.T. Oliveira, and M. A.L. Marques.,  SoftwareX 7, 1–5 (2018) (10.1016/j.softx.2017.11.002)

   => Composite Functional: B3LYP <= 

    B3LYP Hyb-GGA Exchange-Correlation Functional

    P. J. Stephens, F. J. Devlin, C. F. Chabalowski, and M. J. Frisch.,  J. Phys. Chem. 98, 11623 (1994) (10.1021/j100096a001)

    Deriv               =              1
    GGA                 =           TRUE
    Meta                =          FALSE

    Exchange Hybrid     =           TRUE
    MP2 Hybrid          =          FALSE

   => Exchange Functionals <=

    0.0800   Slater exchange
    0.7200         Becke 88

   => Exact (HF) Exchange <=

    0.2000               HF 

   => Correlation Functionals <=

    0.1900   Vosko, Wilk & Nusair (VWN5_RPA)
    0.8100   Lee, Yang & Parr

   => LibXC Density Thresholds  <==

    XC_HYB_GGA_XC_B3LYP:  1.00E-15 

   => Molecular Quadrature <=

    Radial Scheme          =       TREUTLER
    Pruning Scheme         =           NONE
    Nuclear Scheme         =       TREUTLER

    Blocking Scheme        =         OCTREE
    BS radius alpha        =              1
    Pruning alpha          =              1
    Radial Points          =             75
    Spherical Points       =            302
    Total Points           =          43236
    Total Blocks           =            391
    Max Points             =            256
    Max Functions          =             60
    Weights Tolerance      =       1.00E-15

   => Loading Basis Set <=

    Name: (CC-PVTZ AUX)
    Role: JKFIT
    Keyword: DF_BASIS_SCF
    atoms 1 entry N          line   177 file /Users/joseantoniorodriguesromero/anaconda3/share/psi4/basis/cc-pvtz-jkfit.gbs 
    atoms 2 entry C          line   125 file /Users/joseantoniorodriguesromero/anaconda3/share/psi4/basis/cc-pvtz-jkfit.gbs 

   => Loading Basis Set <=

    Name: CC-PVTZ
    Role: ORBITAL
    Keyword: BASIS
    atoms 1 entry N          line   224 file /Users/joseantoniorodriguesromero/anaconda3/share/psi4/basis/cc-pvtz.gbs 
    atoms 2 entry C          line   186 file /Users/joseantoniorodriguesromero/anaconda3/share/psi4/basis/cc-pvtz.gbs 

  Reading orbitals from file /tmp/scan_CN.default.50258.180.npy, no projection.

  ==> Integral Setup <==

  DFHelper Memory: AOs need 0.005 GiB; user supplied 0.294 GiB. 
  Using in-core AOs.

  ==> MemDFJK: Density-Fitted J/K Matrices <==

    J tasked:                   Yes
    K tasked:                   Yes
    wK tasked:                   No
    OpenMP threads:               1
    Memory [MiB]:               301
    Algorithm:                 Core
    Schwarz Cutoff:           1E-12
    Mask sparsity (%):       0.0000
    Fitting Condition:        1E-10

   => Auxiliary Basis Set <=

  Basis Set: (CC-PVTZ AUX)
    Blend: CC-PVTZ-JKFIT
    Number of shells: 50
    Number of basis functions: 158
    Number of Cartesian functions: 192
    Spherical Harmonics?: true
    Max angular momentum: 4

  Cached 100.0% of DFT collocation blocks in 0.072 [GiB].

  Minimum eigenvalue in the overlap matrix is 2.1595218528E-03.
  Reciprocal condition number of the overlap matrix is 5.3342807968E-04.
    Using symmetric orthogonalization.

  ==> Pre-Iterations <==

  SCF Guess: Orbitals guess was supplied from a previous computation.

   -------------------------------------------------------
    Irrep   Nso     Nmo     Nalpha   Nbeta   Ndocc  Nsocc
   -------------------------------------------------------
     A1        26      26       5       4       4       1
     A2         6       6       0       0       0       0
     B1        14      14       1       1       1       0
     B2        14      14       1       0       0       1
   -------------------------------------------------------
    Total      60      60       7       5       5       2
   -------------------------------------------------------

  ==> Iterations <==

                           Total Energy        Delta E     RMS |[F,P]|

   @DF-UKS iter   0:   -92.24213337491359   -9.22421e+01   9.39743e-04 
   @DF-UKS iter   1:   -92.23036957282415    1.17638e-02   1.40490e-04 DIIS/ADIIS
   @DF-UKS iter   2:   -92.23037705080766   -7.47798e-06   1.17379e-04 DIIS/ADIIS/DAMP=1%
   @DF-UKS iter   3:   -92.23046462036308   -8.75696e-05   1.04235e-04 DIIS/ADIIS/DAMP=1%
   @DF-UKS iter   4:   -92.23035945249396    1.05168e-04   2.15342e-05 DIIS/DAMP=1%
   @DF-UKS iter   5:   -92.23038715159898   -2.76991e-05   5.48794e-06 DIIS/DAMP=1%
   @DF-UKS iter   6:   -92.23038366255447    3.48904e-06   2.51798e-06 DIIS/DAMP=1%
   @DF-UKS iter   7:   -92.23038431905029   -6.56496e-07   9.36928e-07 DIIS/DAMP=1%
   @DF-UKS iter   8:   -92.23038459208652   -2.73036e-07   2.80043e-07 DIIS/DAMP=1%
   @DF-UKS iter   9:   -92.23038443394540    1.58141e-07   3.05933e-08 DIIS/DAMP=1%
   @DF-UKS iter  10:   -92.23038453694355   -1.02998e-07   5.25155e-09 DIIS/DAMP=1%
   @DF-UKS iter  11:   -92.23038453222466    4.71888e-09   8.14080e-10 DIIS/DAMP=1%
  Energy and wave function converged.


  ==> Post-Iterations <==

   Electrons on quadrature grid:
      Nalpha   =    7.0000001969 ; deviation = 1.969e-07
      Nbeta    =    5.0000001547 ; deviation = 1.547e-07
      Ntotal   =   12.0000003516 ; deviation = 3.516e-07 

   @Spin Contamination Metric:   5.177365214E-03
   @S^2 Expected:                2.000000000E+00
   @S^2 Observed:                2.005177365E+00
   @S   Expected:                1.000000000E+00
   @S   Observed:                1.000000000E+00

    Orbital Energies [Eh]
    ---------------------

    Alpha Occupied:                                                       

       1A1   -14.851021     2A1   -10.767008     3A1    -1.387884  
       4A1    -0.904434     1B2    -0.821469     5A1    -0.795865  
       1B1    -0.778599  

    Alpha Virtual:                                                        

       2B2    -0.450050     2B1    -0.417134     6A1    -0.104904  
       3B2    -0.006790     7A1     0.000711     3B1     0.003365  
       8A1     0.120456     9A1     0.157708     4B2     0.200934  
       4B1     0.218682     1A2     0.268457    10A1     0.268961  
       5B2     0.436945     5B1     0.459249    11A1     0.560671  
       2A2     0.773672    12A1     0.774282    13A1     0.843055  
       6B2     1.123005     6B1     1.145592    14A1     1.369851  
       7B2     1.566294     7B1     1.587616    15A1     1.771626  
       8B2     2.223521     8B1     2.223656    16A1     2.272567  
       3A2     2.272981     9B2     2.310440     9B1     2.340907  
      17A1     2.386040    10B2     2.473387    18A1     2.498703  
       4A2     2.498953    10B1     2.504248    19A1     2.643842  
      11B2     2.949206    11B1     2.976936    20A1     3.301711  
      12B2     3.485970    12B1     3.486122    21A1     3.873723  
       5A2     3.873826     6A2     4.090753    22A1     4.090862  
      13B2     4.306899    13B1     4.344315    23A1     4.425955  
      24A1     4.901829    14B2     4.930956    14B1     4.962770  
      25A1     5.183885    26A1    10.905455  

    Beta Occupied:                                                        

       1A1   -14.833498     2A1   -10.742685     3A1    -1.320154  
       4A1    -0.813112     1B1    -0.756679  

    Beta Virtual:                                                         

       1B2    -0.641749     5A1    -0.609735     2B1    -0.381178  
       2B2    -0.346319     6A1    -0.083992     3B1     0.011460  
       3B2     0.017870     7A1     0.038261     8A1     0.150786  
       9A1     0.209739     4B1     0.222851     4B2     0.232684  
       1A2     0.300299    10A1     0.302678     5B1     0.493903  
       5B2     0.499129    11A1     0.583600     2A2     0.804917  
      12A1     0.807644    13A1     0.892676     6B1     1.165461  
       6B2     1.170478    14A1     1.405984     7B1     1.607909  
       7B2     1.616263    15A1     1.836579     8B1     2.268826  
       8B2     2.269891     3A2     2.317262    16A1     2.320106  
       9B1     2.371779     9B2     2.388814    17A1     2.443552  
      10B1     2.554001    10B2     2.569379     4A2     2.569611  
      18A1     2.574514    19A1     2.733944    11B1     3.024091  
      11B2     3.032847    20A1     3.360457    12B1     3.527148  
      12B2     3.528480     5A2     3.921951    21A1     3.927625  
       6A2     4.137310    22A1     4.142247    13B1     4.370608  
      13B2     4.387473    23A1     4.479057    24A1     4.946226  
      14B1     4.990583    14B2     4.998881    25A1     5.216348  
      26A1    10.942619  

    Final Occupation by Irrep:
             A1    A2    B1    B2 
    DOCC [     4,    0,    1,    0 ]
    SOCC [     1,    0,    0,    1 ]
    NA   [     5,    0,    1,    1 ]
    NB   [     4,    0,    1,    0 ]

  @DF-UKS Final Energy:   -92.23038453222466

   => Energetics <=

    Nuclear Repulsion Energy =             18.0257272256062571
    One-Electron Energy =                -154.8828243387534371
    Two-Electron Energy =                  54.1426350420766482
    DFT Exchange-Correlation Energy =      -9.5159224611541386
    Empirical Dispersion Energy =           0.0000000000000000
    VV10 Nonlocal Energy =                  0.0000000000000000
    Total Energy =                        -92.2303845322246616

  UHF NO Occupations:
  HONO-2 :    1 B1 1.9986039
  HONO-1 :    5 A1 1.0000000
  HONO-0 :    1 B2 1.0000000
  LUNO+0 :    2 B1 0.0013961
  LUNO+1 :    6 A1 0.0008997
  LUNO+2 :    7 A1 0.0002934
  LUNO+3 :    8 A1 0.0000005


Computation Completed


Properties will be evaluated at   0.000000,   0.000000,   0.000000 [a0]

Properties computed using the SCF density matrix


 Multipole Moments:

 ------------------------------------------------------------------------------------
     Multipole            Electronic (a.u.)      Nuclear  (a.u.)        Total (a.u.)
 ------------------------------------------------------------------------------------

 L = 1.  Multiply by 2.5417464519 to convert [e a0] to [Debye]
 Dipole X            :          0.0000000            0.0000000            0.0000000
 Dipole Y            :          0.0000000            0.0000000            0.0000000
 Dipole Z            :          0.7206192            0.0016527            0.7222719
 Magnitude           :                                                    0.7222719

 ------------------------------------------------------------------------------------

*** tstop() called on Mac.lan at Sun Aug 10 18:31:07 2025
Module time:
	user time   =      14.25 seconds =       0.24 minutes
	system time =       1.46 seconds =       0.02 minutes
	total time  =          1 seconds =       0.02 minutes
Total time:
	user time   =      51.88 seconds =       0.86 minutes
	system time =       4.00 seconds =       0.07 minutes
	total time  =          5 seconds =       0.08 minutes

*** tstart() called on Mac.lan
*** at Sun Aug 10 18:31:07 2025


         ------------------------------------------------------------
                                   SCF GRAD                          
                          Rob Parrish, Justin Turney,                
                       Andy Simmonett, and Alex Sokolov              
         ------------------------------------------------------------

  ==> Geometry <==

    Molecular point group: c2v
    Full point group: C_inf_v

    Geometry (in Angstrom), charge = 1, multiplicity = 3:

       Center              X                  Y                   Z               Mass       
    ------------   -----------------  -----------------  -----------------  -----------------
         N            0.000000000000     0.000000000000    -0.569002510322    14.003074004430
         C            0.000000000000     0.000000000000     0.663982021729    12.000000000000

  Nuclear repulsion =   18.025727225606257

  ==> Basis Set <==

  Basis Set: CC-PVTZ
    Blend: CC-PVTZ
    Number of shells: 20
    Number of basis functions: 60
    Number of Cartesian functions: 70
    Spherical Harmonics?: true
    Max angular momentum: 3

  ==> DFJKGrad: Density-Fitted SCF Gradients <==

    Gradient:                    1
    J tasked:                  Yes
    K tasked:                  Yes
    wK tasked:                  No
    OpenMP threads:              1
    Integrals threads:           1
    Memory [MiB]:              375
    Schwarz Cutoff:          1E-12
    Fitting Condition:       1E-10

   => Auxiliary Basis Set <=

  Basis Set: (CC-PVTZ AUX)
    Blend: CC-PVTZ-JKFIT
    Number of shells: 50
    Number of basis functions: 158
    Number of Cartesian functions: 192
    Spherical Harmonics?: true
    Max angular momentum: 4

  ==> DFT Potential <==

   => LibXC <=

    Version 6.2.2
    S. Lehtola, C. Steigemann, M. J.T. Oliveira, and M. A.L. Marques.,  SoftwareX 7, 1–5 (2018) (10.1016/j.softx.2017.11.002)

   => Composite Functional: B3LYP <= 

    B3LYP Hyb-GGA Exchange-Correlation Functional

    P. J. Stephens, F. J. Devlin, C. F. Chabalowski, and M. J. Frisch.,  J. Phys. Chem. 98, 11623 (1994) (10.1021/j100096a001)

    Deriv               =              1
    GGA                 =           TRUE
    Meta                =          FALSE

    Exchange Hybrid     =           TRUE
    MP2 Hybrid          =          FALSE

   => Exchange Functionals <=

    0.0800   Slater exchange
    0.7200         Becke 88

   => Exact (HF) Exchange <=

    0.2000               HF 

   => Correlation Functionals <=

    0.1900   Vosko, Wilk & Nusair (VWN5_RPA)
    0.8100   Lee, Yang & Parr

   => LibXC Density Thresholds  <==

    XC_HYB_GGA_XC_B3LYP:  1.00E-15 

   => Molecular Quadrature <=

    Radial Scheme          =       TREUTLER
    Pruning Scheme         =           NONE
    Nuclear Scheme         =       TREUTLER

    Blocking Scheme        =         OCTREE
    BS radius alpha        =              1
    Pruning alpha          =              1
    Radial Points          =             75
    Spherical Points       =            302
    Total Points           =          43236
    Total Blocks           =            391
    Max Points             =            256
    Max Functions          =             60
    Weights Tolerance      =       1.00E-15


  -Total Gradient:
     Atom            X                  Y                   Z
    ------   -----------------  -----------------  -----------------
       1       -0.000000000000     0.000000000000    -0.002015973788
       2        0.000000000000     0.000000000000     0.002017054279


*** tstop() called on Mac.lan at Sun Aug 10 18:31:08 2025
Module time:
	user time   =       3.51 seconds =       0.06 minutes
	system time =       0.38 seconds =       0.01 minutes
	total time  =          1 seconds =       0.02 minutes
Total time:
	user time   =      55.39 seconds =       0.92 minutes
	system time =       4.38 seconds =       0.07 minutes
	total time  =          6 seconds =       0.10 minutes

    			-----------------------------------------

    			 OPTKING 3.0: for geometry optimizations 

    			     By R.A. King, Bethel University     

    			        with contributions from          

    			    A.V. Copan, J. Cayton, A. Heide      

    			-----------------------------------------

    
	                            ===> Fragment 1 <== 

	 Z (Atomic Numbers)          Masses                          Geom                  
	       7.000000            14.003074          0.00000000  0.00000000 -1.07525891   
	       6.000000            12.000000          0.00000000  0.00000000  1.25474417   

	 - Coordinate -           - BOHR/RAD -       - ANG/DEG -
	 R(1,2)           =         2.330003           1.232985


	        --- Internal Coordinate Step in ANG or DEG, aJ/ANG or AJ/DEG ---
	-------------------------------------------------------------------------------
	           Coordinate      Previous         Force          Change          New 
	           ----------      --------        ------          ------        ------
	               R(1,2)       1.23298       -0.01661       -0.00142       1.23156
	-------------------------------------------------------------------------------

	                                 ==> Convergence Check <==                                  
    
	Measures of convergence in internal coordinates in au.
    
	Criteria marked as inactive (o), active & met (*), and active & unmet ( ).

	----------------------------------------------------------------------------------------------
	   Step    Total Energy     Delta E     Max Force     RMS Force      Max Disp      RMS Disp   
	----------------------------------------------------------------------------------------------
	  Convergence Criteria     1.00e-06 *    3.00e-04 *             o    1.20e-03 *             o
	----------------------------------------------------------------------------------------------
	     2     -92.23038453   -1.67e-04      2.02e-03      2.02e-03 o    2.69e-03      2.69e-03 o  ~
	----------------------------------------------------------------------------------------------

Next Geometry in Ang 
	Fragment 1 (Ang)

	    N   0.0000000000   0.0000000000  -0.5682918766
	    C   0.0000000000   0.0000000000   0.6632713880


    Structure for next step:
    Molecular point group: c2v
    Full point group: C_inf_v

    Geometry (in Angstrom), charge = 1, multiplicity = 3:

    N            0.000000000000     0.000000000000    -0.568346618235
    C            0.000000000000     0.000000000000     0.663216646276


Scratch directory: /tmp/
gradient() will perform analytic gradient computation.
   => Libint2 <=

    Primary   basis highest AM E, G, H:  6, 6, 3
    Auxiliary basis highest AM E, G, H:  7, 7, 4
    Onebody   basis highest AM E, G, H:  -, -, -
    Solid Harmonics ordering:            Gaussian

*** tstart() called on Mac.lan
*** at Sun Aug 10 18:31:08 2025

   => Loading Basis Set <=

    Name: CC-PVTZ
    Role: ORBITAL
    Keyword: BASIS
    atoms 1 entry N          line   224 file /Users/joseantoniorodriguesromero/anaconda3/share/psi4/basis/cc-pvtz.gbs 
    atoms 2 entry C          line   186 file /Users/joseantoniorodriguesromero/anaconda3/share/psi4/basis/cc-pvtz.gbs 


         ---------------------------------------------------------
                                   SCF
               by Justin Turney, Rob Parrish, Andy Simmonett
                          and Daniel G. A. Smith
                              UKS Reference
                        1 Threads,    500 MiB Core
         ---------------------------------------------------------

  ==> Geometry <==

    Molecular point group: c2v
    Full point group: C_inf_v

    Geometry (in Angstrom), charge = 1, multiplicity = 3:

       Center              X                  Y                   Z               Mass       
    ------------   -----------------  -----------------  -----------------  -----------------
         N            0.000000000000     0.000000000000    -0.568346618235    14.003074004430
         C            0.000000000000     0.000000000000     0.663216646276    12.000000000000

  Running in c2v symmetry.

  Rotational constants: A = ************  B =      1.71990  C =      1.71990 [cm^-1]
  Rotational constants: A = ************  B =  51561.29411  C =  51561.29411 [MHz]
  Nuclear repulsion =   18.046529551999186

  Charge       = 1
  Multiplicity = 3
  Electrons    = 12
  Nalpha       = 7
  Nbeta        = 5

  ==> Algorithm <==

  SCF Algorithm Type is DF.
  DIIS enabled.
  MOM disabled.
  Fractional occupation disabled.
  Guess Type is READ.
  Energy threshold   = 1.00e-08
  Density threshold  = 1.00e-08
  Integral threshold = 1.00e-12

  ==> Primary Basis <==

  Basis Set: CC-PVTZ
    Blend: CC-PVTZ
    Number of shells: 20
    Number of basis functions: 60
    Number of Cartesian functions: 70
    Spherical Harmonics?: true
    Max angular momentum: 3

  ==> DFT Potential <==

   => LibXC <=

    Version 6.2.2
    S. Lehtola, C. Steigemann, M. J.T. Oliveira, and M. A.L. Marques.,  SoftwareX 7, 1–5 (2018) (10.1016/j.softx.2017.11.002)

   => Composite Functional: B3LYP <= 

    B3LYP Hyb-GGA Exchange-Correlation Functional

    P. J. Stephens, F. J. Devlin, C. F. Chabalowski, and M. J. Frisch.,  J. Phys. Chem. 98, 11623 (1994) (10.1021/j100096a001)

    Deriv               =              1
    GGA                 =           TRUE
    Meta                =          FALSE

    Exchange Hybrid     =           TRUE
    MP2 Hybrid          =          FALSE

   => Exchange Functionals <=

    0.0800   Slater exchange
    0.7200         Becke 88

   => Exact (HF) Exchange <=

    0.2000               HF 

   => Correlation Functionals <=

    0.1900   Vosko, Wilk & Nusair (VWN5_RPA)
    0.8100   Lee, Yang & Parr

   => LibXC Density Thresholds  <==

    XC_HYB_GGA_XC_B3LYP:  1.00E-15 

   => Molecular Quadrature <=

    Radial Scheme          =       TREUTLER
    Pruning Scheme         =           NONE
    Nuclear Scheme         =       TREUTLER

    Blocking Scheme        =         OCTREE
    BS radius alpha        =              1
    Pruning alpha          =              1
    Radial Points          =             75
    Spherical Points       =            302
    Total Points           =          43236
    Total Blocks           =            392
    Max Points             =            256
    Max Functions          =             60
    Weights Tolerance      =       1.00E-15

   => Loading Basis Set <=

    Name: (CC-PVTZ AUX)
    Role: JKFIT
    Keyword: DF_BASIS_SCF
    atoms 1 entry N          line   177 file /Users/joseantoniorodriguesromero/anaconda3/share/psi4/basis/cc-pvtz-jkfit.gbs 
    atoms 2 entry C          line   125 file /Users/joseantoniorodriguesromero/anaconda3/share/psi4/basis/cc-pvtz-jkfit.gbs 

   => Loading Basis Set <=

    Name: CC-PVTZ
    Role: ORBITAL
    Keyword: BASIS
    atoms 1 entry N          line   224 file /Users/joseantoniorodriguesromero/anaconda3/share/psi4/basis/cc-pvtz.gbs 
    atoms 2 entry C          line   186 file /Users/joseantoniorodriguesromero/anaconda3/share/psi4/basis/cc-pvtz.gbs 

  Reading orbitals from file /tmp/scan_CN.default.50258.180.npy, no projection.

  ==> Integral Setup <==

  DFHelper Memory: AOs need 0.005 GiB; user supplied 0.294 GiB. 
  Using in-core AOs.

  ==> MemDFJK: Density-Fitted J/K Matrices <==

    J tasked:                   Yes
    K tasked:                   Yes
    wK tasked:                   No
    OpenMP threads:               1
    Memory [MiB]:               301
    Algorithm:                 Core
    Schwarz Cutoff:           1E-12
    Mask sparsity (%):       0.0000
    Fitting Condition:        1E-10

   => Auxiliary Basis Set <=

  Basis Set: (CC-PVTZ AUX)
    Blend: CC-PVTZ-JKFIT
    Number of shells: 50
    Number of basis functions: 158
    Number of Cartesian functions: 192
    Spherical Harmonics?: true
    Max angular momentum: 4

  Cached 100.0% of DFT collocation blocks in 0.072 [GiB].

  Minimum eigenvalue in the overlap matrix is 2.1524625382E-03.
  Reciprocal condition number of the overlap matrix is 5.3152232294E-04.
    Using symmetric orthogonalization.

  ==> Pre-Iterations <==

  SCF Guess: Orbitals guess was supplied from a previous computation.

   -------------------------------------------------------
    Irrep   Nso     Nmo     Nalpha   Nbeta   Ndocc  Nsocc
   -------------------------------------------------------
     A1        26      26       5       4       4       1
     A2         6       6       0       0       0       0
     B1        14      14       1       1       1       0
     B2        14      14       1       0       0       1
   -------------------------------------------------------
    Total      60      60       7       5       5       2
   -------------------------------------------------------

  ==> Iterations <==

                           Total Energy        Delta E     RMS |[F,P]|

   @DF-UKS iter   0:   -92.23208606190080   -9.22321e+01   1.38238e-04 
   @DF-UKS iter   1:   -92.23038682211924    1.69924e-03   2.04523e-05 DIIS
   @DF-UKS iter   2:   -92.23038697650790   -1.54389e-07   1.72923e-05 DIIS/DAMP=1%
   @DF-UKS iter   3:   -92.23039968282527   -1.27063e-05   1.52538e-05 DIIS/DAMP=1%
   @DF-UKS iter   4:   -92.23038359967310    1.60832e-05   3.10552e-06 DIIS/DAMP=1%
   @DF-UKS iter   5:   -92.23038753662860   -3.93696e-06   7.91915e-07 DIIS/DAMP=1%
   @DF-UKS iter   6:   -92.23038701894954    5.17679e-07   3.62279e-07 DIIS/DAMP=1%
   @DF-UKS iter   7:   -92.23038710805008   -8.91005e-08   1.34202e-07 DIIS/DAMP=1%
   @DF-UKS iter   8:   -92.23038714626340   -3.82133e-08   3.99854e-08 DIIS/DAMP=1%
   @DF-UKS iter   9:   -92.23038712398132    2.22821e-08   4.32682e-09 DIIS/DAMP=1%
   @DF-UKS iter  10:   -92.23038713853090   -1.45496e-08   7.73442e-10 DIIS/DAMP=1%
   @DF-UKS iter  11:   -92.23038713790315    6.27750e-10   1.13469e-10 DIIS/DAMP=1%
  Energy and wave function converged.


  ==> Post-Iterations <==

   Electrons on quadrature grid:
      Nalpha   =    7.0000001933 ; deviation = 1.933e-07
      Nbeta    =    5.0000001524 ; deviation = 1.524e-07
      Ntotal   =   12.0000003457 ; deviation = 3.457e-07 

   @Spin Contamination Metric:   5.177923414E-03
   @S^2 Expected:                2.000000000E+00
   @S^2 Observed:                2.005177923E+00
   @S   Expected:                1.000000000E+00
   @S   Observed:                1.000000000E+00

    Orbital Energies [Eh]
    ---------------------

    Alpha Occupied:                                                       

       1A1   -14.850817     2A1   -10.766825     3A1    -1.388599  
       4A1    -0.904234     1B2    -0.821921     5A1    -0.795954  
       1B1    -0.779032  

    Alpha Virtual:                                                        

       2B2    -0.449642     2B1    -0.416711     6A1    -0.104774  
       3B2    -0.006924     7A1     0.000608     3B1     0.003239  
       8A1     0.121721     9A1     0.158016     4B2     0.201002  
       4B1     0.218740     1A2     0.268295    10A1     0.268800  
       5B2     0.437397     5B1     0.459703    11A1     0.560701  
       2A2     0.773979    12A1     0.774592    13A1     0.844258  
       6B2     1.123566     6B1     1.146154    14A1     1.370419  
       7B2     1.566058     7B1     1.587405    15A1     1.772126  
       8B2     2.223273     8B1     2.223408    16A1     2.272879  
       3A2     2.273306     9B2     2.311282     9B1     2.341746  
      17A1     2.385111    10B2     2.473409    18A1     2.498650  
       4A2     2.498899    10B1     2.504300    19A1     2.644898  
      11B2     2.950011    11B1     2.977758    20A1     3.305220  
      12B2     3.486206    12B1     3.486358    21A1     3.875269  
       5A2     3.875372     6A2     4.091367    22A1     4.091482  
      13B2     4.308242    13B1     4.345635    23A1     4.428387  
      24A1     4.902830    14B2     4.934187    14B1     4.966027  
      25A1     5.189586    26A1    10.929995  

    Beta Occupied:                                                        

       1A1   -14.833331     2A1   -10.742458     3A1    -1.320877  
       4A1    -0.812975     1B1    -0.757096  

    Beta Virtual:                                                         

       1B2    -0.642124     5A1    -0.609751     2B1    -0.380717  
       2B2    -0.345886     6A1    -0.083942     3B1     0.011348  
       3B2     0.017768     7A1     0.038216     8A1     0.151258  
       9A1     0.210838     4B1     0.222899     4B2     0.232719  
       1A2     0.300185    10A1     0.302568     5B1     0.494376  
       5B2     0.499601    11A1     0.583602     2A2     0.805203  
      12A1     0.807930    13A1     0.893942     6B1     1.165972  
       6B2     1.170979    14A1     1.406559     7B1     1.607737  
       7B2     1.616102    15A1     1.837086     8B1     2.268665  
       8B2     2.269736     3A2     2.317599    16A1     2.320449  
       9B1     2.372750     9B2     2.389792    17A1     2.442591  
      10B1     2.554080    10B2     2.569458     4A2     2.569741  
      18A1     2.574660    19A1     2.735199    11B1     3.024871  
      11B2     3.033637    20A1     3.363879    12B1     3.527351  
      12B2     3.528682     5A2     3.923525    21A1     3.929217  
       6A2     4.137794    22A1     4.142710    13B1     4.371814  
      13B2     4.388602    23A1     4.481413    24A1     4.947022  
      14B1     4.993828    14B2     5.002150    25A1     5.222119  
      26A1    10.967172  

    Final Occupation by Irrep:
             A1    A2    B1    B2 
    DOCC [     4,    0,    1,    0 ]
    SOCC [     1,    0,    0,    1 ]
    NA   [     5,    0,    1,    1 ]
    NB   [     4,    0,    1,    0 ]

  @DF-UKS Final Energy:   -92.23038713790315

   => Energetics <=

    Nuclear Repulsion Energy =             18.0465295519991855
    One-Electron Energy =                -154.9220231662844185
    Two-Electron Energy =                  54.1620452738418408
    DFT Exchange-Correlation Energy =      -9.5169387974597583
    Empirical Dispersion Energy =           0.0000000000000000
    VV10 Nonlocal Energy =                  0.0000000000000000
    Total Energy =                        -92.2303871379031506

  UHF NO Occupations:
  HONO-2 :    1 B1 1.9985972
  HONO-1 :    5 A1 1.0000000
  HONO-0 :    1 B2 1.0000000
  LUNO+0 :    2 B1 0.0014028
  LUNO+1 :    6 A1 0.0008937
  LUNO+2 :    7 A1 0.0002930
  LUNO+3 :    8 A1 0.0000005


Computation Completed


Properties will be evaluated at   0.000000,   0.000000,   0.000000 [a0]

Properties computed using the SCF density matrix


 Multipole Moments:

 ------------------------------------------------------------------------------------
     Multipole            Electronic (a.u.)      Nuclear  (a.u.)        Total (a.u.)
 ------------------------------------------------------------------------------------

 L = 1.  Multiply by 2.5417464519 to convert [e a0] to [Debye]
 Dipole X            :          0.0000000            0.0000000            0.0000000
 Dipole Y            :          0.0000000            0.0000000            0.0000000
 Dipole Z            :          0.7214137            0.0016508            0.7230645
 Magnitude           :                                                    0.7230645

 ------------------------------------------------------------------------------------

*** tstop() called on Mac.lan at Sun Aug 10 18:31:10 2025
Module time:
	user time   =      18.38 seconds =       0.31 minutes
	system time =       1.66 seconds =       0.03 minutes
	total time  =          2 seconds =       0.03 minutes
Total time:
	user time   =      74.02 seconds =       1.23 minutes
	system time =       6.07 seconds =       0.10 minutes
	total time  =          8 seconds =       0.13 minutes

*** tstart() called on Mac.lan
*** at Sun Aug 10 18:31:10 2025


         ------------------------------------------------------------
                                   SCF GRAD                          
                          Rob Parrish, Justin Turney,                
                       Andy Simmonett, and Alex Sokolov              
         ------------------------------------------------------------

  ==> Geometry <==

    Molecular point group: c2v
    Full point group: C_inf_v

    Geometry (in Angstrom), charge = 1, multiplicity = 3:

       Center              X                  Y                   Z               Mass       
    ------------   -----------------  -----------------  -----------------  -----------------
         N            0.000000000000     0.000000000000    -0.568346618235    14.003074004430
         C            0.000000000000     0.000000000000     0.663216646276    12.000000000000

  Nuclear repulsion =   18.046529551999186

  ==> Basis Set <==

  Basis Set: CC-PVTZ
    Blend: CC-PVTZ
    Number of shells: 20
    Number of basis functions: 60
    Number of Cartesian functions: 70
    Spherical Harmonics?: true
    Max angular momentum: 3

  ==> DFJKGrad: Density-Fitted SCF Gradients <==

    Gradient:                    1
    J tasked:                  Yes
    K tasked:                  Yes
    wK tasked:                  No
    OpenMP threads:              1
    Integrals threads:           1
    Memory [MiB]:              375
    Schwarz Cutoff:          1E-12
    Fitting Condition:       1E-10

   => Auxiliary Basis Set <=

  Basis Set: (CC-PVTZ AUX)
    Blend: CC-PVTZ-JKFIT
    Number of shells: 50
    Number of basis functions: 158
    Number of Cartesian functions: 192
    Spherical Harmonics?: true
    Max angular momentum: 4

  ==> DFT Potential <==

   => LibXC <=

    Version 6.2.2
    S. Lehtola, C. Steigemann, M. J.T. Oliveira, and M. A.L. Marques.,  SoftwareX 7, 1–5 (2018) (10.1016/j.softx.2017.11.002)

   => Composite Functional: B3LYP <= 

    B3LYP Hyb-GGA Exchange-Correlation Functional

    P. J. Stephens, F. J. Devlin, C. F. Chabalowski, and M. J. Frisch.,  J. Phys. Chem. 98, 11623 (1994) (10.1021/j100096a001)

    Deriv               =              1
    GGA                 =           TRUE
    Meta                =          FALSE

    Exchange Hybrid     =           TRUE
    MP2 Hybrid          =          FALSE

   => Exchange Functionals <=

    0.0800   Slater exchange
    0.7200         Becke 88

   => Exact (HF) Exchange <=

    0.2000               HF 

   => Correlation Functionals <=

    0.1900   Vosko, Wilk & Nusair (VWN5_RPA)
    0.8100   Lee, Yang & Parr

   => LibXC Density Thresholds  <==

    XC_HYB_GGA_XC_B3LYP:  1.00E-15 

   => Molecular Quadrature <=

    Radial Scheme          =       TREUTLER
    Pruning Scheme         =           NONE
    Nuclear Scheme         =       TREUTLER

    Blocking Scheme        =         OCTREE
    BS radius alpha        =              1
    Pruning alpha          =              1
    Radial Points          =             75
    Spherical Points       =            302
    Total Points           =          43236
    Total Blocks           =            392
    Max Points             =            256
    Max Functions          =             60
    Weights Tolerance      =       1.00E-15


  -Total Gradient:
     Atom            X                  Y                   Z
    ------   -----------------  -----------------  -----------------
       1        0.000000000000    -0.000000000000     0.000082639218
       2       -0.000000000000    -0.000000000000    -0.000081548010


*** tstop() called on Mac.lan at Sun Aug 10 18:31:11 2025
Module time:
	user time   =      13.10 seconds =       0.22 minutes
	system time =       2.10 seconds =       0.03 minutes
	total time  =          1 seconds =       0.02 minutes
Total time:
	user time   =      87.12 seconds =       1.45 minutes
	system time =       8.18 seconds =       0.14 minutes
	total time  =          9 seconds =       0.15 minutes

    			-----------------------------------------

    			 OPTKING 3.0: for geometry optimizations 

    			     By R.A. King, Bethel University     

    			        with contributions from          

    			    A.V. Copan, J. Cayton, A. Heide      

    			-----------------------------------------

    
	                            ===> Fragment 1 <== 

	 Z (Atomic Numbers)          Masses                          Geom                  
	       7.000000            14.003074          0.00000000  0.00000000 -1.07401945   
	       6.000000            12.000000          0.00000000  0.00000000  1.25329782   

	 - Coordinate -           - BOHR/RAD -       - ANG/DEG -
	 R(1,2)           =         2.327317           1.231563


	        --- Internal Coordinate Step in ANG or DEG, aJ/ANG or AJ/DEG ---
	-------------------------------------------------------------------------------
	           Coordinate      Previous         Force          Change          New 
	           ----------      --------        ------          ------        ------
	               R(1,2)       1.23156        0.00068        0.00006       1.23162
	-------------------------------------------------------------------------------

	                                 ==> Convergence Check <==                                  
    
	Measures of convergence in internal coordinates in au.
    
	Criteria marked as inactive (o), active & met (*), and active & unmet ( ).

	----------------------------------------------------------------------------------------------
	   Step    Total Energy     Delta E     Max Force     RMS Force      Max Disp      RMS Disp   
	----------------------------------------------------------------------------------------------
	  Convergence Criteria     1.00e-06 *    3.00e-04 *             o    1.20e-03 *             o
	----------------------------------------------------------------------------------------------
	     3     -92.23038714   -2.61e-06      8.21e-05 *    8.21e-05 o    1.09e-04 *    1.09e-04 o  ~
	----------------------------------------------------------------------------------------------

Next Geometry in Ang 
	Fragment 1 (Ang)

	    N   0.0000000000   0.0000000000  -0.5683754000
	    C   0.0000000000   0.0000000000   0.6632454280


    Final optimized geometry and variables:
    Molecular point group: c2v
    Full point group: C_inf_v

    Geometry (in Angstrom), charge = 1, multiplicity = 3:

    N            0.000000000000     0.000000000000    -0.568346618235
    C            0.000000000000     0.000000000000     0.663216646276


         ----------------------------------------------------------
                                   FINDIF
                     R. A. King and Jonathon Misiewicz
         ----------------------------------------------------------

  Using finite-differences of gradients to determine vibrational frequencies and 
  normal modes. Resulting frequencies are only valid at stationary points.
    Generating geometries for use with 3-point formula.
    Displacement size will be 5.00e-03.
    Number of atoms is 2.
    Number of irreps is 4.
    Number of SALCs is 3.
    Translations projected? 1. Rotations projected? 0.
    Index of SALCs per irrep:
      1 :  0 
      2 : 
      3 :  1 
      4 :  2 
    Number of SALCs per irrep:
      Irrep 1: 1
      Irrep 2: 0
      Irrep 3: 1
      Irrep 4: 1
    Number of geometries (including reference) is 5.
    Number of displacements per irrep:
      Irrep 1: 2
      Irrep 2: 0
      Irrep 3: 1
      Irrep 4: 1
 5 displacements needed ...

  //>>>>>>>>>>>>>>>>>>>>>>>>>>>>>>>>>>>//
  //    FiniteDifference Computations  //
  //<<<<<<<<<<<<<<<<<<<<<<<<<<<<<<<<<<<//


    -----------------------------------------------------------------------
          Psi4: An Open-Source Ab Initio Electronic Structure Package
                               Psi4 1.9.1 release

                         Git: Rev {} zzzzzzz 


    D. G. A. Smith, L. A. Burns, A. C. Simmonett, R. M. Parrish,
    M. C. Schieber, R. Galvelis, P. Kraus, H. Kruse, R. Di Remigio,
    A. Alenaizan, A. M. James, S. Lehtola, J. P. Misiewicz, M. Scheurer,
    R. A. Shaw, J. B. Schriber, Y. Xie, Z. L. Glick, D. A. Sirianni,
    J. S. O'Brien, J. M. Waldrop, A. Kumar, E. G. Hohenstein,
    B. P. Pritchard, B. R. Brooks, H. F. Schaefer III, A. Yu. Sokolov,
    K. Patkowski, A. E. DePrince III, U. Bozkaya, R. A. King,
    F. A. Evangelista, J. M. Turney, T. D. Crawford, C. D. Sherrill,
    J. Chem. Phys. 152(18) 184108 (2020). https://doi.org/10.1063/5.0006002

                            Additional Code Authors
    E. T. Seidl, C. L. Janssen, E. F. Valeev, M. L. Leininger,
    J. F. Gonthier, R. M. Richard, H. R. McAlexander, M. Saitow, X. Wang,
    P. Verma, M. H. Lechner, A. Jiang, S. Behnle, A. G. Heide,
    M. F. Herbst, and D. L. Poole

             Previous Authors, Complete List of Code Contributors,
                       and Citations for Specific Modules
    https://github.com/psi4/psi4/blob/master/codemeta.json
    https://github.com/psi4/psi4/graphs/contributors
    http://psicode.org/psi4manual/master/introduction.html#citing-psifour

    -----------------------------------------------------------------------


    Psi4 started on: Sunday, 10 August 2025 06:31PM

    Process ID: 50258
    Host:       Mac.lan
    PSIDATADIR: /Users/joseantoniorodriguesromero/anaconda3/share/psi4
    Memory:     500.0 MiB
    Threads:    1
    
  ==> Input QCSchema <==

--------------------------------------------------------------------------
{'driver': 'gradient',
 'extras': {'psiapi': True, 'wfn_qcvars_only': True},
 'id': None,
 'keywords': {'DAMPING_PERCENTAGE': 1.0,
              'DIIS_MAX_VECS': 400,
              'D_CONVERGENCE': 1e-08,
              'E_CONVERGENCE': 1e-08,
              'GUESS': 'SAP',
              'MAXITER': 500,
              'MBIS_MAXITER': 8000,
              'PARENT_SYMMETRY': 'C2v(Z)',
              'REFERENCE': 'UKS',
              'function_kwargs': {}},
 'model': {'basis': 'cc-pvtz', 'method': 'b3lyp'},
 'molecule': {'atom_labels': ['', ''],
              'atomic_numbers': [7, 6],
              'extras': {},
              'fix_com': True,
              'fix_orientation': True,
              'fragment_charges': [1.0],
              'fragment_multiplicities': [3],
              'fragments': [[0, 1]],
              'geometry': [0.0, 0.0, -1.0740194527935758, 0.0, 0.0, 1.2532978233054877],
              'mass_numbers': [14, 12],
              'masses': [14.00307400443, 12.0],
              'molecular_charge': 1.0,
              'molecular_multiplicity': 3,
              'name': 'CN',
              'provenance': {'creator': 'QCElemental',
                             'routine': 'qcelemental.molparse.from_string',
                             'version': '0.28.0'},
              'real': [True, True],
              'schema_name': 'qcschema_molecule',
              'schema_version': 2,
              'symbols': ['N', 'C'],
              'validated': True},
 'protocols': {'stdout': True},
 'provenance': {'creator': 'QCElemental', 'routine': 'qcelemental.models.results', 'version': '0.28.0'},
 'schema_name': 'qcschema_input',
 'schema_version': 1}
--------------------------------------------------------------------------

Scratch directory: /tmp/
gradient() will perform analytic gradient computation.
   => Libint2 <=

    Primary   basis highest AM E, G, H:  6, 6, 3
    Auxiliary basis highest AM E, G, H:  7, 7, 4
    Onebody   basis highest AM E, G, H:  -, -, -
    Solid Harmonics ordering:            Gaussian

*** tstart() called on Mac.lan
*** at Sun Aug 10 18:31:12 2025

   => Loading Basis Set <=

    Name: CC-PVTZ
    Role: ORBITAL
    Keyword: BASIS
    atoms 1 entry N          line   224 file /Users/joseantoniorodriguesromero/anaconda3/share/psi4/basis/cc-pvtz.gbs 
    atoms 2 entry C          line   186 file /Users/joseantoniorodriguesromero/anaconda3/share/psi4/basis/cc-pvtz.gbs 


         ---------------------------------------------------------
                                   SCF
               by Justin Turney, Rob Parrish, Andy Simmonett
                          and Daniel G. A. Smith
                              UKS Reference
                        1 Threads,    500 MiB Core
         ---------------------------------------------------------

  ==> Geometry <==

    Molecular point group: c2v
    Full point group: C_inf_v

    Geometry (in Bohr), charge = 1, multiplicity = 3:

       Center              X                  Y                   Z               Mass       
    ------------   -----------------  -----------------  -----------------  -----------------
         N            0.000000000000     0.000000000000    -1.074019452794    14.003074004430
         C            0.000000000000     0.000000000000     1.253297823305    12.000000000000

  Running in c2v symmetry.

  Rotational constants: A = ************  B =      1.71990  C =      1.71990 [cm^-1]
  Rotational constants: A = ************  B =  51561.29411  C =  51561.29411 [MHz]
  Nuclear repulsion =   18.046529551999186

  Charge       = 1
  Multiplicity = 3
  Electrons    = 12
  Nalpha       = 7
  Nbeta        = 5

  ==> Algorithm <==

  SCF Algorithm Type is DF.
  DIIS enabled.
  MOM disabled.
  Fractional occupation disabled.
  Guess Type is SAP.
  Energy threshold   = 1.00e-08
  Density threshold  = 1.00e-08
  Integral threshold = 1.00e-12

  ==> Primary Basis <==

  Basis Set: CC-PVTZ
    Blend: CC-PVTZ
    Number of shells: 20
    Number of basis functions: 60
    Number of Cartesian functions: 70
    Spherical Harmonics?: true
    Max angular momentum: 3

  ==> DFT Potential <==

   => LibXC <=

    Version 6.2.2
    S. Lehtola, C. Steigemann, M. J.T. Oliveira, and M. A.L. Marques.,  SoftwareX 7, 1–5 (2018) (10.1016/j.softx.2017.11.002)

   => Composite Functional: B3LYP <= 

    B3LYP Hyb-GGA Exchange-Correlation Functional

    P. J. Stephens, F. J. Devlin, C. F. Chabalowski, and M. J. Frisch.,  J. Phys. Chem. 98, 11623 (1994) (10.1021/j100096a001)

    Deriv               =              1
    GGA                 =           TRUE
    Meta                =          FALSE

    Exchange Hybrid     =           TRUE
    MP2 Hybrid          =          FALSE

   => Exchange Functionals <=

    0.0800   Slater exchange
    0.7200         Becke 88

   => Exact (HF) Exchange <=

    0.2000               HF 

   => Correlation Functionals <=

    0.1900   Vosko, Wilk & Nusair (VWN5_RPA)
    0.8100   Lee, Yang & Parr

   => LibXC Density Thresholds  <==

    XC_HYB_GGA_XC_B3LYP:  1.00E-15 

   => Molecular Quadrature <=

    Radial Scheme          =       TREUTLER
    Pruning Scheme         =           NONE
    Nuclear Scheme         =       TREUTLER

    Blocking Scheme        =         OCTREE
    BS radius alpha        =              1
    Pruning alpha          =              1
    Radial Points          =             75
    Spherical Points       =            302
    Total Points           =          43236
    Total Blocks           =            392
    Max Points             =            256
    Max Functions          =             60
    Weights Tolerance      =       1.00E-15

   => Loading Basis Set <=

    Name: (CC-PVTZ AUX)
    Role: JKFIT
    Keyword: DF_BASIS_SCF
    atoms 1 entry N          line   177 file /Users/joseantoniorodriguesromero/anaconda3/share/psi4/basis/cc-pvtz-jkfit.gbs 
    atoms 2 entry C          line   125 file /Users/joseantoniorodriguesromero/anaconda3/share/psi4/basis/cc-pvtz-jkfit.gbs 

  ==> Integral Setup <==

  DFHelper Memory: AOs need 0.005 GiB; user supplied 0.294 GiB. 
  Using in-core AOs.

  ==> MemDFJK: Density-Fitted J/K Matrices <==

    J tasked:                   Yes
    K tasked:                   Yes
    wK tasked:                   No
    OpenMP threads:               1
    Memory [MiB]:               301
    Algorithm:                 Core
    Schwarz Cutoff:           1E-12
    Mask sparsity (%):       0.0000
    Fitting Condition:        1E-10

   => Auxiliary Basis Set <=

  Basis Set: (CC-PVTZ AUX)
    Blend: CC-PVTZ-JKFIT
    Number of shells: 50
    Number of basis functions: 158
    Number of Cartesian functions: 192
    Spherical Harmonics?: true
    Max angular momentum: 4

  Cached 100.0% of DFT collocation blocks in 0.072 [GiB].

  Minimum eigenvalue in the overlap matrix is 2.1524625382E-03.
  Reciprocal condition number of the overlap matrix is 5.3152232294E-04.
    Using symmetric orthogonalization.

  ==> Pre-Iterations <==

  SCF Guess: Superposition of Atomic Potentials (doi:10.1021/acs.jctc.8b01089).

  ==> SAP guess <==

   => Molecular Quadrature <=

    Radial Scheme          =       TREUTLER
    Pruning Scheme         =           NONE
    Nuclear Scheme         =       TREUTLER

    Blocking Scheme        =         OCTREE
    BS radius alpha        =              1
    Pruning alpha          =              1
    Radial Points          =             75
    Spherical Points       =            302
    Total Points           =          43236
    Total Blocks           =            392
    Max Points             =            256
    Max Functions          =             60
    Weights Tolerance      =       1.00E-15

   -------------------------------------------------------
    Irrep   Nso     Nmo     Nalpha   Nbeta   Ndocc  Nsocc
   -------------------------------------------------------
     A1        26      26       5       4       4       1
     A2         6       6       0       0       0       0
     B1        14      14       1       0       0       1
     B2        14      14       1       1       1       0
   -------------------------------------------------------
    Total      60      60       7       5       5       2
   -------------------------------------------------------

  ==> Iterations <==

                           Total Energy        Delta E     RMS |[F,P]|

   @DF-UKS iter   1:   -92.13644710597227   -9.21364e+01   1.49633e-02 DIIS/ADIIS
   @DF-UKS iter   2:   -91.53663365505891    5.99813e-01   3.50757e-02 DIIS/ADIIS/DAMP=1%
   @DF-UKS iter   3:   -92.21636873027838   -6.79735e-01   2.82447e-03 DIIS/ADIIS/DAMP=1%
   @DF-UKS iter   4:   -92.22886790312501   -1.24992e-02   9.64905e-04 DIIS/ADIIS/DAMP=1%
   @DF-UKS iter   5:   -92.23050982624839   -1.64192e-03   1.29397e-04 DIIS/ADIIS/DAMP=1%
   @DF-UKS iter   6:   -92.23032587993987    1.83946e-04   2.20750e-05 DIIS/DAMP=1%
   @DF-UKS iter   7:   -92.23039193592730   -6.60560e-05   1.26357e-05 DIIS/DAMP=1%
   @DF-UKS iter   8:   -92.23038546073791    6.47519e-06   5.26364e-06 DIIS/DAMP=1%
   @DF-UKS iter   9:   -92.23038782598898   -2.36525e-06   1.68937e-06 DIIS/DAMP=1%
   @DF-UKS iter  10:   -92.23038663976320    1.18623e-06   6.95243e-07 DIIS/DAMP=1%
   @DF-UKS iter  11:   -92.23038706253334   -4.22770e-07   4.04342e-07 DIIS/DAMP=1%
   @DF-UKS iter  12:   -92.23038721229162   -1.49758e-07   3.31208e-08 DIIS/DAMP=1%
   @DF-UKS iter  13:   -92.23038713938813    7.29035e-08   4.34082e-09 DIIS/DAMP=1%
   @DF-UKS iter  14:   -92.23038713809520    1.29293e-09   1.22798e-09 DIIS/DAMP=1%
  Energy and wave function converged.


  ==> Post-Iterations <==

   Electrons on quadrature grid:
      Nalpha   =    7.0000001933 ; deviation = 1.933e-07
      Nbeta    =    5.0000001524 ; deviation = 1.524e-07
      Ntotal   =   12.0000003457 ; deviation = 3.457e-07 

   @Spin Contamination Metric:   5.177922293E-03
   @S^2 Expected:                2.000000000E+00
   @S^2 Observed:                2.005177922E+00
   @S   Expected:                1.000000000E+00
   @S   Observed:                1.000000000E+00

    Orbital Energies [Eh]
    ---------------------

    Alpha Occupied:                                                       

       1A1   -14.850817     2A1   -10.766825     3A1    -1.388599  
       4A1    -0.904234     1B1    -0.821921     5A1    -0.795954  
       1B2    -0.779032  

    Alpha Virtual:                                                        

       2B1    -0.449642     2B2    -0.416711     6A1    -0.104774  
       3B1    -0.006924     7A1     0.000608     3B2     0.003239  
       8A1     0.121721     9A1     0.158016     4B1     0.201002  
       4B2     0.218740     1A2     0.268295    10A1     0.268800  
       5B1     0.437397     5B2     0.459703    11A1     0.560701  
       2A2     0.773979    12A1     0.774592    13A1     0.844258  
       6B1     1.123566     6B2     1.146154    14A1     1.370419  
       7B1     1.566058     7B2     1.587405    15A1     1.772126  
       8B1     2.223273     8B2     2.223408    16A1     2.272879  
       3A2     2.273306     9B1     2.311282     9B2     2.341746  
      17A1     2.385111    10B1     2.473409    18A1     2.498650  
       4A2     2.498899    10B2     2.504300    19A1     2.644898  
      11B1     2.950011    11B2     2.977758    20A1     3.305220  
      12B1     3.486206    12B2     3.486358    21A1     3.875269  
       5A2     3.875372     6A2     4.091367    22A1     4.091482  
      13B1     4.308242    13B2     4.345635    23A1     4.428387  
      24A1     4.902830    14B1     4.934187    14B2     4.966027  
      25A1     5.189586    26A1    10.929995  

    Beta Occupied:                                                        

       1A1   -14.833331     2A1   -10.742458     3A1    -1.320877  
       4A1    -0.812975     1B2    -0.757096  

    Beta Virtual:                                                         

       1B1    -0.642124     5A1    -0.609751     2B2    -0.380717  
       2B1    -0.345886     6A1    -0.083942     3B2     0.011348  
       3B1     0.017768     7A1     0.038216     8A1     0.151258  
       9A1     0.210838     4B2     0.222899     4B1     0.232719  
       1A2     0.300185    10A1     0.302568     5B2     0.494376  
       5B1     0.499601    11A1     0.583602     2A2     0.805203  
      12A1     0.807930    13A1     0.893942     6B2     1.165972  
       6B1     1.170979    14A1     1.406559     7B2     1.607737  
       7B1     1.616102    15A1     1.837086     8B2     2.268665  
       8B1     2.269736     3A2     2.317599    16A1     2.320449  
       9B2     2.372750     9B1     2.389792    17A1     2.442591  
      10B2     2.554080    10B1     2.569458     4A2     2.569741  
      18A1     2.574660    19A1     2.735199    11B2     3.024871  
      11B1     3.033637    20A1     3.363879    12B2     3.527351  
      12B1     3.528682     5A2     3.923525    21A1     3.929217  
       6A2     4.137794    22A1     4.142710    13B2     4.371814  
      13B1     4.388602    23A1     4.481413    24A1     4.947022  
      14B2     4.993828    14B1     5.002150    25A1     5.222119  
      26A1    10.967172  

    Final Occupation by Irrep:
             A1    A2    B1    B2 
    DOCC [     4,    0,    0,    1 ]
    SOCC [     1,    0,    1,    0 ]
    NA   [     5,    0,    1,    1 ]
    NB   [     4,    0,    0,    1 ]

  @DF-UKS Final Energy:   -92.23038713809520

   => Energetics <=

    Nuclear Repulsion Energy =             18.0465295519991855
    One-Electron Energy =                -154.9220232196265101
    Two-Electron Energy =                  54.1620453344648851
    DFT Exchange-Correlation Energy =      -9.5169388049327583
    Empirical Dispersion Energy =           0.0000000000000000
    VV10 Nonlocal Energy =                  0.0000000000000000
    Total Energy =                        -92.2303871380951961

  UHF NO Occupations:
  HONO-2 :    1 B2 1.9985972
  HONO-1 :    5 A1 1.0000000
  HONO-0 :    1 B1 1.0000000
  LUNO+0 :    2 B2 0.0014028
  LUNO+1 :    6 A1 0.0008937
  LUNO+2 :    7 A1 0.0002930
  LUNO+3 :    8 A1 0.0000005


Computation Completed


Properties will be evaluated at   0.000000,   0.000000,   0.000000 [a0]

Properties computed using the SCF density matrix


 Multipole Moments:

 ------------------------------------------------------------------------------------
[...]
    Translational S                         35.703 [cal/(mol K)]      149.381 [J/(mol K)]       0.05689632 [mEh/K] (mol. weight = 26.0031 [u], P = 101325.00 [Pa])
    Rotational S                            11.509 [cal/(mol K)]       48.154 [J/(mol K)]       0.01834070 [mEh/K] (symmetry no. = 1)
    Vibrational S                            0.003 [cal/(mol K)]        0.014 [J/(mol K)]       0.00000536 [mEh/K]
  Total S                                   49.398 [cal/(mol K)]      206.683 [J/(mol K)]       0.07872148 [mEh/K]
  Correction S                               0.000 [cal/(mol K)]        0.000 [J/(mol K)]       0.00000000 [mEh/K]

  Constant volume heat capacity, Cv
    Electronic Cv                            0.000 [cal/(mol K)]        0.000 [J/(mol K)]       0.00000000 [mEh/K]
    Translational Cv                         2.981 [cal/(mol K)]       12.472 [J/(mol K)]       0.00475022 [mEh/K]
    Rotational Cv                            1.987 [cal/(mol K)]        8.314 [J/(mol K)]       0.00316681 [mEh/K]
    Vibrational Cv                           0.026 [cal/(mol K)]        0.109 [J/(mol K)]       0.00004158 [mEh/K]
  Total Cv                                   4.994 [cal/(mol K)]       20.895 [J/(mol K)]       0.00795861 [mEh/K]
  Correction Cv                              0.000 [cal/(mol K)]        0.000 [J/(mol K)]       0.00000000 [mEh/K]

  Constant pressure heat capacity, Cp
    Electronic Cp                            0.000 [cal/(mol K)]        0.000 [J/(mol K)]       0.00000000 [mEh/K]
    Translational Cp                         4.968 [cal/(mol K)]       20.786 [J/(mol K)]       0.00791703 [mEh/K]
    Rotational Cp                            1.987 [cal/(mol K)]        8.314 [J/(mol K)]       0.00316681 [mEh/K]
    Vibrational Cp                           0.026 [cal/(mol K)]        0.109 [J/(mol K)]       0.00004158 [mEh/K]
  Total Cp                                   6.981 [cal/(mol K)]       29.210 [J/(mol K)]       0.01112542 [mEh/K]
  Correction Cp                              0.000 [cal/(mol K)]        0.000 [J/(mol K)]       0.00000000 [mEh/K]

  ==> Thermochemistry Energy Analysis <==

  Raw electronic energy, E_e
  Total E_e, Electronic energy at well bottom                                           -92.23038714 [Eh]

  Zero-point vibrational energy, ZPVE = Sum_i omega_i / 2,  E_0 = E_e + ZPVE
    Vibrational ZPVE                         2.562 [kcal/mol]       10.719 [kJ/mol]       0.00408251 [Eh]         896.007 [cm^-1]
  Correction ZPVE to E_e                     2.562 [kcal/mol]       10.719 [kJ/mol]       0.00408251 [Eh]         896.007 [cm^-1]
  Total E_0, Enthalpy at 0 [K]                                                          -92.22630463 [Eh]
  *** Absolute enthalpy, not an enthalpy of formation ***

  Thermal (internal) energy, E (includes ZPVE and finite-temperature corrections)
    Electronic contrib to E beyond E_e       0.000 [kcal/mol]        0.000 [kJ/mol]       0.00000000 [Eh]
    Translational contrib to E               0.889 [kcal/mol]        3.718 [kJ/mol]       0.00141628 [Eh]
    Rotational contrib to E                  0.592 [kcal/mol]        2.479 [kJ/mol]       0.00094418 [Eh]
    Vibrational contrib to E                 2.563 [kcal/mol]       10.722 [kJ/mol]       0.00408394 [Eh]
  Correction E                               4.044 [kcal/mol]       16.920 [kJ/mol]       0.00644440 [Eh]
  Total E, Thermal (internal) energy at  298.15 [K]                                     -92.22394273 [Eh]

  Enthalpy, H_trans = E_trans + k_B * T = E_trans + P * V
    Electronic contrib to H beyond E_e       0.000 [kcal/mol]        0.000 [kJ/mol]       0.00000000 [Eh]
    Translational contrib to H               1.481 [kcal/mol]        6.197 [kJ/mol]       0.00236046 [Eh]
    Rotational contrib to H                  0.592 [kcal/mol]        2.479 [kJ/mol]       0.00094418 [Eh]
    Vibrational contrib to H                 2.563 [kcal/mol]       10.722 [kJ/mol]       0.00408394 [Eh]
  Correction H                               4.636 [kcal/mol]       19.399 [kJ/mol]       0.00738859 [Eh]
  Total H, Enthalpy at  298.15 [K]                                                      -92.22299855 [Eh]
  *** Absolute enthalpy, not an enthalpy of formation ***

  Gibbs free energy, G = H - T * S
    Electronic contrib to G beyond E_e      -0.651 [kcal/mol]       -2.723 [kJ/mol]      -0.00103729 [Eh]
    Translational contrib to G              -9.164 [kcal/mol]      -38.341 [kJ/mol]      -0.01460318 [Eh]
    Rotational contrib to G                 -2.839 [kcal/mol]      -11.878 [kJ/mol]      -0.00452410 [Eh]
    Vibrational contrib to G                 2.562 [kcal/mol]       10.718 [kJ/mol]       0.00408234 [Eh]
  Correction G                             -10.092 [kcal/mol]      -42.224 [kJ/mol]      -0.01608222 [Eh]
  Total G, Gibbs energy at  298.15 [K]                                                  -92.24646936 [Eh]
  *** Absolute Gibbs energy, not a free energy of formation ***


*** tstart() called on Mac.lan
*** at Sun Aug 10 18:31:47 2025

   => Libint2 <=

    Primary   basis highest AM E, G, H:  6, 6, 3
    Auxiliary basis highest AM E, G, H:  7, 7, 4
    Onebody   basis highest AM E, G, H:  -, -, -
    Solid Harmonics ordering:            Gaussian
   => Loading Basis Set <=

    Name: CC-PVTZ
    Role: ORBITAL
    Keyword: BASIS
    atoms 1 entry N          line   224 file /Users/joseantoniorodriguesromero/anaconda3/share/psi4/basis/cc-pvtz.gbs 
    atoms 2 entry C          line   186 file /Users/joseantoniorodriguesromero/anaconda3/share/psi4/basis/cc-pvtz.gbs 


         ---------------------------------------------------------
                                   SCF
               by Justin Turney, Rob Parrish, Andy Simmonett
                          and Daniel G. A. Smith
                              UKS Reference
                        1 Threads,    500 MiB Core
         ---------------------------------------------------------

  ==> Geometry <==

    Molecular point group: c2v
    Full point group: C_inf_v

    Geometry (in Angstrom), charge = 1, multiplicity = 3:

       Center              X                  Y                   Z               Mass       
    ------------   -----------------  -----------------  -----------------  -----------------
         N            0.000000000000     0.000000000000    -0.568346618235    14.003074004430
         C            0.000000000000     0.000000000000     0.663216646276    12.000000000000

  Running in c2v symmetry.

  Rotational constants: A = ************  B =      1.71990  C =      1.71990 [cm^-1]
  Rotational constants: A = ************  B =  51561.29411  C =  51561.29411 [MHz]
  Nuclear repulsion =   18.046529551999186

  Charge       = 1
  Multiplicity = 3
  Electrons    = 12
  Nalpha       = 7
  Nbeta        = 5

  ==> Algorithm <==

  SCF Algorithm Type is DF.
  DIIS enabled.
  MOM disabled.
  Fractional occupation disabled.
  Guess Type is SAP.
  Energy threshold   = 1.00e-08
  Density threshold  = 1.00e-08
  Integral threshold = 1.00e-12

  ==> Primary Basis <==

  Basis Set: CC-PVTZ
    Blend: CC-PVTZ
    Number of shells: 20
    Number of basis functions: 60
    Number of Cartesian functions: 70
    Spherical Harmonics?: true
    Max angular momentum: 3

  ==> DFT Potential <==

   => LibXC <=

    Version 6.2.2
    S. Lehtola, C. Steigemann, M. J.T. Oliveira, and M. A.L. Marques.,  SoftwareX 7, 1–5 (2018) (10.1016/j.softx.2017.11.002)

   => Composite Functional: B3LYP <= 

    B3LYP Hyb-GGA Exchange-Correlation Functional

    P. J. Stephens, F. J. Devlin, C. F. Chabalowski, and M. J. Frisch.,  J. Phys. Chem. 98, 11623 (1994) (10.1021/j100096a001)

    Deriv               =              1
    GGA                 =           TRUE
    Meta                =          FALSE

    Exchange Hybrid     =           TRUE
    MP2 Hybrid          =          FALSE

   => Exchange Functionals <=

    0.0800   Slater exchange
    0.7200         Becke 88

   => Exact (HF) Exchange <=

    0.2000               HF 

   => Correlation Functionals <=

    0.1900   Vosko, Wilk & Nusair (VWN5_RPA)
    0.8100   Lee, Yang & Parr

   => LibXC Density Thresholds  <==

    XC_HYB_GGA_XC_B3LYP:  1.00E-15 

   => Molecular Quadrature <=

    Radial Scheme          =       TREUTLER
    Pruning Scheme         =           NONE
    Nuclear Scheme         =       TREUTLER

    Blocking Scheme        =         OCTREE
    BS radius alpha        =              1
    Pruning alpha          =              1
    Radial Points          =             75
    Spherical Points       =            302
    Total Points           =          43236
    Total Blocks           =            392
    Max Points             =            256
    Max Functions          =             60
    Weights Tolerance      =       1.00E-15

   => Loading Basis Set <=

    Name: (CC-PVTZ AUX)
    Role: JKFIT
    Keyword: DF_BASIS_SCF
    atoms 1 entry N          line   177 file /Users/joseantoniorodriguesromero/anaconda3/share/psi4/basis/cc-pvtz-jkfit.gbs 
    atoms 2 entry C          line   125 file /Users/joseantoniorodriguesromero/anaconda3/share/psi4/basis/cc-pvtz-jkfit.gbs 

  ==> Integral Setup <==

  DFHelper Memory: AOs need 0.005 GiB; user supplied 0.294 GiB. 
  Using in-core AOs.

  ==> MemDFJK: Density-Fitted J/K Matrices <==

    J tasked:                   Yes
    K tasked:                   Yes
    wK tasked:                   No
    OpenMP threads:               1
    Memory [MiB]:               301
    Algorithm:                 Core
    Schwarz Cutoff:           1E-12
    Mask sparsity (%):       0.0000
    Fitting Condition:        1E-10

   => Auxiliary Basis Set <=

  Basis Set: (CC-PVTZ AUX)
    Blend: CC-PVTZ-JKFIT
    Number of shells: 50
    Number of basis functions: 158
    Number of Cartesian functions: 192
    Spherical Harmonics?: true
    Max angular momentum: 4

  Cached 100.0% of DFT collocation blocks in 0.072 [GiB].

  Minimum eigenvalue in the overlap matrix is 2.1524625382E-03.
  Reciprocal condition number of the overlap matrix is 5.3152232294E-04.
    Using symmetric orthogonalization.

  ==> Pre-Iterations <==

  SCF Guess: Superposition of Atomic Potentials (doi:10.1021/acs.jctc.8b01089).

  ==> SAP guess <==

   => Molecular Quadrature <=

    Radial Scheme          =       TREUTLER
    Pruning Scheme         =           NONE
    Nuclear Scheme         =       TREUTLER

    Blocking Scheme        =         OCTREE
    BS radius alpha        =              1
    Pruning alpha          =              1
    Radial Points          =             75
    Spherical Points       =            302
    Total Points           =          43236
    Total Blocks           =            392
    Max Points             =            256
    Max Functions          =             60
    Weights Tolerance      =       1.00E-15

   -------------------------------------------------------
    Irrep   Nso     Nmo     Nalpha   Nbeta   Ndocc  Nsocc
   -------------------------------------------------------
     A1        26      26       5       4       4       1
     A2         6       6       0       0       0       0
     B1        14      14       1       0       0       1
     B2        14      14       1       1       1       0
   -------------------------------------------------------
    Total      60      60       7       5       5       2
   -------------------------------------------------------

  ==> Iterations <==

                           Total Energy        Delta E     RMS |[F,P]|

   @DF-UKS iter   1:   -92.13644710597227   -9.21364e+01   1.49633e-02 DIIS/ADIIS
   @DF-UKS iter   2:   -91.53663365505891    5.99813e-01   3.50757e-02 DIIS/ADIIS/DAMP=1%
   @DF-UKS iter   3:   -92.21636873027838   -6.79735e-01   2.82447e-03 DIIS/ADIIS/DAMP=1%
   @DF-UKS iter   4:   -92.22886790312501   -1.24992e-02   9.64905e-04 DIIS/ADIIS/DAMP=1%
   @DF-UKS iter   5:   -92.23050982624839   -1.64192e-03   1.29397e-04 DIIS/ADIIS/DAMP=1%
   @DF-UKS iter   6:   -92.23032587993987    1.83946e-04   2.20750e-05 DIIS/DAMP=1%
   @DF-UKS iter   7:   -92.23039193592730   -6.60560e-05   1.26357e-05 DIIS/DAMP=1%
   @DF-UKS iter   8:   -92.23038546073791    6.47519e-06   5.26364e-06 DIIS/DAMP=1%
   @DF-UKS iter   9:   -92.23038782598898   -2.36525e-06   1.68937e-06 DIIS/DAMP=1%
   @DF-UKS iter  10:   -92.23038663976320    1.18623e-06   6.95243e-07 DIIS/DAMP=1%
   @DF-UKS iter  11:   -92.23038706253334   -4.22770e-07   4.04342e-07 DIIS/DAMP=1%
   @DF-UKS iter  12:   -92.23038721229162   -1.49758e-07   3.31208e-08 DIIS/DAMP=1%
   @DF-UKS iter  13:   -92.23038713938813    7.29035e-08   4.34082e-09 DIIS/DAMP=1%
   @DF-UKS iter  14:   -92.23038713809520    1.29293e-09   1.22798e-09 DIIS/DAMP=1%
  Energy and wave function converged.


  ==> Post-Iterations <==

   Electrons on quadrature grid:
      Nalpha   =    7.0000001933 ; deviation = 1.933e-07
      Nbeta    =    5.0000001524 ; deviation = 1.524e-07
      Ntotal   =   12.0000003457 ; deviation = 3.457e-07 

   @Spin Contamination Metric:   5.177922293E-03
   @S^2 Expected:                2.000000000E+00
   @S^2 Observed:                2.005177922E+00
   @S   Expected:                1.000000000E+00
   @S   Observed:                1.000000000E+00

    Orbital Energies [Eh]
    ---------------------

    Alpha Occupied:                                                       

       1A1   -14.850817     2A1   -10.766825     3A1    -1.388599  
       4A1    -0.904234     1B1    -0.821921     5A1    -0.795954  
       1B2    -0.779032  

    Alpha Virtual:                                                        

       2B1    -0.449642     2B2    -0.416711     6A1    -0.104774  
       3B1    -0.006924     7A1     0.000608     3B2     0.003239  
       8A1     0.121721     9A1     0.158016     4B1     0.201002  
       4B2     0.218740     1A2     0.268295    10A1     0.268800  
       5B1     0.437397     5B2     0.459703    11A1     0.560701  
       2A2     0.773979    12A1     0.774592    13A1     0.844258  
       6B1     1.123566     6B2     1.146154    14A1     1.370419  
       7B1     1.566058     7B2     1.587405    15A1     1.772126  
       8B1     2.223273     8B2     2.223408    16A1     2.272879  
       3A2     2.273306     9B1     2.311282     9B2     2.341746  
      17A1     2.385111    10B1     2.473409    18A1     2.498650  
       4A2     2.498899    10B2     2.504300    19A1     2.644898  
      11B1     2.950011    11B2     2.977758    20A1     3.305220  
      12B1     3.486206    12B2     3.486358    21A1     3.875269  
       5A2     3.875372     6A2     4.091367    22A1     4.091482  
      13B1     4.308242    13B2     4.345635    23A1     4.428387  
      24A1     4.902830    14B1     4.934187    14B2     4.966027  
      25A1     5.189586    26A1    10.929995  

    Beta Occupied:                                                        

       1A1   -14.833331     2A1   -10.742458     3A1    -1.320877  
       4A1    -0.812975     1B2    -0.757096  

    Beta Virtual:                                                         

       1B1    -0.642124     5A1    -0.609751     2B2    -0.380717  
       2B1    -0.345886     6A1    -0.083942     3B2     0.011348  
       3B1     0.017768     7A1     0.038216     8A1     0.151258  
       9A1     0.210838     4B2     0.222899     4B1     0.232719  
       1A2     0.300185    10A1     0.302568     5B2     0.494376  
       5B1     0.499601    11A1     0.583602     2A2     0.805203  
      12A1     0.807930    13A1     0.893942     6B2     1.165972  
       6B1     1.170979    14A1     1.406559     7B2     1.607737  
       7B1     1.616102    15A1     1.837086     8B2     2.268665  
       8B1     2.269736     3A2     2.317599    16A1     2.320449  
       9B2     2.372750     9B1     2.389792    17A1     2.442591  
      10B2     2.554080    10B1     2.569458     4A2     2.569741  
      18A1     2.574660    19A1     2.735199    11B2     3.024871  
      11B1     3.033637    20A1     3.363879    12B2     3.527351  
      12B1     3.528682     5A2     3.923525    21A1     3.929217  
       6A2     4.137794    22A1     4.142710    13B2     4.371814  
      13B1     4.388602    23A1     4.481413    24A1     4.947022  
      14B2     4.993828    14B1     5.002150    25A1     5.222119  
      26A1    10.967172  

    Final Occupation by Irrep:
             A1    A2    B1    B2 
    DOCC [     4,    0,    0,    1 ]
    SOCC [     1,    0,    1,    0 ]
    NA   [     5,    0,    1,    1 ]
    NB   [     4,    0,    0,    1 ]

  @DF-UKS Final Energy:   -92.23038713809520

   => Energetics <=

    Nuclear Repulsion Energy =             18.0465295519991855
    One-Electron Energy =                -154.9220232196265101
    Two-Electron Energy =                  54.1620453344648851
    DFT Exchange-Correlation Energy =      -9.5169388049327583
    Empirical Dispersion Energy =           0.0000000000000000
    VV10 Nonlocal Energy =                  0.0000000000000000
    Total Energy =                        -92.2303871380951961

  UHF NO Occupations:
  HONO-2 :    1 B2 1.9985972
  HONO-1 :    5 A1 1.0000000
  HONO-0 :    1 B1 1.0000000
  LUNO+0 :    2 B2 0.0014028
  LUNO+1 :    6 A1 0.0008937
  LUNO+2 :    7 A1 0.0002930
  LUNO+3 :    8 A1 0.0000005


Computation Completed


Properties will be evaluated at   0.000000,   0.000000,   0.000000 [a0]

Properties computed using the B3LYP density matrix


 Multipole Moments:

 ------------------------------------------------------------------------------------
     Multipole            Electronic (a.u.)      Nuclear  (a.u.)        Total (a.u.)
 ------------------------------------------------------------------------------------

 L = 1.  Multiply by 2.5417464519 to convert [e a0] to [Debye]
 Dipole X            :          0.0000000            0.0000000            0.0000000
 Dipole Y            :          0.0000000            0.0000000            0.0000000
 Dipole Z            :          0.7214137            0.0016508            0.7230645
 Magnitude           :                                                    0.7230645

 L = 2.  Multiply by 1.3450342976 to convert [e a0^2] to [Debye ang]
 Quadrupole XX       :         -5.7117981            0.0000000           -5.7117981
 Quadrupole XY       :          0.0000000            0.0000000            0.0000000
 Quadrupole XZ       :          0.0000000            0.0000000            0.0000000
 Quadrupole YY       :         -6.7164017            0.0000000           -6.7164017
 Quadrupole YZ       :          0.0000000            0.0000000            0.0000000
 Quadrupole ZZ       :        -22.1573576           17.4991571           -4.6582005
 Traceless XX        :          5.8167210           -5.8330524           -0.0163313
 Traceless YY        :          4.8121174           -5.8330524           -1.0209349
 Traceless ZZ        :        -10.6288385           11.6661047            1.0372663

 ------------------------------------------------------------------------------------
  Mulliken Charges: (a.u.)
   Center  Symbol    Alpha    Beta     Spin     Total
       1     N     3.70988  2.92423  0.78565  0.36589
       2     C     3.29012  2.07577  1.21435  0.63411

   Total alpha =  7.00000, Total beta =  5.00000, Total charge =  1.00000


*** tstop() called on Mac.lan at Sun Aug 10 18:31:51 2025
Module time:
	user time   =      34.23 seconds =       0.57 minutes
	system time =       2.09 seconds =       0.03 minutes
	total time  =          4 seconds =       0.07 minutes
Total time:
	user time   =     443.25 seconds =       7.39 minutes
	system time =      32.64 seconds =       0.54 minutes
	total time  =         49 seconds =       0.82 minutes

    Psi4 stopped on: Sunday, 10 August 2025 06:31PM
    Psi4 wall time for execution: 0:00:49.36

*** Psi4 exiting successfully. Buy a developer a beer!
