
    -----------------------------------------------------------------------
          Psi4: An Open-Source Ab Initio Electronic Structure Package
                               Psi4 1.9.1 release

                         Git: Rev {} zzzzzzz 


    D. G. A. Smith, L. A. Burns, A. C. Simmonett, R. M. Parrish,
    M. C. Schieber, R. Galvelis, P. Kraus, H. Kruse, R. Di Remigio,
    A. Alenaizan, A. M. James, S. Lehtola, J. P. Misiewicz, M. Scheurer,
    R. A. Shaw, J. B. Schriber, Y. Xie, Z. L. Glick, D. A. Sirianni,
    J. S. O'Brien, J. M. Waldrop, A. Kumar, E. G. Hohenstein,
    B. P. Pritchard, B. R. Brooks, H. F. Schaefer III, A. Yu. Sokolov,
    K. Patkowski, A. E. DePrince III, U. Bozkaya, R. A. King,
    F. A. Evangelista, J. M. Turney, T. D. Crawford, C. D. Sherrill,
    J. Chem. Phys. 152(18) 184108 (2020). https://doi.org/10.1063/5.0006002

                            Additional Code Authors
    E. T. Seidl, C. L. Janssen, E. F. Valeev, M. L. Leininger,
    J. F. Gonthier, R. M. Richard, H. R. McAlexander, M. Saitow, X. Wang,
    P. Verma, M. H. Lechner, A. Jiang, S. Behnle, A. G. Heide,
    M. F. Herbst, and D. L. Poole

             Previous Authors, Complete List of Code Contributors,
                       and Citations for Specific Modules
    https://github.com/psi4/psi4/blob/master/codemeta.json
    https://github.com/psi4/psi4/graphs/contributors
    http://psicode.org/psi4manual/master/introduction.html#citing-psifour

    -----------------------------------------------------------------------


    Psi4 started on: Sunday, 10 August 2025 06:34PM

    Process ID: 50356
    Host:       Mac.lan
    PSIDATADIR: /Users/joseantoniorodriguesromero/anaconda3/share/psi4
    Memory:     500.0 MiB
    Threads:    1
    
  ==> Input File <==

--------------------------------------------------------------------------
molecule { 
1 3
N           0.000000           0.000000           0.000000
C           0.000000           0.000000           1.508037
}

set { 
basis              cc-pvtz
reference          uks
maxiter            500
DAMPING_PERCENTAGE 1
E_CONVERGENCE      1.0E-8
D_CONVERGENCE      1.0E-8
DIIS_MAX_VECS      400
MBIS_MAXITER       8000
guess              read
}

E, wfn = energy('b3lyp', restart_file='last_wfn', return_wfn=True)
properties('b3lyp','MBIS_CHARGES', wfn=wfn)
wfn.to_file('last_wfn')
--------------------------------------------------------------------------

Scratch directory: /tmp/
 Found user provided orbital data. Setting orbital guess to READ 
 Copying restart file <last_wfn.npy> to </tmp/scan_CN_35.default.50356.180.npy> for internal processing
   => Libint2 <=

    Primary   basis highest AM E, G, H:  6, 6, 3
    Auxiliary basis highest AM E, G, H:  7, 7, 4
    Onebody   basis highest AM E, G, H:  -, -, -
    Solid Harmonics ordering:            Gaussian

*** tstart() called on Mac.lan
*** at Sun Aug 10 18:34:30 2025

   => Loading Basis Set <=

    Name: CC-PVTZ
    Role: ORBITAL
    Keyword: BASIS
    atoms 1 entry N          line   224 file /Users/joseantoniorodriguesromero/anaconda3/share/psi4/basis/cc-pvtz.gbs 
    atoms 2 entry C          line   186 file /Users/joseantoniorodriguesromero/anaconda3/share/psi4/basis/cc-pvtz.gbs 


         ---------------------------------------------------------
                                   SCF
               by Justin Turney, Rob Parrish, Andy Simmonett
                          and Daniel G. A. Smith
                              UKS Reference
                        1 Threads,    500 MiB Core
         ---------------------------------------------------------

  ==> Geometry <==

    Molecular point group: c2v
    Full point group: C_inf_v

    Geometry (in Angstrom), charge = 1, multiplicity = 3:

       Center              X                  Y                   Z               Mass       
    ------------   -----------------  -----------------  -----------------  -----------------
         N            0.000000000000     0.000000000000    -0.695934795898    14.003074004430
         C            0.000000000000     0.000000000000     0.812102204102    12.000000000000

  Running in c2v symmetry.

  Rotational constants: A = ************  B =      1.14708  C =      1.14708 [cm^-1]
  Rotational constants: A = ************  B =  34388.50271  C =  34388.50271 [MHz]
  Nuclear repulsion =   14.737995717704537

  Charge       = 1
  Multiplicity = 3
  Electrons    = 12
  Nalpha       = 7
  Nbeta        = 5

  ==> Algorithm <==

  SCF Algorithm Type is DF.
  DIIS enabled.
  MOM disabled.
  Fractional occupation disabled.
  Guess Type is READ.
  Energy threshold   = 1.00e-08
  Density threshold  = 1.00e-08
  Integral threshold = 1.00e-12

  ==> Primary Basis <==

  Basis Set: CC-PVTZ
    Blend: CC-PVTZ
    Number of shells: 20
    Number of basis functions: 60
    Number of Cartesian functions: 70
    Spherical Harmonics?: true
    Max angular momentum: 3

  ==> DFT Potential <==

   => LibXC <=

    Version 6.2.2
    S. Lehtola, C. Steigemann, M. J.T. Oliveira, and M. A.L. Marques.,  SoftwareX 7, 1–5 (2018) (10.1016/j.softx.2017.11.002)

   => Composite Functional: B3LYP <= 

    B3LYP Hyb-GGA Exchange-Correlation Functional

    P. J. Stephens, F. J. Devlin, C. F. Chabalowski, and M. J. Frisch.,  J. Phys. Chem. 98, 11623 (1994) (10.1021/j100096a001)

    Deriv               =              1
    GGA                 =           TRUE
    Meta                =          FALSE

    Exchange Hybrid     =           TRUE
    MP2 Hybrid          =          FALSE

   => Exchange Functionals <=

    0.0800   Slater exchange
    0.7200         Becke 88

   => Exact (HF) Exchange <=

    0.2000               HF 

   => Correlation Functionals <=

    0.1900   Vosko, Wilk & Nusair (VWN5_RPA)
    0.8100   Lee, Yang & Parr

   => LibXC Density Thresholds  <==

    XC_HYB_GGA_XC_B3LYP:  1.00E-15 

   => Molecular Quadrature <=

    Radial Scheme          =       TREUTLER
    Pruning Scheme         =           NONE
    Nuclear Scheme         =       TREUTLER

    Blocking Scheme        =         OCTREE
    BS radius alpha        =              1
    Pruning alpha          =              1
    Radial Points          =             75
    Spherical Points       =            302
    Total Points           =          43278
    Total Blocks           =            393
    Max Points             =            256
    Max Functions          =             60
    Weights Tolerance      =       1.00E-15

   => Loading Basis Set <=

    Name: (CC-PVTZ AUX)
    Role: JKFIT
    Keyword: DF_BASIS_SCF
    atoms 1 entry N          line   177 file /Users/joseantoniorodriguesromero/anaconda3/share/psi4/basis/cc-pvtz-jkfit.gbs 
    atoms 2 entry C          line   125 file /Users/joseantoniorodriguesromero/anaconda3/share/psi4/basis/cc-pvtz-jkfit.gbs 

   => Loading Basis Set <=

    Name: CC-PVTZ
    Role: ORBITAL
    Keyword: BASIS
    atoms 1 entry N          line   224 file /Users/joseantoniorodriguesromero/anaconda3/share/psi4/basis/cc-pvtz.gbs 
    atoms 2 entry C          line   186 file /Users/joseantoniorodriguesromero/anaconda3/share/psi4/basis/cc-pvtz.gbs 

  Reading orbitals from file /tmp/scan_CN_35.default.50356.180.npy, no projection.

  ==> Integral Setup <==

  DFHelper Memory: AOs need 0.005 GiB; user supplied 0.294 GiB. 
  Using in-core AOs.

  ==> MemDFJK: Density-Fitted J/K Matrices <==

    J tasked:                   Yes
    K tasked:                   Yes
    wK tasked:                   No
    OpenMP threads:               1
    Memory [MiB]:               301
    Algorithm:                 Core
    Schwarz Cutoff:           1E-12
    Mask sparsity (%):       0.0000
    Fitting Condition:        1E-10

   => Auxiliary Basis Set <=

  Basis Set: (CC-PVTZ AUX)
    Blend: CC-PVTZ-JKFIT
    Number of shells: 50
    Number of basis functions: 158
    Number of Cartesian functions: 192
    Spherical Harmonics?: true
    Max angular momentum: 4

  Cached 100.0% of DFT collocation blocks in 0.072 [GiB].

  Minimum eigenvalue in the overlap matrix is 4.5608109632E-03.
  Reciprocal condition number of the overlap matrix is 1.2044880239E-03.
    Using symmetric orthogonalization.

  ==> Pre-Iterations <==

  SCF Guess: Orbitals guess was supplied from a previous computation.

   -------------------------------------------------------
    Irrep   Nso     Nmo     Nalpha   Nbeta   Ndocc  Nsocc
   -------------------------------------------------------
     A1        26      26       5       4       4       1
     A2         6       6       0       0       0       0
     B1        14      14       1       0       0       1
     B2        14      14       1       1       1       0
   -------------------------------------------------------
    Total      60      60       7       5       5       2
   -------------------------------------------------------

  ==> Iterations <==

                           Total Energy        Delta E     RMS |[F,P]|

   @DF-UKS iter   0:   -92.15003665549717   -9.21500e+01   1.23605e-03 
   @DF-UKS iter   1:   -92.17361848307792   -2.35818e-02   3.69475e-04 DIIS/ADIIS
   @DF-UKS iter   2:   -92.17330162083798    3.16862e-04   8.71809e-04 DIIS/ADIIS/DAMP=1%
   @DF-UKS iter   3:   -92.17331586426025   -1.42434e-05   3.47490e-04 DIIS/ADIIS/DAMP=1%
   @DF-UKS iter   4:   -92.17375870444053   -4.42840e-04   4.56288e-05 DIIS/DAMP=1%
   @DF-UKS iter   5:   -92.17373195335232    2.67511e-05   3.49322e-05 DIIS/DAMP=1%
   @DF-UKS iter   6:   -92.17376256651913   -3.06132e-05   3.25166e-05 DIIS/DAMP=1%
   @DF-UKS iter   7:   -92.17377052468581   -7.95817e-06   1.49709e-05 DIIS/DAMP=1%
   @DF-UKS iter   8:   -92.17378059315763   -1.00685e-05   4.11676e-06 DIIS/DAMP=1%
   @DF-UKS iter   9:   -92.17378489704005   -4.30388e-06   6.07425e-07 DIIS/DAMP=1%
   @DF-UKS iter  10:   -92.17378433160674    5.65433e-07   2.06211e-07 DIIS/DAMP=1%
   @DF-UKS iter  11:   -92.17378431704961    1.45571e-08   7.30884e-08 DIIS/DAMP=1%
   @DF-UKS iter  12:   -92.17378428254379    3.45058e-08   2.81175e-08 DIIS/DAMP=1%
   @DF-UKS iter  13:   -92.17378427642203    6.12177e-09   2.04559e-09 DIIS/DAMP=1%
  Energy and wave function converged.


  ==> Post-Iterations <==

   Electrons on quadrature grid:
      Nalpha   =    6.9999999858 ; deviation = -1.422e-08
      Nbeta    =    5.0000000030 ; deviation = 2.970e-09
      Ntotal   =   11.9999999888 ; deviation = -1.125e-08 

   @Spin Contamination Metric:   6.070889536E-02
   @S^2 Expected:                2.000000000E+00
   @S^2 Observed:                2.060708895E+00
   @S   Expected:                1.000000000E+00
   @S   Observed:                1.000000000E+00

    Orbital Energies [Eh]
    ---------------------

    Alpha Occupied:                                                       

       1A1   -14.866537     2A1   -10.790667     3A1    -1.269864  
       4A1    -0.933592     5A1    -0.771904     1B1    -0.754748  
       1B2    -0.717839  

    Alpha Virtual:                                                        

       2B1    -0.500687     2B2    -0.469070     6A1    -0.231610  
       7A1    -0.008144     3B1     0.015384     3B2     0.027384  
       8A1     0.029940     9A1     0.152200     4B1     0.188961  
       4B2     0.204601     1A2     0.305197    10A1     0.305604  
       5B1     0.368465     5B2     0.390323    11A1     0.552285  
      12A1     0.717645     2A2     0.724776    13A1     0.725667  
       6B1     1.015620     6B2     1.036571    14A1     1.216429  
       7B1     1.570466     7B2     1.594811    15A1     1.781225  
       8B1     2.199833     8B2     2.226244    16A1     2.248756  
       3A2     2.249010     9B1     2.269296     9B2     2.269497  
      17A1     2.390804    10B1     2.503997     4A2     2.519771  
      18A1     2.520080    10B2     2.532697    19A1     2.700575  
      11B1     2.785877    11B2     2.811424    20A1     2.811486  
      12B1     3.463288    12B2     3.463382    21A1     3.619741  
       5A2     3.620509    22A1     3.804190    13B1     3.982041  
      13B2     4.012882    23A1     4.016784     6A2     4.017033  
      24A1     4.360336    14B1     4.477997    14B2     4.504470  
      25A1     5.096746    26A1     7.159984  

    Beta Occupied:                                                        

       1A1   -14.834882     2A1   -10.780301     3A1    -1.188179  
       4A1    -0.843181     1B2    -0.684067  

    Beta Virtual:                                                         

       5A1    -0.597057     1B1    -0.580610     2B2    -0.450110  
       2B1    -0.408225     6A1    -0.169636     7A1     0.014374  
       3B2     0.023365     3B1     0.031091     8A1     0.061063  
       9A1     0.182297     4B2     0.223978     4B1     0.233569  
       1A2     0.315856    10A1     0.318175     5B2     0.414465  
       5B1     0.422108    11A1     0.588809    12A1     0.756534  
       2A2     0.771126    13A1     0.773416     6B2     1.069146  
       6B1     1.075243    14A1     1.266475     7B2     1.586238  
       7B1     1.599769    15A1     1.830971     8B2     2.253765  
       8B1     2.268053     9B2     2.276585     3A2     2.276601  
       9B1     2.277560    16A1     2.279462    17A1     2.442974  
       4A2     2.531844    18A1     2.537120    10B2     2.566851  
      10B1     2.583575    19A1     2.755152    11B2     2.854448  
      11B1     2.864621    20A1     2.882818    12B2     3.530728  
      12B1     3.531708     5A2     3.684619    21A1     3.687674  
      22A1     3.860033    13B2     4.067500    13B1     4.084555  
       6A2     4.107890    23A1     4.113250    24A1     4.439118  
      14B2     4.563179    14B1     4.573253    25A1     5.155383  
      26A1     7.204045  

    Final Occupation by Irrep:
             A1    A2    B1    B2 
    DOCC [     4,    0,    0,    1 ]
    SOCC [     1,    0,    1,    0 ]
    NA   [     5,    0,    1,    1 ]
    NB   [     4,    0,    0,    1 ]

  @DF-UKS Final Energy:   -92.17378427642203

   => Energetics <=

    Nuclear Repulsion Energy =             14.7379957177045373
    One-Electron Energy =                -148.6199183164632700
    Two-Electron Energy =                  51.0932721876906797
    DFT Exchange-Correlation Energy =      -9.3851338653539855
    Empirical Dispersion Energy =           0.0000000000000000
    VV10 Nonlocal Energy =                  0.0000000000000000
    Total Energy =                        -92.1737842764220545

  UHF NO Occupations:
  HONO-2 :    1 B2 1.9735520
  HONO-1 :    5 A1 1.0000000
  HONO-0 :    1 B1 1.0000000
  LUNO+0 :    2 B2 0.0264480
  LUNO+1 :    6 A1 0.0038387
  LUNO+2 :    7 A1 0.0004238
  LUNO+3 :    8 A1 0.0000007


Computation Completed


Properties will be evaluated at   0.000000,   0.000000,   0.000000 [a0]

Properties computed using the SCF density matrix


 Multipole Moments:

 ------------------------------------------------------------------------------------
     Multipole            Electronic (a.u.)      Nuclear  (a.u.)        Total (a.u.)
 ------------------------------------------------------------------------------------

 L = 1.  Multiply by 2.5417464519 to convert [e a0] to [Debye]
 Dipole X            :          0.0000000            0.0000000            0.0000000
 Dipole Y            :          0.0000000            0.0000000            0.0000000
 Dipole Z            :          0.5935308            0.0020214            0.5955521
 Magnitude           :                                                    0.5955521

 ------------------------------------------------------------------------------------

*** tstop() called on Mac.lan at Sun Aug 10 18:34:33 2025
Module time:
	user time   =      25.90 seconds =       0.43 minutes
	system time =       2.58 seconds =       0.04 minutes
	total time  =          3 seconds =       0.05 minutes
Total time:
	user time   =      25.90 seconds =       0.43 minutes
	system time =       2.58 seconds =       0.04 minutes
	total time  =          3 seconds =       0.05 minutes

*** tstart() called on Mac.lan
*** at Sun Aug 10 18:34:33 2025

   => Libint2 <=

    Primary   basis highest AM E, G, H:  6, 6, 3
    Auxiliary basis highest AM E, G, H:  7, 7, 4
    Onebody   basis highest AM E, G, H:  -, -, -
    Solid Harmonics ordering:            Gaussian
   => Loading Basis Set <=

    Name: CC-PVTZ
    Role: ORBITAL
    Keyword: BASIS
    atoms 1 entry N          line   224 file /Users/joseantoniorodriguesromero/anaconda3/share/psi4/basis/cc-pvtz.gbs 
    atoms 2 entry C          line   186 file /Users/joseantoniorodriguesromero/anaconda3/share/psi4/basis/cc-pvtz.gbs 


         ---------------------------------------------------------
                                   SCF
               by Justin Turney, Rob Parrish, Andy Simmonett
                          and Daniel G. A. Smith
                              UKS Reference
                        1 Threads,    500 MiB Core
         ---------------------------------------------------------

  ==> Geometry <==

    Molecular point group: c2v
    Full point group: C_inf_v

    Geometry (in Angstrom), charge = 1, multiplicity = 3:

       Center              X                  Y                   Z               Mass       
    ------------   -----------------  -----------------  -----------------  -----------------
         N            0.000000000000     0.000000000000    -0.695934795898    14.003074004430
         C            0.000000000000     0.000000000000     0.812102204102    12.000000000000

  Running in c2v symmetry.

  Rotational constants: A = ************  B =      1.14708  C =      1.14708 [cm^-1]
  Rotational constants: A = ************  B =  34388.50271  C =  34388.50271 [MHz]
  Nuclear repulsion =   14.737995717704537

  Charge       = 1
  Multiplicity = 3
  Electrons    = 12
  Nalpha       = 7
  Nbeta        = 5

  ==> Algorithm <==

  SCF Algorithm Type is DF.
  DIIS enabled.
  MOM disabled.
  Fractional occupation disabled.
  Guess Type is READ.
  Energy threshold   = 1.00e-08
  Density threshold  = 1.00e-08
  Integral threshold = 1.00e-12

  ==> Primary Basis <==

  Basis Set: CC-PVTZ
    Blend: CC-PVTZ
    Number of shells: 20
    Number of basis functions: 60
    Number of Cartesian functions: 70
    Spherical Harmonics?: true
    Max angular momentum: 3

  ==> DFT Potential <==

   => LibXC <=

    Version 6.2.2
    S. Lehtola, C. Steigemann, M. J.T. Oliveira, and M. A.L. Marques.,  SoftwareX 7, 1–5 (2018) (10.1016/j.softx.2017.11.002)

   => Composite Functional: B3LYP <= 

    B3LYP Hyb-GGA Exchange-Correlation Functional

    P. J. Stephens, F. J. Devlin, C. F. Chabalowski, and M. J. Frisch.,  J. Phys. Chem. 98, 11623 (1994) (10.1021/j100096a001)

    Deriv               =              1
    GGA                 =           TRUE
    Meta                =          FALSE

    Exchange Hybrid     =           TRUE
    MP2 Hybrid          =          FALSE

   => Exchange Functionals <=

    0.0800   Slater exchange
    0.7200         Becke 88

   => Exact (HF) Exchange <=

    0.2000               HF 

   => Correlation Functionals <=

    0.1900   Vosko, Wilk & Nusair (VWN5_RPA)
    0.8100   Lee, Yang & Parr

   => LibXC Density Thresholds  <==

    XC_HYB_GGA_XC_B3LYP:  1.00E-15 

   => Molecular Quadrature <=

    Radial Scheme          =       TREUTLER
    Pruning Scheme         =           NONE
    Nuclear Scheme         =       TREUTLER

    Blocking Scheme        =         OCTREE
    BS radius alpha        =              1
    Pruning alpha          =              1
    Radial Points          =             75
    Spherical Points       =            302
    Total Points           =          43278
    Total Blocks           =            393
    Max Points             =            256
    Max Functions          =             60
    Weights Tolerance      =       1.00E-15

   => Loading Basis Set <=

    Name: (CC-PVTZ AUX)
    Role: JKFIT
    Keyword: DF_BASIS_SCF
    atoms 1 entry N          line   177 file /Users/joseantoniorodriguesromero/anaconda3/share/psi4/basis/cc-pvtz-jkfit.gbs 
    atoms 2 entry C          line   125 file /Users/joseantoniorodriguesromero/anaconda3/share/psi4/basis/cc-pvtz-jkfit.gbs 

   => Loading Basis Set <=

    Name: CC-PVTZ
    Role: ORBITAL
    Keyword: BASIS
    atoms 1 entry N          line   224 file /Users/joseantoniorodriguesromero/anaconda3/share/psi4/basis/cc-pvtz.gbs 
    atoms 2 entry C          line   186 file /Users/joseantoniorodriguesromero/anaconda3/share/psi4/basis/cc-pvtz.gbs 

  Reading orbitals from file /tmp/scan_CN_35.default.50356.180.npy, no projection.

  ==> Integral Setup <==

  DFHelper Memory: AOs need 0.005 GiB; user supplied 0.294 GiB. 
  Using in-core AOs.

  ==> MemDFJK: Density-Fitted J/K Matrices <==

    J tasked:                   Yes
    K tasked:                   Yes
    wK tasked:                   No
    OpenMP threads:               1
    Memory [MiB]:               301
    Algorithm:                 Core
    Schwarz Cutoff:           1E-12
    Mask sparsity (%):       0.0000
    Fitting Condition:        1E-10

   => Auxiliary Basis Set <=

  Basis Set: (CC-PVTZ AUX)
    Blend: CC-PVTZ-JKFIT
    Number of shells: 50
    Number of basis functions: 158
    Number of Cartesian functions: 192
    Spherical Harmonics?: true
    Max angular momentum: 4

  Cached 100.0% of DFT collocation blocks in 0.072 [GiB].

  Minimum eigenvalue in the overlap matrix is 4.5608109632E-03.
  Reciprocal condition number of the overlap matrix is 1.2044880239E-03.
    Using symmetric orthogonalization.

  ==> Pre-Iterations <==

  SCF Guess: Orbitals guess was supplied from a previous computation.

   -------------------------------------------------------
    Irrep   Nso     Nmo     Nalpha   Nbeta   Ndocc  Nsocc
   -------------------------------------------------------
     A1        26      26       5       4       4       1
     A2         6       6       0       0       0       0
     B1        14      14       1       0       0       1
     B2        14      14       1       1       1       0
   -------------------------------------------------------
    Total      60      60       7       5       5       2
   -------------------------------------------------------

  ==> Iterations <==

                           Total Energy        Delta E     RMS |[F,P]|

   @DF-UKS iter   0:   -92.17378428533391   -9.21738e+01   8.60539e-10 
   @DF-UKS iter   1:   -92.17378428533391    0.00000e+00   7.65441e-10 DIIS
  Energy and wave function converged.


  ==> Post-Iterations <==

   Electrons on quadrature grid:
      Nalpha   =    6.9999999858 ; deviation = -1.422e-08
      Nbeta    =    5.0000000030 ; deviation = 2.970e-09
      Ntotal   =   11.9999999888 ; deviation = -1.125e-08 

   @Spin Contamination Metric:   6.070878717E-02
   @S^2 Expected:                2.000000000E+00
   @S^2 Observed:                2.060708787E+00
   @S   Expected:                1.000000000E+00
   @S   Observed:                1.000000000E+00

    Orbital Energies [Eh]
    ---------------------

    Alpha Occupied:                                                       

       1A1   -14.866537     2A1   -10.790667     3A1    -1.269864  
       4A1    -0.933592     5A1    -0.771904     1B1    -0.754748  
       1B2    -0.717839  

    Alpha Virtual:                                                        

       2B1    -0.500687     2B2    -0.469070     6A1    -0.231610  
       7A1    -0.008144     3B1     0.015384     3B2     0.027384  
       8A1     0.029940     9A1     0.152200     4B1     0.188961  
       4B2     0.204601     1A2     0.305197    10A1     0.305604  
       5B1     0.368465     5B2     0.390323    11A1     0.552285  
      12A1     0.717644     2A2     0.724776    13A1     0.725667  
       6B1     1.015620     6B2     1.036571    14A1     1.216429  
       7B1     1.570466     7B2     1.594811    15A1     1.781225  
       8B1     2.199833     8B2     2.226244    16A1     2.248756  
       3A2     2.249010     9B1     2.269296     9B2     2.269497  
      17A1     2.390804    10B1     2.503997     4A2     2.519771  
      18A1     2.520080    10B2     2.532697    19A1     2.700575  
      11B1     2.785877    11B2     2.811424    20A1     2.811486  
      12B1     3.463288    12B2     3.463382    21A1     3.619741  
       5A2     3.620509    22A1     3.804190    13B1     3.982041  
      13B2     4.012882    23A1     4.016784     6A2     4.017033  
      24A1     4.360336    14B1     4.477997    14B2     4.504470  
      25A1     5.096746    26A1     7.159984  

    Beta Occupied:                                                        

       1A1   -14.834882     2A1   -10.780301     3A1    -1.188179  
       4A1    -0.843181     1B2    -0.684067  

    Beta Virtual:                                                         

       5A1    -0.597057     1B1    -0.580610     2B2    -0.450110  
       2B1    -0.408225     6A1    -0.169636     7A1     0.014374  
       3B2     0.023365     3B1     0.031091     8A1     0.061063  
       9A1     0.182297     4B2     0.223978     4B1     0.233569  
       1A2     0.315856    10A1     0.318175     5B2     0.414465  
       5B1     0.422108    11A1     0.588809    12A1     0.756534  
       2A2     0.771126    13A1     0.773416     6B2     1.069146  
       6B1     1.075243    14A1     1.266475     7B2     1.586238  
       7B1     1.599769    15A1     1.830971     8B2     2.253765  
       8B1     2.268053     9B2     2.276585     3A2     2.276601  
       9B1     2.277560    16A1     2.279462    17A1     2.442974  
       4A2     2.531844    18A1     2.537120    10B2     2.566851  
      10B1     2.583575    19A1     2.755152    11B2     2.854448  
      11B1     2.864621    20A1     2.882818    12B2     3.530728  
      12B1     3.531708     5A2     3.684619    21A1     3.687674  
      22A1     3.860033    13B2     4.067500    13B1     4.084555  
       6A2     4.107890    23A1     4.113250    24A1     4.439118  
      14B2     4.563179    14B1     4.573253    25A1     5.155383  
      26A1     7.204045  

    Final Occupation by Irrep:
             A1    A2    B1    B2 
    DOCC [     4,    0,    0,    1 ]
    SOCC [     1,    0,    1,    0 ]
    NA   [     5,    0,    1,    1 ]
    NB   [     4,    0,    0,    1 ]

  @DF-UKS Final Energy:   -92.17378428533391

   => Energetics <=

    Nuclear Repulsion Energy =             14.7379957177045373
    One-Electron Energy =                -148.6199182996868728
    Two-Electron Energy =                  51.0932720988167333
    DFT Exchange-Correlation Energy =      -9.3851338021682906
    Empirical Dispersion Energy =           0.0000000000000000
    VV10 Nonlocal Energy =                  0.0000000000000000
    Total Energy =                        -92.1737842853339089

  UHF NO Occupations:
  HONO-2 :    1 B2 1.9735521
  HONO-1 :    5 A1 1.0000000
  HONO-0 :    1 B1 1.0000000
  LUNO+0 :    2 B2 0.0264479
  LUNO+1 :    6 A1 0.0038387
  LUNO+2 :    7 A1 0.0004238
  LUNO+3 :    8 A1 0.0000007


Computation Completed


Properties will be evaluated at   0.000000,   0.000000,   0.000000 [a0]

Properties computed using the B3LYP density matrix


 Multipole Moments:

 ------------------------------------------------------------------------------------
     Multipole            Electronic (a.u.)      Nuclear  (a.u.)        Total (a.u.)
 ------------------------------------------------------------------------------------

 L = 1.  Multiply by 2.5417464519 to convert [e a0] to [Debye]
 Dipole X            :          0.0000000            0.0000000            0.0000000
 Dipole Y            :          0.0000000            0.0000000            0.0000000
 Dipole Z            :          0.5935308            0.0020214            0.5955521
 Magnitude           :                                                    0.5955521

 L = 2.  Multiply by 1.3450342976 to convert [e a0^2] to [Debye ang]
 Quadrupole XX       :         -6.0850860            0.0000000           -6.0850860
 Quadrupole XY       :          0.0000000            0.0000000            0.0000000
 Quadrupole XZ       :          0.0000000            0.0000000            0.0000000
 Quadrupole YY       :         -7.2254199            0.0000000           -7.2254199
 Quadrupole YZ       :          0.0000000            0.0000000            0.0000000
 Quadrupole ZZ       :        -29.9584353           26.2378154           -3.7206199
 Traceless XX        :          8.3378944           -8.7459385           -0.4080441
 Traceless YY        :          7.1975605           -8.7459385           -1.5483780
 Traceless ZZ        :        -15.5354549           17.4918769            1.9564221

 ------------------------------------------------------------------------------------
  ==> Computing MBIS Charges <==

  Electron Count from Grid (Expected Number): 12.00000 (12.00000)
  Difference: -0.00000

  MBIS Charges: (a.u.)
   Center  Symbol  Z      Pop.       Charge
      1       N    7    6.718699    0.281301
      2       C    6    5.281301    0.718699

  MBIS Dipoles: [e a0]
   Center  Symbol  Z        X           Y           Z
      1       N    7    0.000000   -0.000000   -0.265110
      2       C    6   -0.000000    0.000000    0.127657

  MBIS Quadrupoles: [e a0^2]
   Center  Symbol  Z      XX        XY        XZ        YY        YZ        ZZ
      1       N    7   -3.2857   -0.0000    0.0000   -3.8327    0.0000   -3.6449
      2       C    6   -2.7994    0.0000   -0.0000   -3.3927    0.0000   -3.3440

  MBIS Octupoles: [e a0^3]
   Center  Symbol  Z      XXX       XXY       XXZ       XYY       XYZ       XZZ       YYY       YYZ       YZZ       ZZZ
      1       N    7   -0.0000   -0.0000   -0.2043    0.0000    0.0000   -0.0000    0.0000   -0.3800   -0.0000   -0.8982
      2       C    6   -0.0000    0.0000    0.1537   -0.0000   -0.0000   -0.0000    0.0000    0.3319    0.0000    0.5797

  MBIS Radial Moments:
   Center  Symbol  Z      [a0^2]      [a0^3]      [a0^4]      
      1       N    7   10.763294   21.553838   51.444872
      2       C    6    9.536127   20.932638   54.672064

  MBIS Valence Widths: [a0]
   Center  Symbol  Z     Width
      1       N    7    0.424328
      2       C    6    0.473848

*** tstop() called on Mac.lan at Sun Aug 10 18:34:34 2025
Module time:
	user time   =       4.78 seconds =       0.08 minutes
	system time =       2.74 seconds =       0.05 minutes
	total time  =          1 seconds =       0.02 minutes
Total time:
	user time   =      30.71 seconds =       0.51 minutes
	system time =       5.48 seconds =       0.09 minutes
	total time  =          4 seconds =       0.07 minutes

    Psi4 stopped on: Sunday, 10 August 2025 06:34PM
    Psi4 wall time for execution: 0:00:03.71

*** Psi4 exiting successfully. Buy a developer a beer!
