
    -----------------------------------------------------------------------
          Psi4: An Open-Source Ab Initio Electronic Structure Package
                               Psi4 1.9.1 release

                         Git: Rev {} zzzzzzz 


    D. G. A. Smith, L. A. Burns, A. C. Simmonett, R. M. Parrish,
    M. C. Schieber, R. Galvelis, P. Kraus, H. Kruse, R. Di Remigio,
    A. Alenaizan, A. M. James, S. Lehtola, J. P. Misiewicz, M. Scheurer,
    R. A. Shaw, J. B. Schriber, Y. Xie, Z. L. Glick, D. A. Sirianni,
    J. S. O'Brien, J. M. Waldrop, A. Kumar, E. G. Hohenstein,
    B. P. Pritchard, B. R. Brooks, H. F. Schaefer III, A. Yu. Sokolov,
    K. Patkowski, A. E. DePrince III, U. Bozkaya, R. A. King,
    F. A. Evangelista, J. M. Turney, T. D. Crawford, C. D. Sherrill,
    J. Chem. Phys. 152(18) 184108 (2020). https://doi.org/10.1063/5.0006002

                            Additional Code Authors
    E. T. Seidl, C. L. Janssen, E. F. Valeev, M. L. Leininger,
    J. F. Gonthier, R. M. Richard, H. R. McAlexander, M. Saitow, X. Wang,
    P. Verma, M. H. Lechner, A. Jiang, S. Behnle, A. G. Heide,
    M. F. Herbst, and D. L. Poole

             Previous Authors, Complete List of Code Contributors,
                       and Citations for Specific Modules
    https://github.com/psi4/psi4/blob/master/codemeta.json
    https://github.com/psi4/psi4/graphs/contributors
    http://psicode.org/psi4manual/master/introduction.html#citing-psifour

    -----------------------------------------------------------------------


    Psi4 started on: Sunday, 10 August 2025 06:28PM

    Process ID: 50164
    Host:       Mac.lan
    PSIDATADIR: /Users/joseantoniorodriguesromero/anaconda3/share/psi4
    Memory:     500.0 MiB
    Threads:    1
    
  ==> Input File <==

--------------------------------------------------------------------------
molecule { 
1 3
O           0.000000           0.000000           0.000000
H           0.000000           0.000000           0.966279
}

set { 
basis              cc-pvtz
reference          uks
maxiter            500
DAMPING_PERCENTAGE 1
E_CONVERGENCE      1.0E-8
D_CONVERGENCE      1.0E-8
DIIS_MAX_VECS      400
MBIS_MAXITER       8000
guess              read
}

E, wfn = energy('b3lyp', restart_file='last_wfn', return_wfn=True)
properties('b3lyp','MBIS_CHARGES', wfn=wfn)
wfn.to_file('last_wfn')
--------------------------------------------------------------------------

Scratch directory: /tmp/
 Found user provided orbital data. Setting orbital guess to READ 
 Copying restart file <last_wfn.npy> to </tmp/scan_HO_19.default.50164.180.npy> for internal processing
   => Libint2 <=

    Primary   basis highest AM E, G, H:  6, 6, 3
    Auxiliary basis highest AM E, G, H:  7, 7, 4
    Onebody   basis highest AM E, G, H:  -, -, -
    Solid Harmonics ordering:            Gaussian

*** tstart() called on Mac.lan
*** at Sun Aug 10 18:28:28 2025

   => Loading Basis Set <=

    Name: CC-PVTZ
    Role: ORBITAL
    Keyword: BASIS
    atoms 1 entry O          line   262 file /Users/joseantoniorodriguesromero/anaconda3/share/psi4/basis/cc-pvtz.gbs 
    atoms 2 entry H          line    23 file /Users/joseantoniorodriguesromero/anaconda3/share/psi4/basis/cc-pvtz.gbs 


         ---------------------------------------------------------
                                   SCF
               by Justin Turney, Rob Parrish, Andy Simmonett
                          and Daniel G. A. Smith
                              UKS Reference
                        1 Threads,    500 MiB Core
         ---------------------------------------------------------

  ==> Geometry <==

    Molecular point group: c2v
    Full point group: C_inf_v

    Geometry (in Angstrom), charge = 1, multiplicity = 3:

       Center              X                  Y                   Z               Mass       
    ------------   -----------------  -----------------  -----------------  -----------------
         O            0.000000000000     0.000000000000    -0.057275485261    15.994914619570
         H            0.000000000000     0.000000000000     0.909003514739     1.007825032230

  Running in c2v symmetry.

  Rotational constants: A = ************  B =     19.04335  C =     19.04335 [cm^-1]
  Rotational constants: A = ************  B = 570905.14197  C = 570905.14197 [MHz]
  Nuclear repulsion =    4.381154599613570

  Charge       = 1
  Multiplicity = 3
  Electrons    = 8
  Nalpha       = 5
  Nbeta        = 3

  ==> Algorithm <==

  SCF Algorithm Type is DF.
  DIIS enabled.
  MOM disabled.
  Fractional occupation disabled.
  Guess Type is READ.
  Energy threshold   = 1.00e-08
  Density threshold  = 1.00e-08
  Integral threshold = 1.00e-12

  ==> Primary Basis <==

  Basis Set: CC-PVTZ
    Blend: CC-PVTZ
    Number of shells: 16
    Number of basis functions: 44
    Number of Cartesian functions: 50
    Spherical Harmonics?: true
    Max angular momentum: 3

  ==> DFT Potential <==

   => LibXC <=

    Version 6.2.2
    S. Lehtola, C. Steigemann, M. J.T. Oliveira, and M. A.L. Marques.,  SoftwareX 7, 1–5 (2018) (10.1016/j.softx.2017.11.002)

   => Composite Functional: B3LYP <= 

    B3LYP Hyb-GGA Exchange-Correlation Functional

    P. J. Stephens, F. J. Devlin, C. F. Chabalowski, and M. J. Frisch.,  J. Phys. Chem. 98, 11623 (1994) (10.1021/j100096a001)

    Deriv               =              1
    GGA                 =           TRUE
    Meta                =          FALSE

    Exchange Hybrid     =           TRUE
    MP2 Hybrid          =          FALSE

   => Exchange Functionals <=

    0.0800   Slater exchange
    0.7200         Becke 88

   => Exact (HF) Exchange <=

    0.2000               HF 

   => Correlation Functionals <=

    0.1900   Vosko, Wilk & Nusair (VWN5_RPA)
    0.8100   Lee, Yang & Parr

   => LibXC Density Thresholds  <==

    XC_HYB_GGA_XC_B3LYP:  1.00E-15 

   => Molecular Quadrature <=

    Radial Scheme          =       TREUTLER
    Pruning Scheme         =           NONE
    Nuclear Scheme         =       TREUTLER

    Blocking Scheme        =         OCTREE
    BS radius alpha        =              1
    Pruning alpha          =              1
    Radial Points          =             75
    Spherical Points       =            302
    Total Points           =          44134
    Total Blocks           =            394
    Max Points             =            256
    Max Functions          =             44
    Weights Tolerance      =       1.00E-15

   => Loading Basis Set <=

    Name: (CC-PVTZ AUX)
    Role: JKFIT
    Keyword: DF_BASIS_SCF
    atoms 1 entry O          line   229 file /Users/joseantoniorodriguesromero/anaconda3/share/psi4/basis/cc-pvtz-jkfit.gbs 
    atoms 2 entry H          line    51 file /Users/joseantoniorodriguesromero/anaconda3/share/psi4/basis/cc-pvtz-jkfit.gbs 

   => Loading Basis Set <=

    Name: CC-PVTZ
    Role: ORBITAL
    Keyword: BASIS
    atoms 1 entry O          line   262 file /Users/joseantoniorodriguesromero/anaconda3/share/psi4/basis/cc-pvtz.gbs 
    atoms 2 entry H          line    23 file /Users/joseantoniorodriguesromero/anaconda3/share/psi4/basis/cc-pvtz.gbs 

  Reading orbitals from file /tmp/scan_HO_19.default.50164.180.npy, no projection.

  ==> Integral Setup <==

  DFHelper Memory: AOs need 0.002 GiB; user supplied 0.312 GiB. 
  Using in-core AOs.

  ==> MemDFJK: Density-Fitted J/K Matrices <==

    J tasked:                   Yes
    K tasked:                   Yes
    wK tasked:                   No
    OpenMP threads:               1
    Memory [MiB]:               319
    Algorithm:                 Core
    Schwarz Cutoff:           1E-12
    Mask sparsity (%):       0.0000
    Fitting Condition:        1E-10

   => Auxiliary Basis Set <=

  Basis Set: (CC-PVTZ AUX)
    Blend: CC-PVTZ-JKFIT
    Number of shells: 35
    Number of basis functions: 109
    Number of Cartesian functions: 131
    Spherical Harmonics?: true
    Max angular momentum: 4

  Cached 100.0% of DFT collocation blocks in 0.055 [GiB].

  Minimum eigenvalue in the overlap matrix is 3.9905903788E-03.
  Reciprocal condition number of the overlap matrix is 1.0074348164E-03.
    Using symmetric orthogonalization.

  ==> Pre-Iterations <==

  SCF Guess: Orbitals guess was supplied from a previous computation.

   -------------------------------------------------------
    Irrep   Nso     Nmo     Nalpha   Nbeta   Ndocc  Nsocc
   -------------------------------------------------------
     A1        20      20       3       3       3       0
     A2         4       4       0       0       0       0
     B1        10      10       1       0       0       1
     B2        10      10       1       0       0       1
   -------------------------------------------------------
    Total      44      44       5       3       3       2
   -------------------------------------------------------

  ==> Iterations <==

                           Total Energy        Delta E     RMS |[F,P]|

   @DF-UKS iter   0:   -75.29096234766837   -7.52910e+01   1.65911e-03 
   @DF-UKS iter   1:   -75.27751988130063    1.34425e-02   2.51618e-04 DIIS/ADIIS
   @DF-UKS iter   2:   -75.27752984244415   -9.96114e-06   1.21274e-04 DIIS/ADIIS/DAMP=1%
   @DF-UKS iter   3:   -75.27759208681496   -6.22444e-05   2.61032e-05 DIIS/DAMP=1%
   @DF-UKS iter   4:   -75.27752089859173    7.11882e-05   3.15558e-06 DIIS/DAMP=1%
   @DF-UKS iter   5:   -75.27753388272441   -1.29841e-05   4.95177e-07 DIIS/DAMP=1%
   @DF-UKS iter   6:   -75.27753233053200    1.55219e-06   7.84572e-08 DIIS/DAMP=1%
   @DF-UKS iter   7:   -75.27753250937789   -1.78846e-07   4.02710e-09 DIIS/DAMP=1%
   @DF-UKS iter   8:   -75.27753248846483    2.09131e-08   3.46467e-10 DIIS/DAMP=1%
   @DF-UKS iter   9:   -75.27753248821423    2.50594e-10   3.49734e-11 DIIS/DAMP=1%
  Energy and wave function converged.


  ==> Post-Iterations <==

   Electrons on quadrature grid:
      Nalpha   =    4.9999999768 ; deviation = -2.319e-08
      Nbeta    =    3.0000000063 ; deviation = 6.337e-09
      Ntotal   =    7.9999999831 ; deviation = -1.685e-08 

   @Spin Contamination Metric:   4.370154478E-03
   @S^2 Expected:                2.000000000E+00
   @S^2 Observed:                2.004370154E+00
   @S   Expected:                1.000000000E+00
   @S   Observed:                1.000000000E+00

    Orbital Energies [Eh]
    ---------------------

    Alpha Occupied:                                                       

       1A1   -19.823879     2A1    -1.588088     3A1    -0.998686  
       1B1    -0.957338     1B2    -0.957338  

    Alpha Virtual:                                                        

       4A1    -0.298260     5A1     0.010662     2B1     0.134921  
       2B2     0.134921     6A1     0.162424     3B2     0.323086  
       3B1     0.323086     7A1     0.465019     8A1     0.867603  
       9A1     0.916298     1A2     0.916298     4B1     1.288854  
       4B2     1.288854    10A1     1.452005    11A1     1.988438  
      12A1     2.754885     2A2     2.754885     5B1     2.814950  
       5B2     2.814950     6B2     3.149812     6B1     3.149812  
      13A1     3.237303     7B2     3.595161     7B1     3.595161  
      14A1     3.831612    15A1     4.168006     8B1     4.493862  
       8B2     4.493862    16A1     4.802456     3A2     4.802456  
       4A2     5.523254    17A1     5.523254     9B1     5.721975  
       9B2     5.721975    18A1     5.841755    10B1     6.075596  
      10B2     6.075596    19A1     6.443593    20A1     9.670449  

    Beta Occupied:                                                        

       1A1   -19.767776     2A1    -1.437482     3A1    -0.942801  

    Beta Virtual:                                                         

       1B1    -0.654082     1B2    -0.654082     4A1    -0.281808  
       5A1     0.020152     6A1     0.175441     2B1     0.203527  
       2B2     0.203527     3B1     0.337613     3B2     0.337613  
       7A1     0.515958     8A1     0.887618     9A1     1.028115  
       1A2     1.028115     4B1     1.342415     4B2     1.342415  
      10A1     1.480249    11A1     2.000300    12A1     2.766677  
       2A2     2.766677     5B1     2.895939     5B2     2.895939  
       6B1     3.196202     6B2     3.196202    13A1     3.247392  
       7B2     3.636762     7B1     3.636762    14A1     3.877192  
      15A1     4.227194     8B1     4.646131     8B2     4.646131  
      16A1     4.899320     3A2     4.899320     4A2     5.735414  
      17A1     5.735415     9B1     5.832656     9B2     5.832656  
      18A1     5.892891    10B1     6.135138    10B2     6.135138  
      19A1     6.502170    20A1     9.743009  

    Final Occupation by Irrep:
             A1    A2    B1    B2 
    DOCC [     3,    0,    0,    0 ]
    SOCC [     0,    0,    1,    1 ]
    NA   [     3,    0,    1,    1 ]
    NB   [     3,    0,    0,    0 ]

  @DF-UKS Final Energy:   -75.27753248821423

   => Energetics <=

    Nuclear Repulsion Energy =              4.3811545996135699
    One-Electron Energy =                -107.8945371305851069
    Two-Electron Energy =                  35.1225616457039393
    DFT Exchange-Correlation Energy =      -6.8867116029466260
    Empirical Dispersion Energy =           0.0000000000000000
    VV10 Nonlocal Energy =                  0.0000000000000000
    Total Energy =                        -75.2775324882142343

  UHF NO Occupations:
  HONO-2 :    3 A1 1.9983755
  HONO-1 :    1 B2 1.0000000
  HONO-0 :    1 B1 1.0000000
  LUNO+0 :    4 A1 0.0016245
  LUNO+1 :    5 A1 0.0005606
  LUNO+2 :    6 A1 0.0000015
  LUNO+3 :    7 A1 0.0000000


Computation Completed


Properties will be evaluated at   0.000000,   0.000000,   0.000000 [a0]

Properties computed using the SCF density matrix


 Multipole Moments:

 ------------------------------------------------------------------------------------
     Multipole            Electronic (a.u.)      Nuclear  (a.u.)        Total (a.u.)
 ------------------------------------------------------------------------------------

 L = 1.  Multiply by 2.5417464519 to convert [e a0] to [Debye]
 Dipole X            :          0.0000000            0.0000000            0.0000000
 Dipole Y            :          0.0000000            0.0000000            0.0000000
 Dipole Z            :         -0.0153308            0.8518878            0.8365571
 Magnitude           :                                                    0.8365571

 ------------------------------------------------------------------------------------

*** tstop() called on Mac.lan at Sun Aug 10 18:28:30 2025
Module time:
	user time   =      18.23 seconds =       0.30 minutes
	system time =       2.61 seconds =       0.04 minutes
	total time  =          2 seconds =       0.03 minutes
Total time:
	user time   =      18.23 seconds =       0.30 minutes
	system time =       2.61 seconds =       0.04 minutes
	total time  =          2 seconds =       0.03 minutes

*** tstart() called on Mac.lan
*** at Sun Aug 10 18:28:30 2025

   => Libint2 <=

    Primary   basis highest AM E, G, H:  6, 6, 3
    Auxiliary basis highest AM E, G, H:  7, 7, 4
    Onebody   basis highest AM E, G, H:  -, -, -
    Solid Harmonics ordering:            Gaussian
   => Loading Basis Set <=

    Name: CC-PVTZ
    Role: ORBITAL
    Keyword: BASIS
    atoms 1 entry O          line   262 file /Users/joseantoniorodriguesromero/anaconda3/share/psi4/basis/cc-pvtz.gbs 
    atoms 2 entry H          line    23 file /Users/joseantoniorodriguesromero/anaconda3/share/psi4/basis/cc-pvtz.gbs 


         ---------------------------------------------------------
                                   SCF
               by Justin Turney, Rob Parrish, Andy Simmonett
                          and Daniel G. A. Smith
                              UKS Reference
                        1 Threads,    500 MiB Core
         ---------------------------------------------------------

  ==> Geometry <==

    Molecular point group: c2v
    Full point group: C_inf_v

    Geometry (in Angstrom), charge = 1, multiplicity = 3:

       Center              X                  Y                   Z               Mass       
    ------------   -----------------  -----------------  -----------------  -----------------
         O            0.000000000000     0.000000000000    -0.057275485261    15.994914619570
         H            0.000000000000     0.000000000000     0.909003514739     1.007825032230

  Running in c2v symmetry.

  Rotational constants: A = ************  B =     19.04335  C =     19.04335 [cm^-1]
  Rotational constants: A = ************  B = 570905.14197  C = 570905.14197 [MHz]
  Nuclear repulsion =    4.381154599613570

  Charge       = 1
  Multiplicity = 3
  Electrons    = 8
  Nalpha       = 5
  Nbeta        = 3

  ==> Algorithm <==

  SCF Algorithm Type is DF.
  DIIS enabled.
  MOM disabled.
  Fractional occupation disabled.
  Guess Type is READ.
  Energy threshold   = 1.00e-08
  Density threshold  = 1.00e-08
  Integral threshold = 1.00e-12

  ==> Primary Basis <==

  Basis Set: CC-PVTZ
    Blend: CC-PVTZ
    Number of shells: 16
    Number of basis functions: 44
    Number of Cartesian functions: 50
    Spherical Harmonics?: true
    Max angular momentum: 3

  ==> DFT Potential <==

   => LibXC <=

    Version 6.2.2
    S. Lehtola, C. Steigemann, M. J.T. Oliveira, and M. A.L. Marques.,  SoftwareX 7, 1–5 (2018) (10.1016/j.softx.2017.11.002)

   => Composite Functional: B3LYP <= 

    B3LYP Hyb-GGA Exchange-Correlation Functional

    P. J. Stephens, F. J. Devlin, C. F. Chabalowski, and M. J. Frisch.,  J. Phys. Chem. 98, 11623 (1994) (10.1021/j100096a001)

    Deriv               =              1
    GGA                 =           TRUE
    Meta                =          FALSE

    Exchange Hybrid     =           TRUE
    MP2 Hybrid          =          FALSE

   => Exchange Functionals <=

    0.0800   Slater exchange
    0.7200         Becke 88

   => Exact (HF) Exchange <=

    0.2000               HF 

   => Correlation Functionals <=

    0.1900   Vosko, Wilk & Nusair (VWN5_RPA)
    0.8100   Lee, Yang & Parr

   => LibXC Density Thresholds  <==

    XC_HYB_GGA_XC_B3LYP:  1.00E-15 

   => Molecular Quadrature <=

    Radial Scheme          =       TREUTLER
    Pruning Scheme         =           NONE
    Nuclear Scheme         =       TREUTLER

    Blocking Scheme        =         OCTREE
    BS radius alpha        =              1
    Pruning alpha          =              1
    Radial Points          =             75
    Spherical Points       =            302
    Total Points           =          44134
    Total Blocks           =            394
    Max Points             =            256
    Max Functions          =             44
    Weights Tolerance      =       1.00E-15

   => Loading Basis Set <=

    Name: (CC-PVTZ AUX)
    Role: JKFIT
    Keyword: DF_BASIS_SCF
    atoms 1 entry O          line   229 file /Users/joseantoniorodriguesromero/anaconda3/share/psi4/basis/cc-pvtz-jkfit.gbs 
    atoms 2 entry H          line    51 file /Users/joseantoniorodriguesromero/anaconda3/share/psi4/basis/cc-pvtz-jkfit.gbs 

   => Loading Basis Set <=

    Name: CC-PVTZ
    Role: ORBITAL
    Keyword: BASIS
    atoms 1 entry O          line   262 file /Users/joseantoniorodriguesromero/anaconda3/share/psi4/basis/cc-pvtz.gbs 
    atoms 2 entry H          line    23 file /Users/joseantoniorodriguesromero/anaconda3/share/psi4/basis/cc-pvtz.gbs 

  Reading orbitals from file /tmp/scan_HO_19.default.50164.180.npy, no projection.

  ==> Integral Setup <==

  DFHelper Memory: AOs need 0.002 GiB; user supplied 0.312 GiB. 
  Using in-core AOs.

  ==> MemDFJK: Density-Fitted J/K Matrices <==

    J tasked:                   Yes
    K tasked:                   Yes
    wK tasked:                   No
    OpenMP threads:               1
    Memory [MiB]:               319
    Algorithm:                 Core
    Schwarz Cutoff:           1E-12
    Mask sparsity (%):       0.0000
    Fitting Condition:        1E-10

   => Auxiliary Basis Set <=

  Basis Set: (CC-PVTZ AUX)
    Blend: CC-PVTZ-JKFIT
    Number of shells: 35
    Number of basis functions: 109
    Number of Cartesian functions: 131
    Spherical Harmonics?: true
    Max angular momentum: 4

  Cached 100.0% of DFT collocation blocks in 0.055 [GiB].

  Minimum eigenvalue in the overlap matrix is 3.9905903788E-03.
  Reciprocal condition number of the overlap matrix is 1.0074348164E-03.
    Using symmetric orthogonalization.

  ==> Pre-Iterations <==

  SCF Guess: Orbitals guess was supplied from a previous computation.

   -------------------------------------------------------
    Irrep   Nso     Nmo     Nalpha   Nbeta   Ndocc  Nsocc
   -------------------------------------------------------
     A1        20      20       3       3       3       0
     A2         4       4       0       0       0       0
     B1        10      10       1       0       0       1
     B2        10      10       1       0       0       1
   -------------------------------------------------------
    Total      44      44       5       3       3       2
   -------------------------------------------------------

  ==> Iterations <==

                           Total Energy        Delta E     RMS |[F,P]|

   @DF-UKS iter   0:   -75.27753248818749   -7.52775e+01   2.72022e-12 
   @DF-UKS iter   1:   -75.27753248818746    2.84217e-14   8.79824e-13 DIIS
  Energy and wave function converged.


  ==> Post-Iterations <==

   Electrons on quadrature grid:
      Nalpha   =    4.9999999768 ; deviation = -2.319e-08
      Nbeta    =    3.0000000063 ; deviation = 6.337e-09
      Ntotal   =    7.9999999831 ; deviation = -1.685e-08 

   @Spin Contamination Metric:   4.370154474E-03
   @S^2 Expected:                2.000000000E+00
   @S^2 Observed:                2.004370154E+00
   @S   Expected:                1.000000000E+00
   @S   Observed:                1.000000000E+00

    Orbital Energies [Eh]
    ---------------------

    Alpha Occupied:                                                       

       1A1   -19.823879     2A1    -1.588088     3A1    -0.998686  
       1B1    -0.957338     1B2    -0.957338  

    Alpha Virtual:                                                        

       4A1    -0.298260     5A1     0.010662     2B1     0.134921  
       2B2     0.134921     6A1     0.162424     3B1     0.323086  
       3B2     0.323086     7A1     0.465019     8A1     0.867603  
       9A1     0.916298     1A2     0.916298     4B1     1.288854  
       4B2     1.288854    10A1     1.452005    11A1     1.988438  
      12A1     2.754885     2A2     2.754885     5B1     2.814950  
       5B2     2.814950     6B1     3.149812     6B2     3.149812  
      13A1     3.237303     7B2     3.595161     7B1     3.595161  
      14A1     3.831612    15A1     4.168006     8B1     4.493862  
       8B2     4.493862    16A1     4.802456     3A2     4.802456  
       4A2     5.523254    17A1     5.523254     9B1     5.721975  
       9B2     5.721975    18A1     5.841755    10B1     6.075596  
      10B2     6.075596    19A1     6.443593    20A1     9.670449  

    Beta Occupied:                                                        

       1A1   -19.767776     2A1    -1.437482     3A1    -0.942801  

    Beta Virtual:                                                         

       1B2    -0.654082     1B1    -0.654082     4A1    -0.281808  
       5A1     0.020152     6A1     0.175441     2B1     0.203527  
       2B2     0.203527     3B1     0.337613     3B2     0.337613  
       7A1     0.515958     8A1     0.887618     9A1     1.028115  
       1A2     1.028115     4B1     1.342415     4B2     1.342415  
      10A1     1.480249    11A1     2.000300    12A1     2.766677  
       2A2     2.766677     5B1     2.895939     5B2     2.895939  
       6B1     3.196202     6B2     3.196202    13A1     3.247392  
       7B2     3.636762     7B1     3.636762    14A1     3.877192  
      15A1     4.227194     8B1     4.646131     8B2     4.646131  
      16A1     4.899320     3A2     4.899320     4A2     5.735414  
      17A1     5.735415     9B1     5.832656     9B2     5.832656  
      18A1     5.892891    10B1     6.135138    10B2     6.135138  
      19A1     6.502170    20A1     9.743009  

    Final Occupation by Irrep:
             A1    A2    B1    B2 
    DOCC [     3,    0,    0,    0 ]
    SOCC [     0,    0,    1,    1 ]
    NA   [     3,    0,    1,    1 ]
    NB   [     3,    0,    0,    0 ]

  @DF-UKS Final Energy:   -75.27753248818746

   => Energetics <=

    Nuclear Repulsion Energy =              4.3811545996135699
    One-Electron Energy =                -107.8945371315359409
    Two-Electron Energy =                  35.1225616467598059
    DFT Exchange-Correlation Energy =      -6.8867116030249038
    Empirical Dispersion Energy =           0.0000000000000000
    VV10 Nonlocal Energy =                  0.0000000000000000
    Total Energy =                        -75.2775324881874752

  UHF NO Occupations:
  HONO-2 :    3 A1 1.9983755
  HONO-1 :    1 B2 1.0000000
  HONO-0 :    1 B1 1.0000000
  LUNO+0 :    4 A1 0.0016245
  LUNO+1 :    5 A1 0.0005606
  LUNO+2 :    6 A1 0.0000015
  LUNO+3 :    7 A1 0.0000000


Computation Completed


Properties will be evaluated at   0.000000,   0.000000,   0.000000 [a0]

Properties computed using the B3LYP density matrix


 Multipole Moments:

 ------------------------------------------------------------------------------------
     Multipole            Electronic (a.u.)      Nuclear  (a.u.)        Total (a.u.)
 ------------------------------------------------------------------------------------

 L = 1.  Multiply by 2.5417464519 to convert [e a0] to [Debye]
 Dipole X            :          0.0000000            0.0000000            0.0000000
 Dipole Y            :          0.0000000            0.0000000            0.0000000
 Dipole Z            :         -0.0153308            0.8518878            0.8365571
 Magnitude           :                                                    0.8365571

 L = 2.  Multiply by 1.3450342976 to convert [e a0^2] to [Debye ang]
 Quadrupole XX       :         -3.0041268            0.0000000           -3.0041268
 Quadrupole XY       :          0.0000000            0.0000000            0.0000000
 Quadrupole XZ       :          0.0000000            0.0000000            0.0000000
 Quadrupole YY       :         -3.0041268            0.0000000           -3.0041268
 Quadrupole YZ       :          0.0000000            0.0000000            0.0000000
 Quadrupole ZZ       :         -4.8047549            3.0444443           -1.7603106
 Traceless XX        :          0.6002094           -1.0148148           -0.4146054
 Traceless YY        :          0.6002094           -1.0148148           -0.4146054
 Traceless ZZ        :         -1.2004187            2.0296296            0.8292108

 ------------------------------------------------------------------------------------
  ==> Computing MBIS Charges <==

  Electron Count from Grid (Expected Number):  8.00000 ( 8.00000)
  Difference: -0.00000

  MBIS Charges: (a.u.)
   Center  Symbol  Z      Pop.       Charge
      1       O    8    7.505318    0.494682
      2       H    1    0.494682    0.505318

  MBIS Dipoles: [e a0]
   Center  Symbol  Z        X           Y           Z
      1       O    8    0.000000   -0.000000   -0.024957
      2       H    1    0.000000    0.000000    0.047037

  MBIS Quadrupoles: [e a0^2]
   Center  Symbol  Z      XX        XY        XZ        YY        YZ        ZZ
      1       O    8   -2.8100   -0.0000    0.0000   -2.8100   -0.0000   -3.2377
      2       H    1   -0.1942    0.0000    0.0000   -0.1942    0.0000   -0.1864

  MBIS Octupoles: [e a0^3]
   Center  Symbol  Z      XXX       XXY       XXZ       XYY       XYZ       XZZ       YYY       YYZ       YZZ       ZZZ
      1       O    8   -0.0000   -0.0000   -0.0061    0.0000   -0.0000   -0.0000   -0.0000   -0.0061    0.0000   -0.0736
      2       H    1    0.0000    0.0000    0.0069   -0.0000    0.0000    0.0000    0.0000    0.0069    0.0000    0.0313

  MBIS Radial Moments:
   Center  Symbol  Z      [a0^2]      [a0^3]      [a0^4]      
      1       O    8    8.857652   15.017694   30.493024
      2       H    1    0.574762    0.875434    1.595708

  MBIS Valence Widths: [a0]
   Center  Symbol  Z     Width
      1       O    8    0.356383
      2       H    1    0.314996

*** tstop() called on Mac.lan at Sun Aug 10 18:28:33 2025
Module time:
	user time   =      20.25 seconds =       0.34 minutes
	system time =       1.48 seconds =       0.02 minutes
	total time  =          3 seconds =       0.05 minutes
Total time:
	user time   =      38.51 seconds =       0.64 minutes
	system time =       4.28 seconds =       0.07 minutes
	total time  =          5 seconds =       0.08 minutes

    Psi4 stopped on: Sunday, 10 August 2025 06:28PM
    Psi4 wall time for execution: 0:00:04.63

*** Psi4 exiting successfully. Buy a developer a beer!
