
    -----------------------------------------------------------------------
          Psi4: An Open-Source Ab Initio Electronic Structure Package
                               Psi4 1.9.1 release

                         Git: Rev {} zzzzzzz 


    D. G. A. Smith, L. A. Burns, A. C. Simmonett, R. M. Parrish,
    M. C. Schieber, R. Galvelis, P. Kraus, H. Kruse, R. Di Remigio,
    A. Alenaizan, A. M. James, S. Lehtola, J. P. Misiewicz, M. Scheurer,
    R. A. Shaw, J. B. Schriber, Y. Xie, Z. L. Glick, D. A. Sirianni,
    J. S. O'Brien, J. M. Waldrop, A. Kumar, E. G. Hohenstein,
    B. P. Pritchard, B. R. Brooks, H. F. Schaefer III, A. Yu. Sokolov,
    K. Patkowski, A. E. DePrince III, U. Bozkaya, R. A. King,
    F. A. Evangelista, J. M. Turney, T. D. Crawford, C. D. Sherrill,
    J. Chem. Phys. 152(18) 184108 (2020). https://doi.org/10.1063/5.0006002

                            Additional Code Authors
    E. T. Seidl, C. L. Janssen, E. F. Valeev, M. L. Leininger,
    J. F. Gonthier, R. M. Richard, H. R. McAlexander, M. Saitow, X. Wang,
    P. Verma, M. H. Lechner, A. Jiang, S. Behnle, A. G. Heide,
    M. F. Herbst, and D. L. Poole

             Previous Authors, Complete List of Code Contributors,
                       and Citations for Specific Modules
    https://github.com/psi4/psi4/blob/master/codemeta.json
    https://github.com/psi4/psi4/graphs/contributors
    http://psicode.org/psi4manual/master/introduction.html#citing-psifour

    -----------------------------------------------------------------------


    Psi4 started on: Sunday, 10 August 2025 06:28PM

    Process ID: 50175
    Host:       Mac.lan
    PSIDATADIR: /Users/joseantoniorodriguesromero/anaconda3/share/psi4
    Memory:     500.0 MiB
    Threads:    1
    
  ==> Input File <==

--------------------------------------------------------------------------
molecule { 
1 3
O           0.000000           0.000000           0.000000
H           0.000000           0.000000           0.775566
}

set { 
basis              cc-pvtz
reference          uks
maxiter            500
DAMPING_PERCENTAGE 1
E_CONVERGENCE      1.0E-8
D_CONVERGENCE      1.0E-8
DIIS_MAX_VECS      400
MBIS_MAXITER       8000
guess              read
}

E, wfn = energy('b3lyp', restart_file='last_wfn', return_wfn=True)
properties('b3lyp','MBIS_CHARGES', wfn=wfn)
wfn.to_file('last_wfn')
--------------------------------------------------------------------------

Scratch directory: /tmp/
 Found user provided orbital data. Setting orbital guess to READ 
 Copying restart file <last_wfn.npy> to </tmp/scan_HO_9.default.50175.180.npy> for internal processing
   => Libint2 <=

    Primary   basis highest AM E, G, H:  6, 6, 3
    Auxiliary basis highest AM E, G, H:  7, 7, 4
    Onebody   basis highest AM E, G, H:  -, -, -
    Solid Harmonics ordering:            Gaussian

*** tstart() called on Mac.lan
*** at Sun Aug 10 18:28:53 2025

   => Loading Basis Set <=

    Name: CC-PVTZ
    Role: ORBITAL
    Keyword: BASIS
    atoms 1 entry O          line   262 file /Users/joseantoniorodriguesromero/anaconda3/share/psi4/basis/cc-pvtz.gbs 
    atoms 2 entry H          line    23 file /Users/joseantoniorodriguesromero/anaconda3/share/psi4/basis/cc-pvtz.gbs 


         ---------------------------------------------------------
                                   SCF
               by Justin Turney, Rob Parrish, Andy Simmonett
                          and Daniel G. A. Smith
                              UKS Reference
                        1 Threads,    500 MiB Core
         ---------------------------------------------------------

  ==> Geometry <==

    Molecular point group: c2v
    Full point group: C_inf_v

    Geometry (in Angstrom), charge = 1, multiplicity = 3:

       Center              X                  Y                   Z               Mass       
    ------------   -----------------  -----------------  -----------------  -----------------
         O            0.000000000000     0.000000000000    -0.045971110830    15.994914619570
         H            0.000000000000     0.000000000000     0.729594889170     1.007825032230

  Running in c2v symmetry.

  Rotational constants: A = ************  B =     29.56043  C =     29.56043 [cm^-1]
  Rotational constants: A = ************  B = 886199.52585  C = 886199.52585 [MHz]
  Nuclear repulsion =    5.458487975697750

  Charge       = 1
  Multiplicity = 3
  Electrons    = 8
  Nalpha       = 5
  Nbeta        = 3

  ==> Algorithm <==

  SCF Algorithm Type is DF.
  DIIS enabled.
  MOM disabled.
  Fractional occupation disabled.
  Guess Type is READ.
  Energy threshold   = 1.00e-08
  Density threshold  = 1.00e-08
  Integral threshold = 1.00e-12

  ==> Primary Basis <==

  Basis Set: CC-PVTZ
    Blend: CC-PVTZ
    Number of shells: 16
    Number of basis functions: 44
    Number of Cartesian functions: 50
    Spherical Harmonics?: true
    Max angular momentum: 3

  ==> DFT Potential <==

   => LibXC <=

    Version 6.2.2
    S. Lehtola, C. Steigemann, M. J.T. Oliveira, and M. A.L. Marques.,  SoftwareX 7, 1–5 (2018) (10.1016/j.softx.2017.11.002)

   => Composite Functional: B3LYP <= 

    B3LYP Hyb-GGA Exchange-Correlation Functional

    P. J. Stephens, F. J. Devlin, C. F. Chabalowski, and M. J. Frisch.,  J. Phys. Chem. 98, 11623 (1994) (10.1021/j100096a001)

    Deriv               =              1
    GGA                 =           TRUE
    Meta                =          FALSE

    Exchange Hybrid     =           TRUE
    MP2 Hybrid          =          FALSE

   => Exchange Functionals <=

    0.0800   Slater exchange
    0.7200         Becke 88

   => Exact (HF) Exchange <=

    0.2000               HF 

   => Correlation Functionals <=

    0.1900   Vosko, Wilk & Nusair (VWN5_RPA)
    0.8100   Lee, Yang & Parr

   => LibXC Density Thresholds  <==

    XC_HYB_GGA_XC_B3LYP:  1.00E-15 

   => Molecular Quadrature <=

    Radial Scheme          =       TREUTLER
    Pruning Scheme         =           NONE
    Nuclear Scheme         =       TREUTLER

    Blocking Scheme        =         OCTREE
    BS radius alpha        =              1
    Pruning alpha          =              1
    Radial Points          =             75
    Spherical Points       =            302
    Total Points           =          44105
    Total Blocks           =            390
    Max Points             =            256
    Max Functions          =             44
    Weights Tolerance      =       1.00E-15

   => Loading Basis Set <=

    Name: (CC-PVTZ AUX)
    Role: JKFIT
    Keyword: DF_BASIS_SCF
    atoms 1 entry O          line   229 file /Users/joseantoniorodriguesromero/anaconda3/share/psi4/basis/cc-pvtz-jkfit.gbs 
    atoms 2 entry H          line    51 file /Users/joseantoniorodriguesromero/anaconda3/share/psi4/basis/cc-pvtz-jkfit.gbs 

   => Loading Basis Set <=

    Name: CC-PVTZ
    Role: ORBITAL
    Keyword: BASIS
    atoms 1 entry O          line   262 file /Users/joseantoniorodriguesromero/anaconda3/share/psi4/basis/cc-pvtz.gbs 
    atoms 2 entry H          line    23 file /Users/joseantoniorodriguesromero/anaconda3/share/psi4/basis/cc-pvtz.gbs 

  Reading orbitals from file /tmp/scan_HO_9.default.50175.180.npy, no projection.

  ==> Integral Setup <==

  DFHelper Memory: AOs need 0.002 GiB; user supplied 0.311 GiB. 
  Using in-core AOs.

  ==> MemDFJK: Density-Fitted J/K Matrices <==

    J tasked:                   Yes
    K tasked:                   Yes
    wK tasked:                   No
    OpenMP threads:               1
    Memory [MiB]:               318
    Algorithm:                 Core
    Schwarz Cutoff:           1E-12
    Mask sparsity (%):       0.0000
    Fitting Condition:        1E-10

   => Auxiliary Basis Set <=

  Basis Set: (CC-PVTZ AUX)
    Blend: CC-PVTZ-JKFIT
    Number of shells: 35
    Number of basis functions: 109
    Number of Cartesian functions: 131
    Spherical Harmonics?: true
    Max angular momentum: 4

  Cached 100.0% of DFT collocation blocks in 0.055 [GiB].

  Minimum eigenvalue in the overlap matrix is 2.1601748774E-03.
  Reciprocal condition number of the overlap matrix is 5.2152276531E-04.
    Using symmetric orthogonalization.

  ==> Pre-Iterations <==

  SCF Guess: Orbitals guess was supplied from a previous computation.

   -------------------------------------------------------
    Irrep   Nso     Nmo     Nalpha   Nbeta   Ndocc  Nsocc
   -------------------------------------------------------
     A1        20      20       3       3       3       0
     A2         4       4       0       0       0       0
     B1        10      10       1       0       0       1
     B2        10      10       1       0       0       1
   -------------------------------------------------------
    Total      44      44       5       3       3       2
   -------------------------------------------------------

  ==> Iterations <==

                           Total Energy        Delta E     RMS |[F,P]|

   @DF-UKS iter   0:   -75.21234382565618   -7.52123e+01   2.99578e-03 
   @DF-UKS iter   1:   -75.20117999374422    1.11638e-02   2.09694e-04 DIIS/ADIIS
   @DF-UKS iter   2:   -75.20118690062429   -6.90688e-06   8.25696e-05 DIIS/DAMP=1%
   @DF-UKS iter   3:   -75.20122442356315   -3.75229e-05   1.63114e-05 DIIS/DAMP=1%
   @DF-UKS iter   4:   -75.20118089997440    4.35236e-05   2.41768e-06 DIIS/DAMP=1%
   @DF-UKS iter   5:   -75.20118901012646   -8.11015e-06   1.32686e-07 DIIS/DAMP=1%
   @DF-UKS iter   6:   -75.20118799948018    1.01065e-06   2.11069e-08 DIIS/DAMP=1%
   @DF-UKS iter   7:   -75.20118803755430   -3.80741e-08   2.19593e-09 DIIS/DAMP=1%
   @DF-UKS iter   8:   -75.20118803326478    4.28952e-09   1.22512e-10 DIIS/DAMP=1%
  Energy and wave function converged.


  ==> Post-Iterations <==

   Electrons on quadrature grid:
      Nalpha   =    4.9999999932 ; deviation = -6.816e-09
      Nbeta    =    2.9999999918 ; deviation = -8.237e-09
      Ntotal   =    7.9999999849 ; deviation = -1.505e-08 

   @Spin Contamination Metric:   3.310321978E-03
   @S^2 Expected:                2.000000000E+00
   @S^2 Observed:                2.003310322E+00
   @S   Expected:                1.000000000E+00
   @S   Observed:                1.000000000E+00

    Orbital Energies [Eh]
    ---------------------

    Alpha Occupied:                                                       

       1A1   -19.836653     2A1    -1.676696     3A1    -1.054044  
       1B1    -0.987052     1B2    -0.987052  

    Alpha Virtual:                                                        

       4A1    -0.245631     5A1     0.102826     2B1     0.132382  
       2B2     0.132382     6A1     0.140334     3B2     0.336369  
       3B1     0.336369     7A1     0.426399     1A2     0.897336  
       8A1     0.897336     9A1     1.086838     4B1     1.352038  
       4B2     1.352038    10A1     1.415443    11A1     2.124708  
       2A2     2.809870    12A1     2.809870     5B2     2.880091  
       5B1     2.880091     6B2     3.099437     6B1     3.099437  
      13A1     3.409302     7B2     3.780814     7B1     3.780814  
      14A1     3.990390     8B2     4.467481     8B1     4.467481  
      15A1     4.750695     3A2     5.065926    16A1     5.065926  
      17A1     5.488189     4A2     5.488189     9B1     5.701023  
       9B2     5.701023    18A1     6.476752    19A1     6.837183  
      10B1     6.892257    10B2     6.892257    20A1    11.774960  

    Beta Occupied:                                                        

       1A1   -19.780772     2A1    -1.535350     3A1    -0.989236  

    Beta Virtual:                                                         

       1B2    -0.681784     1B1    -0.681784     4A1    -0.233212  
       5A1     0.120612     6A1     0.152001     2B1     0.200038  
       2B2     0.200038     3B2     0.356308     3B1     0.356308  
       7A1     0.467928     8A1     1.009750     1A2     1.009750  
       9A1     1.120062     4B1     1.403584     4B2     1.403584  
      10A1     1.452274    11A1     2.141149     2A2     2.836554  
      12A1     2.836554     5B2     2.952995     5B1     2.952995  
       6B2     3.182094     6B1     3.182094    13A1     3.428472  
       7B2     3.815898     7B1     3.815898    14A1     4.052299  
       8B2     4.620056     8B1     4.620056    15A1     4.821340  
      16A1     5.162151     3A2     5.162151    17A1     5.699036  
       4A2     5.699037     9B1     5.792573     9B2     5.792573  
      18A1     6.526183    19A1     6.876322    10B1     6.963462  
      10B2     6.963462    20A1    11.837836  

    Final Occupation by Irrep:
             A1    A2    B1    B2 
    DOCC [     3,    0,    0,    0 ]
    SOCC [     0,    0,    1,    1 ]
    NA   [     3,    0,    1,    1 ]
    NB   [     3,    0,    0,    0 ]

  @DF-UKS Final Energy:   -75.20118803326478

   => Energetics <=

    Nuclear Repulsion Energy =              5.4584879756977500
    One-Electron Energy =                -109.4687207835564209
    Two-Electron Energy =                  35.7736741359759733
    DFT Exchange-Correlation Energy =      -6.9646293613820829
    Empirical Dispersion Energy =           0.0000000000000000
    VV10 Nonlocal Energy =                  0.0000000000000000
    Total Energy =                        -75.2011880332647848

  UHF NO Occupations:
  HONO-2 :    3 A1 1.9986740
  HONO-1 :    1 B1 1.0000000
  HONO-0 :    1 B2 1.0000000
  LUNO+0 :    4 A1 0.0013260
  LUNO+1 :    5 A1 0.0003286
  LUNO+2 :    6 A1 0.0000015
  LUNO+3 :    7 A1 0.0000000


Computation Completed


Properties will be evaluated at   0.000000,   0.000000,   0.000000 [a0]

Properties computed using the SCF density matrix


 Multipole Moments:

 ------------------------------------------------------------------------------------
     Multipole            Electronic (a.u.)      Nuclear  (a.u.)        Total (a.u.)
 ------------------------------------------------------------------------------------

 L = 1.  Multiply by 2.5417464519 to convert [e a0] to [Debye]
 Dipole X            :          0.0000000            0.0000000            0.0000000
 Dipole Y            :          0.0000000            0.0000000            0.0000000
 Dipole Z            :         -0.0001929            0.6837520            0.6835591
 Magnitude           :                                                    0.6835591

 ------------------------------------------------------------------------------------

*** tstop() called on Mac.lan at Sun Aug 10 18:28:54 2025
Module time:
	user time   =       7.92 seconds =       0.13 minutes
	system time =       2.10 seconds =       0.03 minutes
	total time  =          1 seconds =       0.02 minutes
Total time:
	user time   =       7.92 seconds =       0.13 minutes
	system time =       2.10 seconds =       0.03 minutes
	total time  =          1 seconds =       0.02 minutes

*** tstart() called on Mac.lan
*** at Sun Aug 10 18:28:54 2025

   => Libint2 <=

    Primary   basis highest AM E, G, H:  6, 6, 3
    Auxiliary basis highest AM E, G, H:  7, 7, 4
    Onebody   basis highest AM E, G, H:  -, -, -
    Solid Harmonics ordering:            Gaussian
   => Loading Basis Set <=

    Name: CC-PVTZ
    Role: ORBITAL
    Keyword: BASIS
    atoms 1 entry O          line   262 file /Users/joseantoniorodriguesromero/anaconda3/share/psi4/basis/cc-pvtz.gbs 
    atoms 2 entry H          line    23 file /Users/joseantoniorodriguesromero/anaconda3/share/psi4/basis/cc-pvtz.gbs 


         ---------------------------------------------------------
                                   SCF
               by Justin Turney, Rob Parrish, Andy Simmonett
                          and Daniel G. A. Smith
                              UKS Reference
                        1 Threads,    500 MiB Core
         ---------------------------------------------------------

  ==> Geometry <==

    Molecular point group: c2v
    Full point group: C_inf_v

    Geometry (in Angstrom), charge = 1, multiplicity = 3:

       Center              X                  Y                   Z               Mass       
    ------------   -----------------  -----------------  -----------------  -----------------
         O            0.000000000000     0.000000000000    -0.045971110830    15.994914619570
         H            0.000000000000     0.000000000000     0.729594889170     1.007825032230

  Running in c2v symmetry.

  Rotational constants: A = ************  B =     29.56043  C =     29.56043 [cm^-1]
  Rotational constants: A = ************  B = 886199.52585  C = 886199.52585 [MHz]
  Nuclear repulsion =    5.458487975697751

  Charge       = 1
  Multiplicity = 3
  Electrons    = 8
  Nalpha       = 5
  Nbeta        = 3

  ==> Algorithm <==

  SCF Algorithm Type is DF.
  DIIS enabled.
  MOM disabled.
  Fractional occupation disabled.
  Guess Type is READ.
  Energy threshold   = 1.00e-08
  Density threshold  = 1.00e-08
  Integral threshold = 1.00e-12

  ==> Primary Basis <==

  Basis Set: CC-PVTZ
    Blend: CC-PVTZ
    Number of shells: 16
    Number of basis functions: 44
    Number of Cartesian functions: 50
    Spherical Harmonics?: true
    Max angular momentum: 3

  ==> DFT Potential <==

   => LibXC <=

    Version 6.2.2
    S. Lehtola, C. Steigemann, M. J.T. Oliveira, and M. A.L. Marques.,  SoftwareX 7, 1–5 (2018) (10.1016/j.softx.2017.11.002)

   => Composite Functional: B3LYP <= 

    B3LYP Hyb-GGA Exchange-Correlation Functional

    P. J. Stephens, F. J. Devlin, C. F. Chabalowski, and M. J. Frisch.,  J. Phys. Chem. 98, 11623 (1994) (10.1021/j100096a001)

    Deriv               =              1
    GGA                 =           TRUE
    Meta                =          FALSE

    Exchange Hybrid     =           TRUE
    MP2 Hybrid          =          FALSE

   => Exchange Functionals <=

    0.0800   Slater exchange
    0.7200         Becke 88

   => Exact (HF) Exchange <=

    0.2000               HF 

   => Correlation Functionals <=

    0.1900   Vosko, Wilk & Nusair (VWN5_RPA)
    0.8100   Lee, Yang & Parr

   => LibXC Density Thresholds  <==

    XC_HYB_GGA_XC_B3LYP:  1.00E-15 

   => Molecular Quadrature <=

    Radial Scheme          =       TREUTLER
    Pruning Scheme         =           NONE
    Nuclear Scheme         =       TREUTLER

    Blocking Scheme        =         OCTREE
    BS radius alpha        =              1
    Pruning alpha          =              1
    Radial Points          =             75
    Spherical Points       =            302
    Total Points           =          44101
    Total Blocks           =            391
    Max Points             =            256
    Max Functions          =             44
    Weights Tolerance      =       1.00E-15

   => Loading Basis Set <=

    Name: (CC-PVTZ AUX)
    Role: JKFIT
    Keyword: DF_BASIS_SCF
    atoms 1 entry O          line   229 file /Users/joseantoniorodriguesromero/anaconda3/share/psi4/basis/cc-pvtz-jkfit.gbs 
    atoms 2 entry H          line    51 file /Users/joseantoniorodriguesromero/anaconda3/share/psi4/basis/cc-pvtz-jkfit.gbs 

   => Loading Basis Set <=

    Name: CC-PVTZ
    Role: ORBITAL
    Keyword: BASIS
    atoms 1 entry O          line   262 file /Users/joseantoniorodriguesromero/anaconda3/share/psi4/basis/cc-pvtz.gbs 
    atoms 2 entry H          line    23 file /Users/joseantoniorodriguesromero/anaconda3/share/psi4/basis/cc-pvtz.gbs 

  Reading orbitals from file /tmp/scan_HO_9.default.50175.180.npy, no projection.

  ==> Integral Setup <==

  DFHelper Memory: AOs need 0.002 GiB; user supplied 0.311 GiB. 
  Using in-core AOs.

  ==> MemDFJK: Density-Fitted J/K Matrices <==

    J tasked:                   Yes
    K tasked:                   Yes
    wK tasked:                   No
    OpenMP threads:               1
    Memory [MiB]:               318
    Algorithm:                 Core
    Schwarz Cutoff:           1E-12
    Mask sparsity (%):       0.0000
    Fitting Condition:        1E-10

   => Auxiliary Basis Set <=

  Basis Set: (CC-PVTZ AUX)
    Blend: CC-PVTZ-JKFIT
    Number of shells: 35
    Number of basis functions: 109
    Number of Cartesian functions: 131
    Spherical Harmonics?: true
    Max angular momentum: 4

  Cached 100.0% of DFT collocation blocks in 0.055 [GiB].

  Minimum eigenvalue in the overlap matrix is 2.1601748774E-03.
  Reciprocal condition number of the overlap matrix is 5.2152276531E-04.
    Using symmetric orthogonalization.

  ==> Pre-Iterations <==

  SCF Guess: Orbitals guess was supplied from a previous computation.

   -------------------------------------------------------
    Irrep   Nso     Nmo     Nalpha   Nbeta   Ndocc  Nsocc
   -------------------------------------------------------
     A1        20      20       3       3       3       0
     A2         4       4       0       0       0       0
     B1        10      10       1       0       0       1
     B2        10      10       1       0       0       1
   -------------------------------------------------------
    Total      44      44       5       3       3       2
   -------------------------------------------------------

  ==> Iterations <==

                           Total Energy        Delta E     RMS |[F,P]|

   @DF-UKS iter   0:   -75.20118803367164   -7.52012e+01   1.07135e-11 
   @DF-UKS iter   1:   -75.20118803367174   -9.94760e-14   4.28335e-12 DIIS
  Energy and wave function converged.


  ==> Post-Iterations <==

   Electrons on quadrature grid:
      Nalpha   =    4.9999999932 ; deviation = -6.816e-09
      Nbeta    =    2.9999999918 ; deviation = -8.237e-09
      Ntotal   =    7.9999999849 ; deviation = -1.505e-08 

   @Spin Contamination Metric:   3.310321978E-03
   @S^2 Expected:                2.000000000E+00
   @S^2 Observed:                2.003310322E+00
   @S   Expected:                1.000000000E+00
   @S   Observed:                1.000000000E+00

    Orbital Energies [Eh]
    ---------------------

    Alpha Occupied:                                                       

       1A1   -19.836653     2A1    -1.676696     3A1    -1.054044  
       1B1    -0.987052     1B2    -0.987052  

    Alpha Virtual:                                                        

       4A1    -0.245631     5A1     0.102826     2B1     0.132382  
       2B2     0.132382     6A1     0.140334     3B2     0.336369  
       3B1     0.336369     7A1     0.426399     1A2     0.897336  
       8A1     0.897336     9A1     1.086838     4B1     1.352038  
       4B2     1.352038    10A1     1.415443    11A1     2.124708  
       2A2     2.809870    12A1     2.809870     5B2     2.880091  
       5B1     2.880091     6B2     3.099437     6B1     3.099437  
      13A1     3.409302     7B2     3.780814     7B1     3.780814  
      14A1     3.990390     8B2     4.467481     8B1     4.467481  
      15A1     4.750695     3A2     5.065926    16A1     5.065926  
      17A1     5.488189     4A2     5.488189     9B1     5.701023  
       9B2     5.701023    18A1     6.476752    19A1     6.837183  
      10B1     6.892257    10B2     6.892257    20A1    11.774960  

    Beta Occupied:                                                        

       1A1   -19.780772     2A1    -1.535350     3A1    -0.989236  

    Beta Virtual:                                                         

       1B2    -0.681784     1B1    -0.681784     4A1    -0.233212  
       5A1     0.120612     6A1     0.152001     2B1     0.200038  
       2B2     0.200038     3B2     0.356308     3B1     0.356308  
       7A1     0.467928     8A1     1.009750     1A2     1.009750  
       9A1     1.120062     4B1     1.403584     4B2     1.403584  
      10A1     1.452274    11A1     2.141149     2A2     2.836554  
      12A1     2.836554     5B2     2.952995     5B1     2.952995  
       6B2     3.182094     6B1     3.182094    13A1     3.428472  
       7B2     3.815898     7B1     3.815898    14A1     4.052299  
       8B2     4.620056     8B1     4.620056    15A1     4.821340  
      16A1     5.162151     3A2     5.162151    17A1     5.699036  
       4A2     5.699037     9B1     5.792573     9B2     5.792573  
      18A1     6.526183    19A1     6.876322    10B1     6.963462  
      10B2     6.963462    20A1    11.837836  

    Final Occupation by Irrep:
             A1    A2    B1    B2 
    DOCC [     3,    0,    0,    0 ]
    SOCC [     0,    0,    1,    1 ]
    NA   [     3,    0,    1,    1 ]
    NB   [     3,    0,    0,    0 ]

  @DF-UKS Final Energy:   -75.20118803367174

   => Energetics <=

    Nuclear Repulsion Energy =              5.4584879756977509
    One-Electron Energy =                -109.4687207889482750
    Two-Electron Energy =                  35.7736741416551567
    DFT Exchange-Correlation Energy =      -6.9646293620763871
    Empirical Dispersion Energy =           0.0000000000000000
    VV10 Nonlocal Energy =                  0.0000000000000000
    Total Energy =                        -75.2011880336717411

  UHF NO Occupations:
  HONO-2 :    3 A1 1.9986740
  HONO-1 :    1 B2 1.0000000
  HONO-0 :    1 B1 1.0000000
  LUNO+0 :    4 A1 0.0013260
  LUNO+1 :    5 A1 0.0003286
  LUNO+2 :    6 A1 0.0000015
  LUNO+3 :    7 A1 0.0000000


Computation Completed


Properties will be evaluated at   0.000000,   0.000000,   0.000000 [a0]

Properties computed using the B3LYP density matrix


 Multipole Moments:

 ------------------------------------------------------------------------------------
     Multipole            Electronic (a.u.)      Nuclear  (a.u.)        Total (a.u.)
 ------------------------------------------------------------------------------------

 L = 1.  Multiply by 2.5417464519 to convert [e a0] to [Debye]
 Dipole X            :          0.0000000            0.0000000            0.0000000
 Dipole Y            :          0.0000000            0.0000000            0.0000000
 Dipole Z            :         -0.0001929            0.6837520            0.6835591
 Magnitude           :                                                    0.6835591

 L = 2.  Multiply by 1.3450342976 to convert [e a0^2] to [Debye ang]
 Quadrupole XX       :         -2.8823964            0.0000000           -2.8823964
 Quadrupole XY       :          0.0000000            0.0000000            0.0000000
 Quadrupole XZ       :          0.0000000            0.0000000            0.0000000
 Quadrupole YY       :         -2.8823964            0.0000000           -2.8823964
 Quadrupole YZ       :          0.0000000            0.0000000            0.0000000
 Quadrupole ZZ       :         -4.2481763            1.9612840           -2.2868923
 Traceless XX        :          0.4552600           -0.6537613           -0.1985014
 Traceless YY        :          0.4552600           -0.6537613           -0.1985014
 Traceless ZZ        :         -0.9105199            1.3075226            0.3970027

 ------------------------------------------------------------------------------------
  ==> Computing MBIS Charges <==

  Electron Count from Grid (Expected Number):  8.00000 ( 8.00000)
  Difference: -0.00000

  MBIS Charges: (a.u.)
   Center  Symbol  Z      Pop.       Charge
      1       O    8    7.457972    0.542028
      2       H    1    0.542028    0.457972

  MBIS Dipoles: [e a0]
   Center  Symbol  Z        X           Y           Z
      1       O    8    0.000000   -0.000000    0.065018
      2       H    1    0.000000   -0.000000    0.034207

  MBIS Quadrupoles: [e a0^2]
   Center  Symbol  Z      XX        XY        XZ        YY        YZ        ZZ
      1       O    8   -2.7235    0.0000    0.0000   -2.7235   -0.0000   -3.0874
      2       H    1   -0.1589   -0.0000    0.0000   -0.1589   -0.0000   -0.1571

  MBIS Octupoles: [e a0^3]
   Center  Symbol  Z      XXX       XXY       XXZ       XYY       XYZ       XZZ       YYY       YYZ       YZZ       ZZZ
      1       O    8   -0.0000   -0.0000    0.0679   -0.0000   -0.0000    0.0000   -0.0000    0.0679   -0.0000    0.1341
      2       H    1    0.0000   -0.0000    0.0038    0.0000   -0.0000    0.0000   -0.0000    0.0038   -0.0000    0.0108

  MBIS Radial Moments:
   Center  Symbol  Z      [a0^2]      [a0^3]      [a0^4]      
      1       O    8    8.534433   14.282926   28.688839
      2       H    1    0.474935    0.631493    1.009248

  MBIS Valence Widths: [a0]
   Center  Symbol  Z     Width
      1       O    8    0.350593
      2       H    1    0.273200

*** tstop() called on Mac.lan at Sun Aug 10 18:28:54 2025
Module time:
	user time   =       2.82 seconds =       0.05 minutes
	system time =       1.92 seconds =       0.03 minutes
	total time  =          0 seconds =       0.00 minutes
Total time:
	user time   =      10.79 seconds =       0.18 minutes
	system time =       4.18 seconds =       0.07 minutes
	total time  =          1 seconds =       0.02 minutes

    Psi4 stopped on: Sunday, 10 August 2025 06:28PM
    Psi4 wall time for execution: 0:00:01.48

*** Psi4 exiting successfully. Buy a developer a beer!
