
    -----------------------------------------------------------------------
          Psi4: An Open-Source Ab Initio Electronic Structure Package
                               Psi4 1.9.1 release

                         Git: Rev {} zzzzzzz 


    D. G. A. Smith, L. A. Burns, A. C. Simmonett, R. M. Parrish,
    M. C. Schieber, R. Galvelis, P. Kraus, H. Kruse, R. Di Remigio,
    A. Alenaizan, A. M. James, S. Lehtola, J. P. Misiewicz, M. Scheurer,
    R. A. Shaw, J. B. Schriber, Y. Xie, Z. L. Glick, D. A. Sirianni,
    J. S. O'Brien, J. M. Waldrop, A. Kumar, E. G. Hohenstein,
    B. P. Pritchard, B. R. Brooks, H. F. Schaefer III, A. Yu. Sokolov,
    K. Patkowski, A. E. DePrince III, U. Bozkaya, R. A. King,
    F. A. Evangelista, J. M. Turney, T. D. Crawford, C. D. Sherrill,
    J. Chem. Phys. 152(18) 184108 (2020). https://doi.org/10.1063/5.0006002

                            Additional Code Authors
    E. T. Seidl, C. L. Janssen, E. F. Valeev, M. L. Leininger,
    J. F. Gonthier, R. M. Richard, H. R. McAlexander, M. Saitow, X. Wang,
    P. Verma, M. H. Lechner, A. Jiang, S. Behnle, A. G. Heide,
    M. F. Herbst, and D. L. Poole

             Previous Authors, Complete List of Code Contributors,
                       and Citations for Specific Modules
    https://github.com/psi4/psi4/blob/master/codemeta.json
    https://github.com/psi4/psi4/graphs/contributors
    http://psicode.org/psi4manual/master/introduction.html#citing-psifour

    -----------------------------------------------------------------------


    Psi4 started on: Sunday, 10 August 2025 06:37PM

    Process ID: 50461
    Host:       Mac.lan
    PSIDATADIR: /Users/joseantoniorodriguesromero/anaconda3/share/psi4
    Memory:     500.0 MiB
    Threads:    1
    
  ==> Input File <==

--------------------------------------------------------------------------
molecule { 
1 2
O           0.000000           0.000000           0.000000
C           0.000000           0.000000           0.665995
}

set { 
basis              cc-pvtz
reference          uks
maxiter            500
DAMPING_PERCENTAGE 1
E_CONVERGENCE      1.0E-8
D_CONVERGENCE      1.0E-8
DIIS_MAX_VECS      400
MBIS_MAXITER       8000
guess              read
}

E, wfn = energy('b3lyp', restart_file='last_wfn', return_wfn=True)
properties('b3lyp','MBIS_CHARGES', wfn=wfn)
wfn.to_file('last_wfn')
--------------------------------------------------------------------------

Scratch directory: /tmp/
 Found user provided orbital data. Setting orbital guess to READ 
 Copying restart file <last_wfn.npy> to </tmp/scan_CO_1.default.50461.180.npy> for internal processing
   => Libint2 <=

    Primary   basis highest AM E, G, H:  6, 6, 3
    Auxiliary basis highest AM E, G, H:  7, 7, 4
    Onebody   basis highest AM E, G, H:  -, -, -
    Solid Harmonics ordering:            Gaussian

*** tstart() called on Mac.lan
*** at Sun Aug 10 18:37:29 2025

   => Loading Basis Set <=

    Name: CC-PVTZ
    Role: ORBITAL
    Keyword: BASIS
    atoms 1 entry O          line   262 file /Users/joseantoniorodriguesromero/anaconda3/share/psi4/basis/cc-pvtz.gbs 
    atoms 2 entry C          line   186 file /Users/joseantoniorodriguesromero/anaconda3/share/psi4/basis/cc-pvtz.gbs 


         ---------------------------------------------------------
                                   SCF
               by Justin Turney, Rob Parrish, Andy Simmonett
                          and Daniel G. A. Smith
                              UKS Reference
                        1 Threads,    500 MiB Core
         ---------------------------------------------------------

  ==> Geometry <==

    Molecular point group: c2v
    Full point group: C_inf_v

    Geometry (in Angstrom), charge = 1, multiplicity = 2:

       Center              X                  Y                   Z               Mass       
    ------------   -----------------  -----------------  -----------------  -----------------
         O            0.000000000000     0.000000000000    -0.285478277344    15.994914619570
         C            0.000000000000     0.000000000000     0.380516722656    12.000000000000

  Running in c2v symmetry.

  Rotational constants: A = ************  B =      5.54333  C =      5.54333 [cm^-1]
  Rotational constants: A = ************  B = 166184.77638  C = 166184.77638 [MHz]
  Nuclear repulsion =   38.139184396519497

  Charge       = 1
  Multiplicity = 2
  Electrons    = 13
  Nalpha       = 7
  Nbeta        = 6

  ==> Algorithm <==

  SCF Algorithm Type is DF.
  DIIS enabled.
  MOM disabled.
  Fractional occupation disabled.
  Guess Type is READ.
  Energy threshold   = 1.00e-08
  Density threshold  = 1.00e-08
  Integral threshold = 1.00e-12

  ==> Primary Basis <==

  Basis Set: CC-PVTZ
    Blend: CC-PVTZ
    Number of shells: 20
    Number of basis functions: 60
    Number of Cartesian functions: 70
    Spherical Harmonics?: true
    Max angular momentum: 3

  ==> DFT Potential <==

   => LibXC <=

    Version 6.2.2
    S. Lehtola, C. Steigemann, M. J.T. Oliveira, and M. A.L. Marques.,  SoftwareX 7, 1–5 (2018) (10.1016/j.softx.2017.11.002)

   => Composite Functional: B3LYP <= 

    B3LYP Hyb-GGA Exchange-Correlation Functional

    P. J. Stephens, F. J. Devlin, C. F. Chabalowski, and M. J. Frisch.,  J. Phys. Chem. 98, 11623 (1994) (10.1021/j100096a001)

    Deriv               =              1
    GGA                 =           TRUE
    Meta                =          FALSE

    Exchange Hybrid     =           TRUE
    MP2 Hybrid          =          FALSE

   => Exchange Functionals <=

    0.0800   Slater exchange
    0.7200         Becke 88

   => Exact (HF) Exchange <=

    0.2000               HF 

   => Correlation Functionals <=

    0.1900   Vosko, Wilk & Nusair (VWN5_RPA)
    0.8100   Lee, Yang & Parr

   => LibXC Density Thresholds  <==

    XC_HYB_GGA_XC_B3LYP:  1.00E-15 

   => Molecular Quadrature <=

    Radial Scheme          =       TREUTLER
    Pruning Scheme         =           NONE
    Nuclear Scheme         =       TREUTLER

    Blocking Scheme        =         OCTREE
    BS radius alpha        =              1
    Pruning alpha          =              1
    Radial Points          =             75
    Spherical Points       =            302
    Total Points           =          43181
    Total Blocks           =            385
    Max Points             =            256
    Max Functions          =             60
    Weights Tolerance      =       1.00E-15

   => Loading Basis Set <=

    Name: (CC-PVTZ AUX)
    Role: JKFIT
    Keyword: DF_BASIS_SCF
    atoms 1 entry O          line   229 file /Users/joseantoniorodriguesromero/anaconda3/share/psi4/basis/cc-pvtz-jkfit.gbs 
    atoms 2 entry C          line   125 file /Users/joseantoniorodriguesromero/anaconda3/share/psi4/basis/cc-pvtz-jkfit.gbs 

   => Loading Basis Set <=

    Name: CC-PVTZ
    Role: ORBITAL
    Keyword: BASIS
    atoms 1 entry O          line   262 file /Users/joseantoniorodriguesromero/anaconda3/share/psi4/basis/cc-pvtz.gbs 
    atoms 2 entry C          line   186 file /Users/joseantoniorodriguesromero/anaconda3/share/psi4/basis/cc-pvtz.gbs 

  Reading orbitals from file /tmp/scan_CO_1.default.50461.180.npy, no projection.

  ==> Integral Setup <==

  DFHelper Memory: AOs need 0.005 GiB; user supplied 0.294 GiB. 
  Using in-core AOs.

  ==> MemDFJK: Density-Fitted J/K Matrices <==

    J tasked:                   Yes
    K tasked:                   Yes
    wK tasked:                   No
    OpenMP threads:               1
    Memory [MiB]:               301
    Algorithm:                 Core
    Schwarz Cutoff:           1E-12
    Mask sparsity (%):       0.0000
    Fitting Condition:        1E-10

   => Auxiliary Basis Set <=

  Basis Set: (CC-PVTZ AUX)
    Blend: CC-PVTZ-JKFIT
    Number of shells: 50
    Number of basis functions: 158
    Number of Cartesian functions: 192
    Spherical Harmonics?: true
    Max angular momentum: 4

  Cached 100.0% of DFT collocation blocks in 0.072 [GiB].

  Minimum eigenvalue in the overlap matrix is 1.9800379851E-03.
  Reciprocal condition number of the overlap matrix is 4.5728593865E-04.
    Using symmetric orthogonalization.

  ==> Pre-Iterations <==

  SCF Guess: Orbitals guess was supplied from a previous computation.

   -------------------------------------------------------
    Irrep   Nso     Nmo     Nalpha   Nbeta   Ndocc  Nsocc
   -------------------------------------------------------
     A1        26      26       5       4       4       1
     A2         6       6       0       0       0       0
     B1        14      14       1       1       1       0
     B2        14      14       1       1       1       0
   -------------------------------------------------------
    Total      60      60       7       6       6       1
   -------------------------------------------------------

  ==> Iterations <==

                           Total Energy        Delta E     RMS |[F,P]|

   @DF-UKS iter   0:  -111.20741021895807   -1.11207e+02   7.50743e-03 
   @DF-UKS iter   1:  -111.19321368810498    1.41965e-02   1.33752e-03 DIIS/ADIIS
   @DF-UKS iter   2:  -111.19348774547476   -2.74057e-04   7.91459e-04 DIIS/ADIIS/DAMP=1%
   @DF-UKS iter   3:  -111.19301108611465    4.76659e-04   1.00231e-04 DIIS/ADIIS/DAMP=1%
   @DF-UKS iter   4:  -111.19369861302602   -6.87527e-04   2.00277e-05 DIIS/DAMP=1%
   @DF-UKS iter   5:  -111.19365845152041    4.01615e-05   2.35943e-06 DIIS/DAMP=1%
   @DF-UKS iter   6:  -111.19365922133875   -7.69818e-07   4.77002e-07 DIIS/DAMP=1%
   @DF-UKS iter   7:  -111.19365849317447    7.28164e-07   3.28453e-08 DIIS/DAMP=1%
   @DF-UKS iter   8:  -111.19365858384769   -9.06732e-08   4.98934e-09 DIIS/DAMP=1%
   @DF-UKS iter   9:  -111.19365856123670    2.26110e-08   5.50092e-10 DIIS/DAMP=1%
   @DF-UKS iter  10:  -111.19365856453602   -3.29932e-09   3.06314e-11 DIIS/DAMP=1%
  Energy and wave function converged.


  ==> Post-Iterations <==

   Electrons on quadrature grid:
      Nalpha   =    7.0000001413 ; deviation = 1.413e-07
      Nbeta    =    6.0000001450 ; deviation = 1.450e-07
      Ntotal   =   13.0000002862 ; deviation = 2.862e-07 

   @Spin Contamination Metric:   2.170962132E-03
   @S^2 Expected:                7.500000000E-01
   @S^2 Observed:                7.521709621E-01
   @S   Expected:                5.000000000E-01
   @S   Observed:                5.000000000E-01

    Orbital Energies [Eh]
    ---------------------

    Alpha Occupied:                                                       

       1A1   -19.629476     2A1   -10.767612     3A1    -1.699534  
       1B2    -1.155176     1B1    -1.155176     4A1    -0.928563  
       5A1    -0.843798  

    Alpha Virtual:                                                        

       2B2    -0.191513     2B1    -0.191513     6A1    -0.095154  
       7A1    -0.028297     3B2    -0.011784     3B1    -0.011784  
       8A1     0.250974     9A1     0.263088     1A2     0.263088  
       4B2     0.326955     4B1     0.326955    10A1     0.529830  
       5B2     0.735159     5B1     0.735159    11A1     1.009532  
       6B2     1.203028     6B1     1.203028    12A1     1.293675  
       2A2     1.293675    13A1     1.373282    14A1     1.964902  
       7B2     1.983551     7B1     1.983551     8B2     2.197756  
       8B1     2.197756    15A1     2.358393     3A2     2.372496  
      16A1     2.372496     9B2     2.597758     9B1     2.597758  
      17A1     2.792374     4A2     2.812539    18A1     2.812539  
      10B1     3.702924    10B2     3.702924    11B2     3.872603  
      11B1     3.872603    19A1     4.162070    12B1     4.930800  
      12B2     4.930800    20A1     5.549174    21A1     5.818557  
       5A2     5.818558    22A1     6.248099     6A2     6.248099  
      13B2     6.298951    13B1     6.298951    23A1     6.382506  
      24A1     7.462253    14B2     7.591725    14B1     7.591725  
      25A1     9.887561    26A1    17.842864  

    Beta Occupied:                                                        

       1A1   -19.628180     2A1   -10.744438     3A1    -1.694269  
       1B2    -1.143136     1B1    -1.143136     4A1    -0.914247  

    Beta Virtual:                                                         

       5A1    -0.615197     2B2    -0.159324     2B1    -0.159324  
       6A1    -0.085758     7A1     0.007766     3B2     0.009659  
       3B1     0.009659     8A1     0.271238     1A2     0.280844  
       9A1     0.280844     4B2     0.339880     4B1     0.339880  
      10A1     0.570302     5B2     0.761844     5B1     0.761844  
      11A1     1.030153     6B2     1.222105     6B1     1.222105  
      12A1     1.296396     2A2     1.296396    13A1     1.420734  
      14A1     2.000261     7B2     2.015779     7B1     2.015779  
       8B2     2.229525     8B1     2.229525     3A2     2.445174  
      15A1     2.445174    16A1     2.445374     9B2     2.692609  
       9B1     2.692609     4A2     2.847377    17A1     2.847377  
      18A1     2.866750    10B1     3.704614    10B2     3.704614  
      11B2     3.917164    11B1     3.917164    19A1     4.179219  
      12B1     4.932327    12B2     4.932327    20A1     5.564405  
      21A1     5.816425     5A2     5.816426    22A1     6.261202  
       6A2     6.261202    13B2     6.309059    13B1     6.309059  
      23A1     6.392714    24A1     7.489235    14B2     7.611754  
      14B1     7.611754    25A1     9.907250    26A1    17.871052  

    Final Occupation by Irrep:
             A1    A2    B1    B2 
    DOCC [     4,    0,    1,    1 ]
    SOCC [     1,    0,    0,    0 ]
    NA   [     5,    0,    1,    1 ]
    NB   [     4,    0,    1,    1 ]

  @DF-UKS Final Energy:  -111.19365856453602

   => Energetics <=

    Nuclear Repulsion Energy =             38.1391843965194965
    One-Electron Energy =                -218.8360389058518649
    Two-Electron Energy =                  81.1890260932907779
    DFT Exchange-Correlation Energy =     -11.6858301484944409
    Empirical Dispersion Energy =           0.0000000000000000
    VV10 Nonlocal Energy =                  0.0000000000000000
    Total Energy =                       -111.1936585645360225

  UHF NO Occupations:
  HONO-2 :    1 B1 1.9995097
  HONO-1 :    1 B2 1.9995097
  HONO-0 :    5 A1 1.0000000
  LUNO+0 :    2 B2 0.0004903
  LUNO+1 :    2 B1 0.0004903
  LUNO+2 :    6 A1 0.0000979
  LUNO+3 :    7 A1 0.0000072


Computation Completed


Properties will be evaluated at   0.000000,   0.000000,   0.000000 [a0]

Properties computed using the SCF density matrix


 Multipole Moments:

 ------------------------------------------------------------------------------------
     Multipole            Electronic (a.u.)      Nuclear  (a.u.)        Total (a.u.)
 ------------------------------------------------------------------------------------

 L = 1.  Multiply by 2.5417464519 to convert [e a0] to [Debye]
 Dipole X            :          0.0000000            0.0000000            0.0000000
 Dipole Y            :          0.0000000            0.0000000            0.0000000
 Dipole Z            :          0.6635614           -0.0013717            0.6621896
 Magnitude           :                                                    0.6621896

 ------------------------------------------------------------------------------------

*** tstop() called on Mac.lan at Sun Aug 10 18:37:30 2025
Module time:
	user time   =      14.03 seconds =       0.23 minutes
	system time =       2.35 seconds =       0.04 minutes
	total time  =          1 seconds =       0.02 minutes
Total time:
	user time   =      14.03 seconds =       0.23 minutes
	system time =       2.35 seconds =       0.04 minutes
	total time  =          1 seconds =       0.02 minutes

*** tstart() called on Mac.lan
*** at Sun Aug 10 18:37:30 2025

   => Libint2 <=

    Primary   basis highest AM E, G, H:  6, 6, 3
    Auxiliary basis highest AM E, G, H:  7, 7, 4
    Onebody   basis highest AM E, G, H:  -, -, -
    Solid Harmonics ordering:            Gaussian
   => Loading Basis Set <=

    Name: CC-PVTZ
    Role: ORBITAL
    Keyword: BASIS
    atoms 1 entry O          line   262 file /Users/joseantoniorodriguesromero/anaconda3/share/psi4/basis/cc-pvtz.gbs 
    atoms 2 entry C          line   186 file /Users/joseantoniorodriguesromero/anaconda3/share/psi4/basis/cc-pvtz.gbs 


         ---------------------------------------------------------
                                   SCF
               by Justin Turney, Rob Parrish, Andy Simmonett
                          and Daniel G. A. Smith
                              UKS Reference
                        1 Threads,    500 MiB Core
         ---------------------------------------------------------

  ==> Geometry <==

    Molecular point group: c2v
    Full point group: C_inf_v

    Geometry (in Angstrom), charge = 1, multiplicity = 2:

       Center              X                  Y                   Z               Mass       
    ------------   -----------------  -----------------  -----------------  -----------------
         O            0.000000000000     0.000000000000    -0.285478277344    15.994914619570
         C            0.000000000000     0.000000000000     0.380516722656    12.000000000000

  Running in c2v symmetry.

  Rotational constants: A = ************  B =      5.54333  C =      5.54333 [cm^-1]
  Rotational constants: A = ************  B = 166184.77638  C = 166184.77638 [MHz]
  Nuclear repulsion =   38.139184396519497

  Charge       = 1
  Multiplicity = 2
  Electrons    = 13
  Nalpha       = 7
  Nbeta        = 6

  ==> Algorithm <==

  SCF Algorithm Type is DF.
  DIIS enabled.
  MOM disabled.
  Fractional occupation disabled.
  Guess Type is READ.
  Energy threshold   = 1.00e-08
  Density threshold  = 1.00e-08
  Integral threshold = 1.00e-12

  ==> Primary Basis <==

  Basis Set: CC-PVTZ
    Blend: CC-PVTZ
    Number of shells: 20
    Number of basis functions: 60
    Number of Cartesian functions: 70
    Spherical Harmonics?: true
    Max angular momentum: 3

  ==> DFT Potential <==

   => LibXC <=

    Version 6.2.2
    S. Lehtola, C. Steigemann, M. J.T. Oliveira, and M. A.L. Marques.,  SoftwareX 7, 1–5 (2018) (10.1016/j.softx.2017.11.002)

   => Composite Functional: B3LYP <= 

    B3LYP Hyb-GGA Exchange-Correlation Functional

    P. J. Stephens, F. J. Devlin, C. F. Chabalowski, and M. J. Frisch.,  J. Phys. Chem. 98, 11623 (1994) (10.1021/j100096a001)

    Deriv               =              1
    GGA                 =           TRUE
    Meta                =          FALSE

    Exchange Hybrid     =           TRUE
    MP2 Hybrid          =          FALSE

   => Exchange Functionals <=

    0.0800   Slater exchange
    0.7200         Becke 88

   => Exact (HF) Exchange <=

    0.2000               HF 

   => Correlation Functionals <=

    0.1900   Vosko, Wilk & Nusair (VWN5_RPA)
    0.8100   Lee, Yang & Parr

   => LibXC Density Thresholds  <==

    XC_HYB_GGA_XC_B3LYP:  1.00E-15 

   => Molecular Quadrature <=

    Radial Scheme          =       TREUTLER
    Pruning Scheme         =           NONE
    Nuclear Scheme         =       TREUTLER

    Blocking Scheme        =         OCTREE
    BS radius alpha        =              1
    Pruning alpha          =              1
    Radial Points          =             75
    Spherical Points       =            302
    Total Points           =          43181
    Total Blocks           =            385
    Max Points             =            256
    Max Functions          =             60
    Weights Tolerance      =       1.00E-15

   => Loading Basis Set <=

    Name: (CC-PVTZ AUX)
    Role: JKFIT
    Keyword: DF_BASIS_SCF
    atoms 1 entry O          line   229 file /Users/joseantoniorodriguesromero/anaconda3/share/psi4/basis/cc-pvtz-jkfit.gbs 
    atoms 2 entry C          line   125 file /Users/joseantoniorodriguesromero/anaconda3/share/psi4/basis/cc-pvtz-jkfit.gbs 

   => Loading Basis Set <=

    Name: CC-PVTZ
    Role: ORBITAL
    Keyword: BASIS
    atoms 1 entry O          line   262 file /Users/joseantoniorodriguesromero/anaconda3/share/psi4/basis/cc-pvtz.gbs 
    atoms 2 entry C          line   186 file /Users/joseantoniorodriguesromero/anaconda3/share/psi4/basis/cc-pvtz.gbs 

  Reading orbitals from file /tmp/scan_CO_1.default.50461.180.npy, no projection.

  ==> Integral Setup <==

  DFHelper Memory: AOs need 0.005 GiB; user supplied 0.294 GiB. 
  Using in-core AOs.

  ==> MemDFJK: Density-Fitted J/K Matrices <==

    J tasked:                   Yes
    K tasked:                   Yes
    wK tasked:                   No
    OpenMP threads:               1
    Memory [MiB]:               301
    Algorithm:                 Core
    Schwarz Cutoff:           1E-12
    Mask sparsity (%):       0.0000
    Fitting Condition:        1E-10

   => Auxiliary Basis Set <=

  Basis Set: (CC-PVTZ AUX)
    Blend: CC-PVTZ-JKFIT
    Number of shells: 50
    Number of basis functions: 158
    Number of Cartesian functions: 192
    Spherical Harmonics?: true
    Max angular momentum: 4

  Cached 100.0% of DFT collocation blocks in 0.072 [GiB].

  Minimum eigenvalue in the overlap matrix is 1.9800379851E-03.
  Reciprocal condition number of the overlap matrix is 4.5728593865E-04.
    Using symmetric orthogonalization.

  ==> Pre-Iterations <==

  SCF Guess: Orbitals guess was supplied from a previous computation.

   -------------------------------------------------------
    Irrep   Nso     Nmo     Nalpha   Nbeta   Ndocc  Nsocc
   -------------------------------------------------------
     A1        26      26       5       4       4       1
     A2         6       6       0       0       0       0
     B1        14      14       1       1       1       0
     B2        14      14       1       1       1       0
   -------------------------------------------------------
    Total      60      60       7       6       6       1
   -------------------------------------------------------

  ==> Iterations <==

                           Total Energy        Delta E     RMS |[F,P]|

   @DF-UKS iter   0:  -111.19365856422479   -1.11194e+02   4.44774e-12 
   @DF-UKS iter   1:  -111.19365856422500   -2.13163e-13   4.62664e-12 DIIS
  Energy and wave function converged.


  ==> Post-Iterations <==

   Electrons on quadrature grid:
      Nalpha   =    7.0000001413 ; deviation = 1.413e-07
      Nbeta    =    6.0000001450 ; deviation = 1.450e-07
      Ntotal   =   13.0000002862 ; deviation = 2.862e-07 

   @Spin Contamination Metric:   2.170962136E-03
   @S^2 Expected:                7.500000000E-01
   @S^2 Observed:                7.521709621E-01
   @S   Expected:                5.000000000E-01
   @S   Observed:                5.000000000E-01

    Orbital Energies [Eh]
    ---------------------

    Alpha Occupied:                                                       

       1A1   -19.629476     2A1   -10.767612     3A1    -1.699534  
       1B2    -1.155176     1B1    -1.155176     4A1    -0.928563  
       5A1    -0.843798  

    Alpha Virtual:                                                        

       2B2    -0.191513     2B1    -0.191513     6A1    -0.095154  
       7A1    -0.028297     3B2    -0.011784     3B1    -0.011784  
       8A1     0.250974     9A1     0.263088     1A2     0.263088  
       4B2     0.326955     4B1     0.326955    10A1     0.529830  
       5B2     0.735159     5B1     0.735159    11A1     1.009532  
       6B2     1.203028     6B1     1.203028    12A1     1.293675  
       2A2     1.293675    13A1     1.373282    14A1     1.964902  
       7B2     1.983551     7B1     1.983551     8B2     2.197756  
       8B1     2.197756    15A1     2.358393     3A2     2.372496  
      16A1     2.372496     9B2     2.597758     9B1     2.597758  
      17A1     2.792374     4A2     2.812539    18A1     2.812539  
      10B1     3.702924    10B2     3.702924    11B2     3.872603  
      11B1     3.872603    19A1     4.162070    12B1     4.930800  
      12B2     4.930800    20A1     5.549174    21A1     5.818557  
       5A2     5.818558    22A1     6.248099     6A2     6.248099  
      13B2     6.298951    13B1     6.298951    23A1     6.382506  
      24A1     7.462253    14B2     7.591725    14B1     7.591725  
      25A1     9.887561    26A1    17.842864  

    Beta Occupied:                                                        

       1A1   -19.628180     2A1   -10.744438     3A1    -1.694269  
       1B2    -1.143136     1B1    -1.143136     4A1    -0.914247  

    Beta Virtual:                                                         

       5A1    -0.615197     2B2    -0.159324     2B1    -0.159324  
       6A1    -0.085758     7A1     0.007766     3B2     0.009659  
       3B1     0.009659     8A1     0.271238     1A2     0.280844  
       9A1     0.280844     4B2     0.339880     4B1     0.339880  
      10A1     0.570302     5B2     0.761844     5B1     0.761844  
      11A1     1.030153     6B2     1.222105     6B1     1.222105  
      12A1     1.296396     2A2     1.296396    13A1     1.420734  
      14A1     2.000261     7B2     2.015779     7B1     2.015779  
       8B2     2.229525     8B1     2.229525     3A2     2.445174  
      15A1     2.445174    16A1     2.445374     9B2     2.692609  
       9B1     2.692609     4A2     2.847377    17A1     2.847377  
      18A1     2.866750    10B1     3.704614    10B2     3.704614  
      11B2     3.917164    11B1     3.917164    19A1     4.179219  
      12B1     4.932327    12B2     4.932327    20A1     5.564405  
      21A1     5.816425     5A2     5.816426    22A1     6.261202  
       6A2     6.261202    13B2     6.309059    13B1     6.309059  
      23A1     6.392714    24A1     7.489235    14B2     7.611754  
      14B1     7.611754    25A1     9.907250    26A1    17.871052  

    Final Occupation by Irrep:
             A1    A2    B1    B2 
    DOCC [     4,    0,    1,    1 ]
    SOCC [     1,    0,    0,    0 ]
    NA   [     5,    0,    1,    1 ]
    NB   [     4,    0,    1,    1 ]

  @DF-UKS Final Energy:  -111.19365856422500

   => Energetics <=

    Nuclear Repulsion Energy =             38.1391843965194965
    One-Electron Energy =                -218.8360389048605725
    Two-Electron Energy =                  81.1890260924286054
    DFT Exchange-Correlation Energy =     -11.6858301483125437
    Empirical Dispersion Energy =           0.0000000000000000
    VV10 Nonlocal Energy =                  0.0000000000000000
    Total Energy =                       -111.1936585642250037

  UHF NO Occupations:
  HONO-2 :    1 B1 1.9995097
  HONO-1 :    1 B2 1.9995097
  HONO-0 :    5 A1 1.0000000
  LUNO+0 :    2 B2 0.0004903
  LUNO+1 :    2 B1 0.0004903
  LUNO+2 :    6 A1 0.0000979
  LUNO+3 :    7 A1 0.0000072


Computation Completed


Properties will be evaluated at   0.000000,   0.000000,   0.000000 [a0]

Properties computed using the B3LYP density matrix


 Multipole Moments:

 ------------------------------------------------------------------------------------
     Multipole            Electronic (a.u.)      Nuclear  (a.u.)        Total (a.u.)
 ------------------------------------------------------------------------------------

 L = 1.  Multiply by 2.5417464519 to convert [e a0] to [Debye]
 Dipole X            :          0.0000000            0.0000000            0.0000000
 Dipole Y            :          0.0000000            0.0000000            0.0000000
 Dipole Z            :          0.6635614           -0.0013717            0.6621896
 Magnitude           :                                                    0.6621896

 L = 2.  Multiply by 1.3450342976 to convert [e a0^2] to [Debye ang]
 Quadrupole XX       :         -4.8208259            0.0000000           -4.8208259
 Quadrupole XY       :          0.0000000            0.0000000            0.0000000
 Quadrupole XZ       :          0.0000000            0.0000000            0.0000000
 Quadrupole YY       :         -4.8208259            0.0000000           -4.8208259
 Quadrupole YZ       :          0.0000000            0.0000000            0.0000000
 Quadrupole ZZ       :        -10.1984179            5.4306634           -4.7677545
 Traceless XX        :          1.7925306           -1.8102211           -0.0176905
 Traceless YY        :          1.7925306           -1.8102211           -0.0176905
 Traceless ZZ        :         -3.5850613            3.6204423            0.0353810

 ------------------------------------------------------------------------------------
  ==> Computing MBIS Charges <==

  Electron Count from Grid (Expected Number): 13.00000 (13.00000)
  Difference: -0.00000

  MBIS Charges: (a.u.)
   Center  Symbol  Z      Pop.       Charge
      1       O    8    8.062710   -0.062710
      2       C    6    4.937289    1.062711

  MBIS Dipoles: [e a0]
   Center  Symbol  Z        X           Y           Z
      1       O    8   -0.000000   -0.000000   -0.142268
      2       C    6    0.000000    0.000000    0.006460

  MBIS Quadrupoles: [e a0^2]
   Center  Symbol  Z      XX        XY        XZ        YY        YZ        ZZ
      1       O    8   -2.8459    0.0000   -0.0000   -2.8459    0.0000   -3.1790
      2       C    6   -1.9749   -0.0000   -0.0000   -1.9749    0.0000   -2.2828

  MBIS Octupoles: [e a0^3]
   Center  Symbol  Z      XXX       XXY       XXZ       XYY       XYZ       XZZ       YYY       YYZ       YZZ       ZZZ
      1       O    8    0.0000   -0.0000   -0.0435   -0.0000    0.0000    0.0000   -0.0000   -0.0435   -0.0000    0.1392
      2       C    6   -0.0000    0.0000   -0.0973   -0.0000    0.0000    0.0000    0.0000   -0.0973    0.0000   -0.4422

  MBIS Radial Moments:
   Center  Symbol  Z      [a0^2]      [a0^3]      [a0^4]      
      1       O    8    8.870754   14.472647   28.385030
      2       C    6    6.232682   11.854213   27.263470

  MBIS Valence Widths: [a0]
   Center  Symbol  Z     Width
      1       O    8    0.338026
      2       C    6    0.393803

*** tstop() called on Mac.lan at Sun Aug 10 18:37:31 2025
Module time:
	user time   =       3.71 seconds =       0.06 minutes
	system time =       2.99 seconds =       0.05 minutes
	total time  =          1 seconds =       0.02 minutes
Total time:
	user time   =      17.77 seconds =       0.30 minutes
	system time =       5.47 seconds =       0.09 minutes
	total time  =          2 seconds =       0.03 minutes

    Psi4 stopped on: Sunday, 10 August 2025 06:37PM
    Psi4 wall time for execution: 0:00:02.25

*** Psi4 exiting successfully. Buy a developer a beer!
