
    -----------------------------------------------------------------------
          Psi4: An Open-Source Ab Initio Electronic Structure Package
                               Psi4 1.9.1 release

                         Git: Rev {} zzzzzzz 


    D. G. A. Smith, L. A. Burns, A. C. Simmonett, R. M. Parrish,
    M. C. Schieber, R. Galvelis, P. Kraus, H. Kruse, R. Di Remigio,
    A. Alenaizan, A. M. James, S. Lehtola, J. P. Misiewicz, M. Scheurer,
    R. A. Shaw, J. B. Schriber, Y. Xie, Z. L. Glick, D. A. Sirianni,
    J. S. O'Brien, J. M. Waldrop, A. Kumar, E. G. Hohenstein,
    B. P. Pritchard, B. R. Brooks, H. F. Schaefer III, A. Yu. Sokolov,
    K. Patkowski, A. E. DePrince III, U. Bozkaya, R. A. King,
    F. A. Evangelista, J. M. Turney, T. D. Crawford, C. D. Sherrill,
    J. Chem. Phys. 152(18) 184108 (2020). https://doi.org/10.1063/5.0006002

                            Additional Code Authors
    E. T. Seidl, C. L. Janssen, E. F. Valeev, M. L. Leininger,
    J. F. Gonthier, R. M. Richard, H. R. McAlexander, M. Saitow, X. Wang,
    P. Verma, M. H. Lechner, A. Jiang, S. Behnle, A. G. Heide,
    M. F. Herbst, and D. L. Poole

             Previous Authors, Complete List of Code Contributors,
                       and Citations for Specific Modules
    https://github.com/psi4/psi4/blob/master/codemeta.json
    https://github.com/psi4/psi4/graphs/contributors
    http://psicode.org/psi4manual/master/introduction.html#citing-psifour

    -----------------------------------------------------------------------


    Psi4 started on: Sunday, 10 August 2025 06:40PM

    Process ID: 50555
    Host:       Mac.lan
    PSIDATADIR: /Users/joseantoniorodriguesromero/anaconda3/share/psi4
    Memory:     500.0 MiB
    Threads:    1
    
  ==> Input File <==

--------------------------------------------------------------------------
molecule { 
1 1
O           0.000000           0.000000           0.000000
N           0.000000           0.000000           0.964479
}

set { 
basis              cc-pvtz
reference          uks
maxiter            500
DAMPING_PERCENTAGE 1
E_CONVERGENCE      1.0E-8
D_CONVERGENCE      1.0E-8
DIIS_MAX_VECS      400
MBIS_MAXITER       8000
guess              read
}

E, wfn = energy('b3lyp', restart_file='last_wfn', return_wfn=True)
properties('b3lyp','MBIS_CHARGES', wfn=wfn)
wfn.to_file('last_wfn')
--------------------------------------------------------------------------

Scratch directory: /tmp/
 Found user provided orbital data. Setting orbital guess to READ 
 Copying restart file <last_wfn.npy> to </tmp/scan_NO_18.default.50555.180.npy> for internal processing
   => Libint2 <=

    Primary   basis highest AM E, G, H:  6, 6, 3
    Auxiliary basis highest AM E, G, H:  7, 7, 4
    Onebody   basis highest AM E, G, H:  -, -, -
    Solid Harmonics ordering:            Gaussian

*** tstart() called on Mac.lan
*** at Sun Aug 10 18:40:13 2025

   => Loading Basis Set <=

    Name: CC-PVTZ
    Role: ORBITAL
    Keyword: BASIS
    atoms 1 entry O          line   262 file /Users/joseantoniorodriguesromero/anaconda3/share/psi4/basis/cc-pvtz.gbs 
    atoms 2 entry N          line   224 file /Users/joseantoniorodriguesromero/anaconda3/share/psi4/basis/cc-pvtz.gbs 


         ---------------------------------------------------------
                                   SCF
               by Justin Turney, Rob Parrish, Andy Simmonett
                          and Daniel G. A. Smith
                              UKS Reference
                        1 Threads,    500 MiB Core
         ---------------------------------------------------------

  ==> Geometry <==

    Molecular point group: c2v
    Full point group: C_inf_v

    Geometry (in Angstrom), charge = 1, multiplicity = 1:

       Center              X                  Y                   Z               Mass       
    ------------   -----------------  -----------------  -----------------  -----------------
         O            0.000000000000     0.000000000000    -0.450219212428    15.994914619570
         N            0.000000000000     0.000000000000     0.514259787572    14.003074004430

  Running in c2v symmetry.

  Rotational constants: A = ************  B =      2.42716  C =      2.42716 [cm^-1]
  Rotational constants: A = ************  B =  72764.31968  C =  72764.31968 [MHz]
  Nuclear repulsion =   30.725317811502372

  Charge       = 1
  Multiplicity = 1
  Electrons    = 14
  Nalpha       = 7
  Nbeta        = 7

  ==> Algorithm <==

  SCF Algorithm Type is DF.
  DIIS enabled.
  MOM disabled.
  Fractional occupation disabled.
  Guess Type is READ.
  Energy threshold   = 1.00e-08
  Density threshold  = 1.00e-08
  Integral threshold = 1.00e-12

  ==> Primary Basis <==

  Basis Set: CC-PVTZ
    Blend: CC-PVTZ
    Number of shells: 20
    Number of basis functions: 60
    Number of Cartesian functions: 70
    Spherical Harmonics?: true
    Max angular momentum: 3

  ==> DFT Potential <==

   => LibXC <=

    Version 6.2.2
    S. Lehtola, C. Steigemann, M. J.T. Oliveira, and M. A.L. Marques.,  SoftwareX 7, 1–5 (2018) (10.1016/j.softx.2017.11.002)

   => Composite Functional: B3LYP <= 

    B3LYP Hyb-GGA Exchange-Correlation Functional

    P. J. Stephens, F. J. Devlin, C. F. Chabalowski, and M. J. Frisch.,  J. Phys. Chem. 98, 11623 (1994) (10.1021/j100096a001)

    Deriv               =              1
    GGA                 =           TRUE
    Meta                =          FALSE

    Exchange Hybrid     =           TRUE
    MP2 Hybrid          =          FALSE

   => Exchange Functionals <=

    0.0800   Slater exchange
    0.7200         Becke 88

   => Exact (HF) Exchange <=

    0.2000               HF 

   => Correlation Functionals <=

    0.1900   Vosko, Wilk & Nusair (VWN5_RPA)
    0.8100   Lee, Yang & Parr

   => LibXC Density Thresholds  <==

    XC_HYB_GGA_XC_B3LYP:  1.00E-15 

   => Molecular Quadrature <=

    Radial Scheme          =       TREUTLER
    Pruning Scheme         =           NONE
    Nuclear Scheme         =       TREUTLER

    Blocking Scheme        =         OCTREE
    BS radius alpha        =              1
    Pruning alpha          =              1
    Radial Points          =             75
    Spherical Points       =            302
    Total Points           =          42688
    Total Blocks           =            379
    Max Points             =            255
    Max Functions          =             60
    Weights Tolerance      =       1.00E-15

   => Loading Basis Set <=

    Name: (CC-PVTZ AUX)
    Role: JKFIT
    Keyword: DF_BASIS_SCF
    atoms 1 entry O          line   229 file /Users/joseantoniorodriguesromero/anaconda3/share/psi4/basis/cc-pvtz-jkfit.gbs 
    atoms 2 entry N          line   177 file /Users/joseantoniorodriguesromero/anaconda3/share/psi4/basis/cc-pvtz-jkfit.gbs 

   => Loading Basis Set <=

    Name: CC-PVTZ
    Role: ORBITAL
    Keyword: BASIS
    atoms 1 entry O          line   262 file /Users/joseantoniorodriguesromero/anaconda3/share/psi4/basis/cc-pvtz.gbs 
    atoms 2 entry N          line   224 file /Users/joseantoniorodriguesromero/anaconda3/share/psi4/basis/cc-pvtz.gbs 

  Reading orbitals from file /tmp/scan_NO_18.default.50555.180.npy, no projection.

  ==> Integral Setup <==

  DFHelper Memory: AOs need 0.005 GiB; user supplied 0.295 GiB. 
  Using in-core AOs.

  ==> MemDFJK: Density-Fitted J/K Matrices <==

    J tasked:                   Yes
    K tasked:                   Yes
    wK tasked:                   No
    OpenMP threads:               1
    Memory [MiB]:               302
    Algorithm:                 Core
    Schwarz Cutoff:           1E-12
    Mask sparsity (%):       0.0000
    Fitting Condition:        1E-10

   => Auxiliary Basis Set <=

  Basis Set: (CC-PVTZ AUX)
    Blend: CC-PVTZ-JKFIT
    Number of shells: 50
    Number of basis functions: 158
    Number of Cartesian functions: 192
    Spherical Harmonics?: true
    Max angular momentum: 4

  Cached 100.0% of DFT collocation blocks in 0.071 [GiB].

  Minimum eigenvalue in the overlap matrix is 1.6724934032E-03.
  Reciprocal condition number of the overlap matrix is 4.0768176856E-04.
    Using symmetric orthogonalization.

  ==> Pre-Iterations <==

  SCF Guess: Orbitals guess was supplied from a previous computation.

   -------------------------------------------------------
    Irrep   Nso     Nmo     Nalpha   Nbeta   Ndocc  Nsocc
   -------------------------------------------------------
     A1        26      26       5       5       5       0
     A2         6       6       0       0       0       0
     B1        14      14       1       1       1       0
     B2        14      14       1       1       1       0
   -------------------------------------------------------
    Total      60      60       7       7       7       0
   -------------------------------------------------------

  ==> Iterations <==

                           Total Energy        Delta E     RMS |[F,P]|

   @DF-UKS iter   0:  -129.59039799815935   -1.29590e+02   3.94781e-03 
   @DF-UKS iter   1:  -129.55201410777829    3.83839e-02   7.07962e-04 DIIS/ADIIS
   @DF-UKS iter   2:  -129.55161262776181    4.01480e-04   1.32815e-03 DIIS/ADIIS/DAMP=1%
   @DF-UKS iter   3:  -129.55255242013922   -9.39792e-04   1.47081e-04 DIIS/ADIIS/DAMP=1%
   @DF-UKS iter   4:  -129.55225681238642    2.95608e-04   2.70711e-05 DIIS/DAMP=1%
   @DF-UKS iter   5:  -129.55220210933132    5.47031e-05   1.97550e-06 DIIS/DAMP=1%
   @DF-UKS iter   6:  -129.55220572175793   -3.61243e-06   9.30939e-08 DIIS/DAMP=1%
   @DF-UKS iter   7:  -129.55220408730565    1.63445e-06   1.14518e-08 DIIS/DAMP=1%
   @DF-UKS iter   8:  -129.55220410176361   -1.44580e-08   1.82078e-09 DIIS/DAMP=1%
   @DF-UKS iter   9:  -129.55220409565939    6.10422e-09   1.33755e-11 DIIS/DAMP=1%
  Energy and wave function converged.


  ==> Post-Iterations <==

   Electrons on quadrature grid:
      Nalpha   =    6.9999998925 ; deviation = -1.075e-07
      Nbeta    =    6.9999998925 ; deviation = -1.075e-07
      Ntotal   =   13.9999997850 ; deviation = -2.150e-07 

   @Spin Contamination Metric:  -1.776356839E-14
   @S^2 Expected:                0.000000000E+00
   @S^2 Observed:               -1.776356839E-14
   @S   Expected:                0.000000000E+00
   @S   Observed:                0.000000000E+00

    Orbital Energies [Eh]
    ---------------------

    Alpha Occupied:                                                       

       1A1   -19.763928     2A1   -14.932508     3A1    -1.873762  
       4A1    -1.087205     1B2    -1.045097     1B1    -1.045097  
       5A1    -0.923567  

    Alpha Virtual:                                                        

       2B1    -0.441990     2B2    -0.441990     6A1    -0.058064  
       3B2     0.067313     3B1     0.067313     7A1     0.120377  
       8A1     0.196626     4B2     0.287875     4B1     0.287875  
       9A1     0.461276    10A1     0.514742     1A2     0.514742  
      11A1     0.836908     5B2     0.845172     5B1     0.845172  
       2A2     1.192688    12A1     1.192688    13A1     1.465321  
       6B2     1.688248     6B1     1.688248    14A1     1.950143  
       7B2     2.358767     7B1     2.358767    15A1     2.721424  
      16A1     3.244830     8B1     3.278620     8B2     3.278620  
       9B1     3.315409     9B2     3.315409    17A1     3.398401  
       3A2     3.398401    10B2     3.678587    10B1     3.678587  
      18A1     3.933162     4A2     3.933163    19A1     4.144012  
      11B2     4.380889    11B1     4.380889    12B1     4.665863  
      12B2     4.665863    20A1     4.975857     5A2     5.513596  
      21A1     5.513596     6A2     5.713199    22A1     5.713204  
      13B2     6.112352    13B1     6.112352    23A1     6.258821  
      24A1     6.755070    14B2     7.214880    14B1     7.214880  
      25A1     7.795435    26A1    18.432904  

    Beta Occupied:                                                        

       1A1   -19.763928     2A1   -14.932508     3A1    -1.873762  
       4A1    -1.087205     1B2    -1.045097     1B1    -1.045097  
       5A1    -0.923567  

    Beta Virtual:                                                         

       2B2    -0.441990     2B1    -0.441990     6A1    -0.058064  
       3B2     0.067313     3B1     0.067313     7A1     0.120377  
       8A1     0.196626     4B2     0.287875     4B1     0.287875  
       9A1     0.461276    10A1     0.514742     1A2     0.514742  
      11A1     0.836908     5B2     0.845172     5B1     0.845172  
       2A2     1.192688    12A1     1.192688    13A1     1.465321  
       6B2     1.688248     6B1     1.688248    14A1     1.950143  
       7B2     2.358767     7B1     2.358767    15A1     2.721424  
      16A1     3.244830     8B1     3.278620     8B2     3.278620  
       9B1     3.315409     9B2     3.315409    17A1     3.398401  
       3A2     3.398401    10B2     3.678587    10B1     3.678587  
      18A1     3.933162     4A2     3.933163    19A1     4.144012  
      11B2     4.380889    11B1     4.380889    12B1     4.665863  
      12B2     4.665863    20A1     4.975857     5A2     5.513596  
      21A1     5.513596     6A2     5.713199    22A1     5.713204  
      13B2     6.112352    13B1     6.112352    23A1     6.258821  
      24A1     6.755070    14B2     7.214880    14B1     7.214880  
      25A1     7.795435    26A1    18.432904  

    Final Occupation by Irrep:
             A1    A2    B1    B2 
    DOCC [     5,    0,    1,    1 ]
    SOCC [     0,    0,    0,    0 ]
    NA   [     5,    0,    1,    1 ]
    NB   [     5,    0,    1,    1 ]

  @DF-UKS Final Energy:  -129.55220409565939

   => Energetics <=

    Nuclear Repulsion Energy =             30.7253178115023715
    One-Electron Energy =                -230.4156487944570699
    Two-Electron Energy =                  82.3803970388538715
    DFT Exchange-Correlation Energy =     -12.2422701515585697
    Empirical Dispersion Energy =           0.0000000000000000
    VV10 Nonlocal Energy =                  0.0000000000000000
    Total Energy =                       -129.5522040956593912

  UHF NO Occupations:
  HONO-2 :    1 B1 2.0000000
  HONO-1 :    1 B2 2.0000000
  HONO-0 :    5 A1 2.0000000
  LUNO+0 :    6 A1 0.0000000
  LUNO+1 :    7 A1 0.0000000
  LUNO+2 :    8 A1 0.0000000
  LUNO+3 :    9 A1 0.0000000


Computation Completed


Properties will be evaluated at   0.000000,   0.000000,   0.000000 [a0]

Properties computed using the SCF density matrix


 Multipole Moments:

 ------------------------------------------------------------------------------------
     Multipole            Electronic (a.u.)      Nuclear  (a.u.)        Total (a.u.)
 ------------------------------------------------------------------------------------

 L = 1.  Multiply by 2.5417464519 to convert [e a0] to [Debye]
 Dipole X            :          0.0000000            0.0000000            0.0000000
 Dipole Y            :          0.0000000            0.0000000            0.0000000
 Dipole Z            :          0.0752077           -0.0036570            0.0715507
 Magnitude           :                                                    0.0715507

 ------------------------------------------------------------------------------------

*** tstop() called on Mac.lan at Sun Aug 10 18:40:22 2025
Module time:
	user time   =      79.98 seconds =       1.33 minutes
	system time =       5.15 seconds =       0.09 minutes
	total time  =          9 seconds =       0.15 minutes
Total time:
	user time   =      79.98 seconds =       1.33 minutes
	system time =       5.15 seconds =       0.09 minutes
	total time  =          9 seconds =       0.15 minutes

*** tstart() called on Mac.lan
*** at Sun Aug 10 18:40:22 2025

   => Libint2 <=

    Primary   basis highest AM E, G, H:  6, 6, 3
    Auxiliary basis highest AM E, G, H:  7, 7, 4
    Onebody   basis highest AM E, G, H:  -, -, -
    Solid Harmonics ordering:            Gaussian
   => Loading Basis Set <=

    Name: CC-PVTZ
    Role: ORBITAL
    Keyword: BASIS
    atoms 1 entry O          line   262 file /Users/joseantoniorodriguesromero/anaconda3/share/psi4/basis/cc-pvtz.gbs 
    atoms 2 entry N          line   224 file /Users/joseantoniorodriguesromero/anaconda3/share/psi4/basis/cc-pvtz.gbs 


         ---------------------------------------------------------
                                   SCF
               by Justin Turney, Rob Parrish, Andy Simmonett
                          and Daniel G. A. Smith
                              UKS Reference
                        1 Threads,    500 MiB Core
         ---------------------------------------------------------

  ==> Geometry <==

    Molecular point group: c2v
    Full point group: C_inf_v

    Geometry (in Angstrom), charge = 1, multiplicity = 1:

       Center              X                  Y                   Z               Mass       
    ------------   -----------------  -----------------  -----------------  -----------------
         O            0.000000000000     0.000000000000    -0.450219212428    15.994914619570
         N            0.000000000000     0.000000000000     0.514259787572    14.003074004430

  Running in c2v symmetry.

  Rotational constants: A = ************  B =      2.42716  C =      2.42716 [cm^-1]
  Rotational constants: A = ************  B =  72764.31968  C =  72764.31968 [MHz]
  Nuclear repulsion =   30.725317811502372

  Charge       = 1
  Multiplicity = 1
  Electrons    = 14
  Nalpha       = 7
  Nbeta        = 7

  ==> Algorithm <==

  SCF Algorithm Type is DF.
  DIIS enabled.
  MOM disabled.
  Fractional occupation disabled.
  Guess Type is READ.
  Energy threshold   = 1.00e-08
  Density threshold  = 1.00e-08
  Integral threshold = 1.00e-12

  ==> Primary Basis <==

  Basis Set: CC-PVTZ
    Blend: CC-PVTZ
    Number of shells: 20
    Number of basis functions: 60
    Number of Cartesian functions: 70
    Spherical Harmonics?: true
    Max angular momentum: 3

  ==> DFT Potential <==

   => LibXC <=

    Version 6.2.2
    S. Lehtola, C. Steigemann, M. J.T. Oliveira, and M. A.L. Marques.,  SoftwareX 7, 1–5 (2018) (10.1016/j.softx.2017.11.002)

   => Composite Functional: B3LYP <= 

    B3LYP Hyb-GGA Exchange-Correlation Functional

    P. J. Stephens, F. J. Devlin, C. F. Chabalowski, and M. J. Frisch.,  J. Phys. Chem. 98, 11623 (1994) (10.1021/j100096a001)

    Deriv               =              1
    GGA                 =           TRUE
    Meta                =          FALSE

    Exchange Hybrid     =           TRUE
    MP2 Hybrid          =          FALSE

   => Exchange Functionals <=

    0.0800   Slater exchange
    0.7200         Becke 88

   => Exact (HF) Exchange <=

    0.2000               HF 

   => Correlation Functionals <=

    0.1900   Vosko, Wilk & Nusair (VWN5_RPA)
    0.8100   Lee, Yang & Parr

   => LibXC Density Thresholds  <==

    XC_HYB_GGA_XC_B3LYP:  1.00E-15 

   => Molecular Quadrature <=

    Radial Scheme          =       TREUTLER
    Pruning Scheme         =           NONE
    Nuclear Scheme         =       TREUTLER

    Blocking Scheme        =         OCTREE
    BS radius alpha        =              1
    Pruning alpha          =              1
    Radial Points          =             75
    Spherical Points       =            302
    Total Points           =          42688
    Total Blocks           =            379
    Max Points             =            255
    Max Functions          =             60
    Weights Tolerance      =       1.00E-15

   => Loading Basis Set <=

    Name: (CC-PVTZ AUX)
    Role: JKFIT
    Keyword: DF_BASIS_SCF
    atoms 1 entry O          line   229 file /Users/joseantoniorodriguesromero/anaconda3/share/psi4/basis/cc-pvtz-jkfit.gbs 
    atoms 2 entry N          line   177 file /Users/joseantoniorodriguesromero/anaconda3/share/psi4/basis/cc-pvtz-jkfit.gbs 

   => Loading Basis Set <=

    Name: CC-PVTZ
    Role: ORBITAL
    Keyword: BASIS
    atoms 1 entry O          line   262 file /Users/joseantoniorodriguesromero/anaconda3/share/psi4/basis/cc-pvtz.gbs 
    atoms 2 entry N          line   224 file /Users/joseantoniorodriguesromero/anaconda3/share/psi4/basis/cc-pvtz.gbs 

  Reading orbitals from file /tmp/scan_NO_18.default.50555.180.npy, no projection.

  ==> Integral Setup <==

  DFHelper Memory: AOs need 0.005 GiB; user supplied 0.295 GiB. 
  Using in-core AOs.

  ==> MemDFJK: Density-Fitted J/K Matrices <==

    J tasked:                   Yes
    K tasked:                   Yes
    wK tasked:                   No
    OpenMP threads:               1
    Memory [MiB]:               302
    Algorithm:                 Core
    Schwarz Cutoff:           1E-12
    Mask sparsity (%):       0.0000
    Fitting Condition:        1E-10

   => Auxiliary Basis Set <=

  Basis Set: (CC-PVTZ AUX)
    Blend: CC-PVTZ-JKFIT
    Number of shells: 50
    Number of basis functions: 158
    Number of Cartesian functions: 192
    Spherical Harmonics?: true
    Max angular momentum: 4

  Cached 100.0% of DFT collocation blocks in 0.071 [GiB].

  Minimum eigenvalue in the overlap matrix is 1.6724934032E-03.
  Reciprocal condition number of the overlap matrix is 4.0768176856E-04.
    Using symmetric orthogonalization.

  ==> Pre-Iterations <==

  SCF Guess: Orbitals guess was supplied from a previous computation.

   -------------------------------------------------------
    Irrep   Nso     Nmo     Nalpha   Nbeta   Ndocc  Nsocc
   -------------------------------------------------------
     A1        26      26       5       5       5       0
     A2         6       6       0       0       0       0
     B1        14      14       1       1       1       0
     B2        14      14       1       1       1       0
   -------------------------------------------------------
    Total      60      60       7       7       7       0
   -------------------------------------------------------

  ==> Iterations <==

                           Total Energy        Delta E     RMS |[F,P]|

   @DF-UKS iter   0:  -129.55220409583143   -1.29552e+02   1.41502e-11 
   @DF-UKS iter   1:  -129.55220409583094    4.83169e-13   3.11370e-11 DIIS
  Energy and wave function converged.


  ==> Post-Iterations <==

   Electrons on quadrature grid:
      Nalpha   =    6.9999998925 ; deviation = -1.075e-07
      Nbeta    =    6.9999998925 ; deviation = -1.075e-07
      Ntotal   =   13.9999997850 ; deviation = -2.150e-07 

   @Spin Contamination Metric:   5.329070518E-14
   @S^2 Expected:                0.000000000E+00
   @S^2 Observed:                5.329070518E-14
   @S   Expected:                0.000000000E+00
   @S   Observed:                0.000000000E+00

    Orbital Energies [Eh]
    ---------------------

    Alpha Occupied:                                                       

       1A1   -19.763928     2A1   -14.932508     3A1    -1.873762  
       4A1    -1.087205     1B2    -1.045097     1B1    -1.045097  
       5A1    -0.923567  

    Alpha Virtual:                                                        

       2B2    -0.441990     2B1    -0.441990     6A1    -0.058064  
       3B2     0.067313     3B1     0.067313     7A1     0.120377  
       8A1     0.196626     4B2     0.287875     4B1     0.287875  
       9A1     0.461276    10A1     0.514742     1A2     0.514742  
      11A1     0.836908     5B2     0.845172     5B1     0.845172  
       2A2     1.192688    12A1     1.192688    13A1     1.465321  
       6B2     1.688248     6B1     1.688248    14A1     1.950143  
       7B2     2.358767     7B1     2.358767    15A1     2.721424  
      16A1     3.244830     8B1     3.278620     8B2     3.278620  
       9B1     3.315409     9B2     3.315409    17A1     3.398401  
       3A2     3.398401    10B2     3.678587    10B1     3.678587  
      18A1     3.933162     4A2     3.933163    19A1     4.144012  
      11B2     4.380889    11B1     4.380889    12B1     4.665863  
      12B2     4.665863    20A1     4.975857     5A2     5.513596  
      21A1     5.513596     6A2     5.713199    22A1     5.713204  
      13B2     6.112352    13B1     6.112352    23A1     6.258821  
      24A1     6.755070    14B2     7.214880    14B1     7.214880  
      25A1     7.795435    26A1    18.432904  

    Beta Occupied:                                                        

       1A1   -19.763928     2A1   -14.932508     3A1    -1.873762  
       4A1    -1.087205     1B2    -1.045097     1B1    -1.045097  
       5A1    -0.923567  

    Beta Virtual:                                                         

       2B2    -0.441990     2B1    -0.441990     6A1    -0.058064  
       3B2     0.067313     3B1     0.067313     7A1     0.120377  
       8A1     0.196626     4B2     0.287875     4B1     0.287875  
       9A1     0.461276    10A1     0.514742     1A2     0.514742  
      11A1     0.836908     5B2     0.845172     5B1     0.845172  
       2A2     1.192688    12A1     1.192688    13A1     1.465321  
       6B2     1.688248     6B1     1.688248    14A1     1.950143  
       7B2     2.358767     7B1     2.358767    15A1     2.721424  
      16A1     3.244830     8B1     3.278620     8B2     3.278620  
       9B1     3.315409     9B2     3.315409    17A1     3.398401  
       3A2     3.398401    10B2     3.678587    10B1     3.678587  
      18A1     3.933162     4A2     3.933163    19A1     4.144012  
      11B2     4.380889    11B1     4.380889    12B1     4.665863  
      12B2     4.665863    20A1     4.975857     5A2     5.513596  
      21A1     5.513596     6A2     5.713199    22A1     5.713204  
      13B2     6.112352    13B1     6.112352    23A1     6.258821  
      24A1     6.755070    14B2     7.214880    14B1     7.214880  
      25A1     7.795435    26A1    18.432904  

    Final Occupation by Irrep:
             A1    A2    B1    B2 
    DOCC [     5,    0,    1,    1 ]
    SOCC [     0,    0,    0,    0 ]
    NA   [     5,    0,    1,    1 ]
    NB   [     5,    0,    1,    1 ]

  @DF-UKS Final Energy:  -129.55220409583094

   => Energetics <=

    Nuclear Repulsion Energy =             30.7253178115023715
    One-Electron Energy =                -230.4156487964983739
    Two-Electron Energy =                  82.3803970409819328
    DFT Exchange-Correlation Energy =     -12.2422701518168875
    Empirical Dispersion Energy =           0.0000000000000000
    VV10 Nonlocal Energy =                  0.0000000000000000
    Total Energy =                       -129.5522040958309447

  UHF NO Occupations:
  HONO-2 :    3 A1 2.0000000
  HONO-1 :    4 A1 2.0000000
  HONO-0 :    5 A1 2.0000000
  LUNO+0 :    6 A1 0.0000000
  LUNO+1 :    7 A1 0.0000000
  LUNO+2 :    8 A1 0.0000000
  LUNO+3 :    9 A1 0.0000000


Computation Completed


Properties will be evaluated at   0.000000,   0.000000,   0.000000 [a0]

Properties computed using the B3LYP density matrix


 Multipole Moments:

 ------------------------------------------------------------------------------------
     Multipole            Electronic (a.u.)      Nuclear  (a.u.)        Total (a.u.)
 ------------------------------------------------------------------------------------

 L = 1.  Multiply by 2.5417464519 to convert [e a0] to [Debye]
 Dipole X            :          0.0000000            0.0000000            0.0000000
 Dipole Y            :          0.0000000            0.0000000            0.0000000
 Dipole Z            :          0.0752077           -0.0036570            0.0715507
 Magnitude           :                                                    0.0715507

 L = 2.  Multiply by 1.3450342976 to convert [e a0^2] to [Debye ang]
 Quadrupole XX       :         -5.6340718            0.0000000           -5.6340718
 Quadrupole XY       :          0.0000000            0.0000000            0.0000000
 Quadrupole XZ       :          0.0000000            0.0000000            0.0000000
 Quadrupole YY       :         -5.6340718            0.0000000           -5.6340718
 Quadrupole YZ       :          0.0000000            0.0000000            0.0000000
 Quadrupole ZZ       :        -17.9582236           12.4016676           -5.5565561
 Traceless XX        :          4.1080506           -4.1338892           -0.0258386
 Traceless YY        :          4.1080506           -4.1338892           -0.0258386
 Traceless ZZ        :         -8.2161012            8.2677784            0.0516772

 ------------------------------------------------------------------------------------
  ==> Computing MBIS Charges <==

  Electron Count from Grid (Expected Number): 14.00000 (14.00000)
  Difference: -0.00000

  MBIS Charges: (a.u.)
   Center  Symbol  Z      Pop.       Charge
      1       O    8    7.591597    0.408403
      2       N    7    6.408403    0.591597

  MBIS Dipoles: [e a0]
   Center  Symbol  Z        X           Y           Z
      1       O    8   -0.000000    0.000000   -0.062106
      2       N    7    0.000000    0.000000   -0.093797

  MBIS Quadrupoles: [e a0^2]
   Center  Symbol  Z      XX        XY        XZ        YY        YZ        ZZ
      1       O    8   -2.8301   -0.0000   -0.0000   -2.8301   -0.0000   -3.0825
      2       N    7   -2.8040   -0.0000    0.0000   -2.8040    0.0000   -3.2517

  MBIS Octupoles: [e a0^3]
   Center  Symbol  Z      XXX       XXY       XXZ       XYY       XYZ       XZZ       YYY       YYZ       YZZ       ZZZ
      1       O    8    0.0000   -0.0000   -0.0266    0.0000    0.0000    0.0000   -0.0000   -0.0266    0.0000   -0.0770
      2       N    7    0.0000   -0.0000   -0.0465    0.0000   -0.0000    0.0000   -0.0000   -0.0465    0.0000   -0.1913

  MBIS Radial Moments:
   Center  Symbol  Z      [a0^2]      [a0^3]      [a0^4]      
      1       O    8    8.742704   14.608283   29.246063
      2       N    7    8.859701   16.534854   36.837941

  MBIS Valence Widths: [a0]
   Center  Symbol  Z     Width
      1       O    8    0.350742
      2       N    7    0.395239

*** tstop() called on Mac.lan at Sun Aug 10 18:40:24 2025
Module time:
	user time   =      17.40 seconds =       0.29 minutes
	system time =       2.89 seconds =       0.05 minutes
	total time  =          2 seconds =       0.03 minutes
Total time:
	user time   =      97.42 seconds =       1.62 minutes
	system time =       8.23 seconds =       0.14 minutes
	total time  =         11 seconds =       0.18 minutes

    Psi4 stopped on: Sunday, 10 August 2025 06:40PM
    Psi4 wall time for execution: 0:00:10.74

*** Psi4 exiting successfully. Buy a developer a beer!
