
    -----------------------------------------------------------------------
          Psi4: An Open-Source Ab Initio Electronic Structure Package
                               Psi4 1.9.1 release

                         Git: Rev {} zzzzzzz 


    D. G. A. Smith, L. A. Burns, A. C. Simmonett, R. M. Parrish,
    M. C. Schieber, R. Galvelis, P. Kraus, H. Kruse, R. Di Remigio,
    A. Alenaizan, A. M. James, S. Lehtola, J. P. Misiewicz, M. Scheurer,
    R. A. Shaw, J. B. Schriber, Y. Xie, Z. L. Glick, D. A. Sirianni,
    J. S. O'Brien, J. M. Waldrop, A. Kumar, E. G. Hohenstein,
    B. P. Pritchard, B. R. Brooks, H. F. Schaefer III, A. Yu. Sokolov,
    K. Patkowski, A. E. DePrince III, U. Bozkaya, R. A. King,
    F. A. Evangelista, J. M. Turney, T. D. Crawford, C. D. Sherrill,
    J. Chem. Phys. 152(18) 184108 (2020). https://doi.org/10.1063/5.0006002

                            Additional Code Authors
    E. T. Seidl, C. L. Janssen, E. F. Valeev, M. L. Leininger,
    J. F. Gonthier, R. M. Richard, H. R. McAlexander, M. Saitow, X. Wang,
    P. Verma, M. H. Lechner, A. Jiang, S. Behnle, A. G. Heide,
    M. F. Herbst, and D. L. Poole

             Previous Authors, Complete List of Code Contributors,
                       and Citations for Specific Modules
    https://github.com/psi4/psi4/blob/master/codemeta.json
    https://github.com/psi4/psi4/graphs/contributors
    http://psicode.org/psi4manual/master/introduction.html#citing-psifour

    -----------------------------------------------------------------------


    Psi4 started on: Sunday, 10 August 2025 06:28PM

    Process ID: 50170
    Host:       Mac.lan
    PSIDATADIR: /Users/joseantoniorodriguesromero/anaconda3/share/psi4
    Memory:     500.0 MiB
    Threads:    1
    
  ==> Input File <==

--------------------------------------------------------------------------
molecule { 
1 3
O           0.000000           0.000000           0.000000
H           0.000000           0.000000           0.870922
}

set { 
basis              cc-pvtz
reference          uks
maxiter            500
DAMPING_PERCENTAGE 1
E_CONVERGENCE      1.0E-8
D_CONVERGENCE      1.0E-8
DIIS_MAX_VECS      400
MBIS_MAXITER       8000
guess              read
}

E, wfn = energy('b3lyp', restart_file='last_wfn', return_wfn=True)
properties('b3lyp','MBIS_CHARGES', wfn=wfn)
wfn.to_file('last_wfn')
--------------------------------------------------------------------------

Scratch directory: /tmp/
 Found user provided orbital data. Setting orbital guess to READ 
 Copying restart file <last_wfn.npy> to </tmp/scan_HO_14.default.50170.180.npy> for internal processing
   => Libint2 <=

    Primary   basis highest AM E, G, H:  6, 6, 3
    Auxiliary basis highest AM E, G, H:  7, 7, 4
    Onebody   basis highest AM E, G, H:  -, -, -
    Solid Harmonics ordering:            Gaussian

*** tstart() called on Mac.lan
*** at Sun Aug 10 18:28:43 2025

   => Loading Basis Set <=

    Name: CC-PVTZ
    Role: ORBITAL
    Keyword: BASIS
    atoms 1 entry O          line   262 file /Users/joseantoniorodriguesromero/anaconda3/share/psi4/basis/cc-pvtz.gbs 
    atoms 2 entry H          line    23 file /Users/joseantoniorodriguesromero/anaconda3/share/psi4/basis/cc-pvtz.gbs 


         ---------------------------------------------------------
                                   SCF
               by Justin Turney, Rob Parrish, Andy Simmonett
                          and Daniel G. A. Smith
                              UKS Reference
                        1 Threads,    500 MiB Core
         ---------------------------------------------------------

  ==> Geometry <==

    Molecular point group: c2v
    Full point group: C_inf_v

    Geometry (in Angstrom), charge = 1, multiplicity = 3:

       Center              X                  Y                   Z               Mass       
    ------------   -----------------  -----------------  -----------------  -----------------
         O            0.000000000000     0.000000000000    -0.051623268408    15.994914619570
         H            0.000000000000     0.000000000000     0.819298731592     1.007825032230

  Running in c2v symmetry.

  Rotational constants: A = ************  B =     23.44174  C =     23.44174 [cm^-1]
  Rotational constants: A = ************  B = 702765.63179  C = 702765.63179 [MHz]
  Nuclear repulsion =    4.860845960212281

  Charge       = 1
  Multiplicity = 3
  Electrons    = 8
  Nalpha       = 5
  Nbeta        = 3

  ==> Algorithm <==

  SCF Algorithm Type is DF.
  DIIS enabled.
  MOM disabled.
  Fractional occupation disabled.
  Guess Type is READ.
  Energy threshold   = 1.00e-08
  Density threshold  = 1.00e-08
  Integral threshold = 1.00e-12

  ==> Primary Basis <==

  Basis Set: CC-PVTZ
    Blend: CC-PVTZ
    Number of shells: 16
    Number of basis functions: 44
    Number of Cartesian functions: 50
    Spherical Harmonics?: true
    Max angular momentum: 3

  ==> DFT Potential <==

   => LibXC <=

    Version 6.2.2
    S. Lehtola, C. Steigemann, M. J.T. Oliveira, and M. A.L. Marques.,  SoftwareX 7, 1–5 (2018) (10.1016/j.softx.2017.11.002)

   => Composite Functional: B3LYP <= 

    B3LYP Hyb-GGA Exchange-Correlation Functional

    P. J. Stephens, F. J. Devlin, C. F. Chabalowski, and M. J. Frisch.,  J. Phys. Chem. 98, 11623 (1994) (10.1021/j100096a001)

    Deriv               =              1
    GGA                 =           TRUE
    Meta                =          FALSE

    Exchange Hybrid     =           TRUE
    MP2 Hybrid          =          FALSE

   => Exchange Functionals <=

    0.0800   Slater exchange
    0.7200         Becke 88

   => Exact (HF) Exchange <=

    0.2000               HF 

   => Correlation Functionals <=

    0.1900   Vosko, Wilk & Nusair (VWN5_RPA)
    0.8100   Lee, Yang & Parr

   => LibXC Density Thresholds  <==

    XC_HYB_GGA_XC_B3LYP:  1.00E-15 

   => Molecular Quadrature <=

    Radial Scheme          =       TREUTLER
    Pruning Scheme         =           NONE
    Nuclear Scheme         =       TREUTLER

    Blocking Scheme        =         OCTREE
    BS radius alpha        =              1
    Pruning alpha          =              1
    Radial Points          =             75
    Spherical Points       =            302
    Total Points           =          44116
    Total Blocks           =            391
    Max Points             =            256
    Max Functions          =             44
    Weights Tolerance      =       1.00E-15

   => Loading Basis Set <=

    Name: (CC-PVTZ AUX)
    Role: JKFIT
    Keyword: DF_BASIS_SCF
    atoms 1 entry O          line   229 file /Users/joseantoniorodriguesromero/anaconda3/share/psi4/basis/cc-pvtz-jkfit.gbs 
    atoms 2 entry H          line    51 file /Users/joseantoniorodriguesromero/anaconda3/share/psi4/basis/cc-pvtz-jkfit.gbs 

   => Loading Basis Set <=

    Name: CC-PVTZ
    Role: ORBITAL
    Keyword: BASIS
    atoms 1 entry O          line   262 file /Users/joseantoniorodriguesromero/anaconda3/share/psi4/basis/cc-pvtz.gbs 
    atoms 2 entry H          line    23 file /Users/joseantoniorodriguesromero/anaconda3/share/psi4/basis/cc-pvtz.gbs 

  Reading orbitals from file /tmp/scan_HO_14.default.50170.180.npy, no projection.

  ==> Integral Setup <==

  DFHelper Memory: AOs need 0.002 GiB; user supplied 0.312 GiB. 
  Using in-core AOs.

  ==> MemDFJK: Density-Fitted J/K Matrices <==

    J tasked:                   Yes
    K tasked:                   Yes
    wK tasked:                   No
    OpenMP threads:               1
    Memory [MiB]:               319
    Algorithm:                 Core
    Schwarz Cutoff:           1E-12
    Mask sparsity (%):       0.0000
    Fitting Condition:        1E-10

   => Auxiliary Basis Set <=

  Basis Set: (CC-PVTZ AUX)
    Blend: CC-PVTZ-JKFIT
    Number of shells: 35
    Number of basis functions: 109
    Number of Cartesian functions: 131
    Spherical Harmonics?: true
    Max angular momentum: 4

  Cached 100.0% of DFT collocation blocks in 0.055 [GiB].

  Minimum eigenvalue in the overlap matrix is 2.8791335371E-03.
  Reciprocal condition number of the overlap matrix is 7.0962789292E-04.
    Using symmetric orthogonalization.

  ==> Pre-Iterations <==

  SCF Guess: Orbitals guess was supplied from a previous computation.

   -------------------------------------------------------
    Irrep   Nso     Nmo     Nalpha   Nbeta   Ndocc  Nsocc
   -------------------------------------------------------
     A1        20      20       3       3       3       0
     A2         4       4       0       0       0       0
     B1        10      10       1       0       0       1
     B2        10      10       1       0       0       1
   -------------------------------------------------------
    Total      44      44       5       3       3       2
   -------------------------------------------------------

  ==> Iterations <==

                           Total Energy        Delta E     RMS |[F,P]|

   @DF-UKS iter   0:   -75.26884423350410   -7.52688e+01   2.23752e-03 
   @DF-UKS iter   1:   -75.25616311900147    1.26811e-02   2.42326e-04 ADIIS/DIIS
   @DF-UKS iter   2:   -75.25617236175036   -9.24275e-06   1.07372e-04 ADIIS/DIIS/DAMP=1%
   @DF-UKS iter   3:   -75.25622433006832   -5.19683e-05   2.16451e-05 DIIS/DAMP=1%
   @DF-UKS iter   4:   -75.25616500851930    5.93215e-05   2.70760e-06 DIIS/DAMP=1%
   @DF-UKS iter   5:   -75.25617551029143   -1.05018e-05   2.68464e-07 DIIS/DAMP=1%
   @DF-UKS iter   6:   -75.25617427436815    1.23592e-06   4.52336e-08 DIIS/DAMP=1%
   @DF-UKS iter   7:   -75.25617436520234   -9.08342e-08   2.68467e-09 DIIS/DAMP=1%
   @DF-UKS iter   8:   -75.25617435591286    9.28948e-09   1.99383e-10 DIIS/DAMP=1%
  Energy and wave function converged.


  ==> Post-Iterations <==

   Electrons on quadrature grid:
      Nalpha   =    4.9999999773 ; deviation = -2.268e-08
      Nbeta    =    2.9999999839 ; deviation = -1.611e-08
      Ntotal   =    7.9999999612 ; deviation = -3.880e-08 

   @Spin Contamination Metric:   3.745019981E-03
   @S^2 Expected:                2.000000000E+00
   @S^2 Observed:                2.003745020E+00
   @S   Expected:                1.000000000E+00
   @S   Observed:                1.000000000E+00

    Orbital Energies [Eh]
    ---------------------

    Alpha Occupied:                                                       

       1A1   -19.831074     2A1    -1.627877     3A1    -1.026530  
       1B1    -0.971911     1B2    -0.971911  

    Alpha Virtual:                                                        

       4A1    -0.267444     5A1     0.049094     2B1     0.134966  
       2B2     0.134966     6A1     0.150470     3B2     0.327236  
       3B1     0.327236     7A1     0.441881     8A1     0.906192  
       1A2     0.906192     9A1     0.971441     4B2     1.325405  
       4B1     1.325405    10A1     1.403491    11A1     2.051000  
       2A2     2.775235    12A1     2.775235     5B1     2.853266  
       5B2     2.853266     6B2     3.121132     6B1     3.121132  
      13A1     3.336341     7B1     3.690433     7B2     3.690433  
      14A1     3.956494    15A1     4.335351     8B1     4.480633  
       8B2     4.480633    16A1     4.919050     3A2     4.919050  
       4A2     5.509618    17A1     5.509619     9B1     5.766373  
       9B2     5.766373    18A1     6.112346    10B1     6.402982  
      10B2     6.402982    19A1     6.625931    20A1    10.600856  

    Beta Occupied:                                                        

       1A1   -19.775138     2A1    -1.481891     3A1    -0.966583  

    Beta Virtual:                                                         

       1B1    -0.667823     1B2    -0.667823     4A1    -0.252777  
       5A1     0.063495     6A1     0.162357     2B2     0.204608  
       2B1     0.204608     3B2     0.343280     3B1     0.343280  
       7A1     0.487569     8A1     0.998183     9A1     1.018219  
       1A2     1.018219     4B2     1.378259     4B1     1.378259  
      10A1     1.434866    11A1     2.066760     2A2     2.794456  
      12A1     2.794456     5B2     2.936207     5B1     2.936207  
       6B1     3.179519     6B2     3.179519    13A1     3.348477  
       7B1     3.728494     7B2     3.728494    14A1     4.015887  
      15A1     4.395555     8B1     4.633087     8B2     4.633087  
      16A1     5.015896     3A2     5.015896    17A1     5.720720  
       4A2     5.720720     9B1     5.870641     9B2     5.870641  
      18A1     6.162273    10B1     6.465343    10B2     6.465343  
      19A1     6.675071    20A1    10.669419  

    Final Occupation by Irrep:
             A1    A2    B1    B2 
    DOCC [     3,    0,    0,    0 ]
    SOCC [     0,    0,    1,    1 ]
    NA   [     3,    0,    1,    1 ]
    NB   [     3,    0,    0,    0 ]

  @DF-UKS Final Energy:   -75.25617435591286

   => Energetics <=

    Nuclear Repulsion Energy =              4.8608459602122807
    One-Electron Energy =                -108.6076989382590057
    Two-Electron Energy =                  35.4118311296883590
    DFT Exchange-Correlation Energy =      -6.9211525075545017
    Empirical Dispersion Energy =           0.0000000000000000
    VV10 Nonlocal Energy =                  0.0000000000000000
    Total Energy =                        -75.2561743559128615

  UHF NO Occupations:
  HONO-2 :    3 A1 1.9985586
  HONO-1 :    1 B1 1.0000000
  HONO-0 :    1 B2 1.0000000
  LUNO+0 :    4 A1 0.0014414
  LUNO+1 :    5 A1 0.0004308
  LUNO+2 :    6 A1 0.0000015
  LUNO+3 :    7 A1 0.0000000


Computation Completed


Properties will be evaluated at   0.000000,   0.000000,   0.000000 [a0]

Properties computed using the SCF density matrix


 Multipole Moments:

 ------------------------------------------------------------------------------------
     Multipole            Electronic (a.u.)      Nuclear  (a.u.)        Total (a.u.)
 ------------------------------------------------------------------------------------

 L = 1.  Multiply by 2.5417464519 to convert [e a0] to [Debye]
 Dipole X            :          0.0000000            0.0000000            0.0000000
 Dipole Y            :          0.0000000            0.0000000            0.0000000
 Dipole Z            :         -0.0122137            0.7678195            0.7556058
 Magnitude           :                                                    0.7556058

 ------------------------------------------------------------------------------------

*** tstop() called on Mac.lan at Sun Aug 10 18:28:44 2025
Module time:
	user time   =       7.71 seconds =       0.13 minutes
	system time =       1.99 seconds =       0.03 minutes
	total time  =          1 seconds =       0.02 minutes
Total time:
	user time   =       7.71 seconds =       0.13 minutes
	system time =       1.99 seconds =       0.03 minutes
	total time  =          1 seconds =       0.02 minutes

*** tstart() called on Mac.lan
*** at Sun Aug 10 18:28:44 2025

   => Libint2 <=

    Primary   basis highest AM E, G, H:  6, 6, 3
    Auxiliary basis highest AM E, G, H:  7, 7, 4
    Onebody   basis highest AM E, G, H:  -, -, -
    Solid Harmonics ordering:            Gaussian
   => Loading Basis Set <=

    Name: CC-PVTZ
    Role: ORBITAL
    Keyword: BASIS
    atoms 1 entry O          line   262 file /Users/joseantoniorodriguesromero/anaconda3/share/psi4/basis/cc-pvtz.gbs 
    atoms 2 entry H          line    23 file /Users/joseantoniorodriguesromero/anaconda3/share/psi4/basis/cc-pvtz.gbs 


         ---------------------------------------------------------
                                   SCF
               by Justin Turney, Rob Parrish, Andy Simmonett
                          and Daniel G. A. Smith
                              UKS Reference
                        1 Threads,    500 MiB Core
         ---------------------------------------------------------

  ==> Geometry <==

    Molecular point group: c2v
    Full point group: C_inf_v

    Geometry (in Angstrom), charge = 1, multiplicity = 3:

       Center              X                  Y                   Z               Mass       
    ------------   -----------------  -----------------  -----------------  -----------------
         O            0.000000000000     0.000000000000    -0.051623268408    15.994914619570
         H            0.000000000000     0.000000000000     0.819298731592     1.007825032230

  Running in c2v symmetry.

  Rotational constants: A = ************  B =     23.44174  C =     23.44174 [cm^-1]
  Rotational constants: A = ************  B = 702765.63179  C = 702765.63179 [MHz]
  Nuclear repulsion =    4.860845960212281

  Charge       = 1
  Multiplicity = 3
  Electrons    = 8
  Nalpha       = 5
  Nbeta        = 3

  ==> Algorithm <==

  SCF Algorithm Type is DF.
  DIIS enabled.
  MOM disabled.
  Fractional occupation disabled.
  Guess Type is READ.
  Energy threshold   = 1.00e-08
  Density threshold  = 1.00e-08
  Integral threshold = 1.00e-12

  ==> Primary Basis <==

  Basis Set: CC-PVTZ
    Blend: CC-PVTZ
    Number of shells: 16
    Number of basis functions: 44
    Number of Cartesian functions: 50
    Spherical Harmonics?: true
    Max angular momentum: 3

  ==> DFT Potential <==

   => LibXC <=

    Version 6.2.2
    S. Lehtola, C. Steigemann, M. J.T. Oliveira, and M. A.L. Marques.,  SoftwareX 7, 1–5 (2018) (10.1016/j.softx.2017.11.002)

   => Composite Functional: B3LYP <= 

    B3LYP Hyb-GGA Exchange-Correlation Functional

    P. J. Stephens, F. J. Devlin, C. F. Chabalowski, and M. J. Frisch.,  J. Phys. Chem. 98, 11623 (1994) (10.1021/j100096a001)

    Deriv               =              1
    GGA                 =           TRUE
    Meta                =          FALSE

    Exchange Hybrid     =           TRUE
    MP2 Hybrid          =          FALSE

   => Exchange Functionals <=

    0.0800   Slater exchange
    0.7200         Becke 88

   => Exact (HF) Exchange <=

    0.2000               HF 

   => Correlation Functionals <=

    0.1900   Vosko, Wilk & Nusair (VWN5_RPA)
    0.8100   Lee, Yang & Parr

   => LibXC Density Thresholds  <==

    XC_HYB_GGA_XC_B3LYP:  1.00E-15 

   => Molecular Quadrature <=

    Radial Scheme          =       TREUTLER
    Pruning Scheme         =           NONE
    Nuclear Scheme         =       TREUTLER

    Blocking Scheme        =         OCTREE
    BS radius alpha        =              1
    Pruning alpha          =              1
    Radial Points          =             75
    Spherical Points       =            302
    Total Points           =          44116
    Total Blocks           =            391
    Max Points             =            256
    Max Functions          =             44
    Weights Tolerance      =       1.00E-15

   => Loading Basis Set <=

    Name: (CC-PVTZ AUX)
    Role: JKFIT
    Keyword: DF_BASIS_SCF
    atoms 1 entry O          line   229 file /Users/joseantoniorodriguesromero/anaconda3/share/psi4/basis/cc-pvtz-jkfit.gbs 
    atoms 2 entry H          line    51 file /Users/joseantoniorodriguesromero/anaconda3/share/psi4/basis/cc-pvtz-jkfit.gbs 

   => Loading Basis Set <=

    Name: CC-PVTZ
    Role: ORBITAL
    Keyword: BASIS
    atoms 1 entry O          line   262 file /Users/joseantoniorodriguesromero/anaconda3/share/psi4/basis/cc-pvtz.gbs 
    atoms 2 entry H          line    23 file /Users/joseantoniorodriguesromero/anaconda3/share/psi4/basis/cc-pvtz.gbs 

  Reading orbitals from file /tmp/scan_HO_14.default.50170.180.npy, no projection.

  ==> Integral Setup <==

  DFHelper Memory: AOs need 0.002 GiB; user supplied 0.312 GiB. 
  Using in-core AOs.

  ==> MemDFJK: Density-Fitted J/K Matrices <==

    J tasked:                   Yes
    K tasked:                   Yes
    wK tasked:                   No
    OpenMP threads:               1
    Memory [MiB]:               319
    Algorithm:                 Core
    Schwarz Cutoff:           1E-12
    Mask sparsity (%):       0.0000
    Fitting Condition:        1E-10

   => Auxiliary Basis Set <=

  Basis Set: (CC-PVTZ AUX)
    Blend: CC-PVTZ-JKFIT
    Number of shells: 35
    Number of basis functions: 109
    Number of Cartesian functions: 131
    Spherical Harmonics?: true
    Max angular momentum: 4

  Cached 100.0% of DFT collocation blocks in 0.055 [GiB].

  Minimum eigenvalue in the overlap matrix is 2.8791335371E-03.
  Reciprocal condition number of the overlap matrix is 7.0962789292E-04.
    Using symmetric orthogonalization.

  ==> Pre-Iterations <==

  SCF Guess: Orbitals guess was supplied from a previous computation.

   -------------------------------------------------------
    Irrep   Nso     Nmo     Nalpha   Nbeta   Ndocc  Nsocc
   -------------------------------------------------------
     A1        20      20       3       3       3       0
     A2         4       4       0       0       0       0
     B1        10      10       1       0       0       1
     B2        10      10       1       0       0       1
   -------------------------------------------------------
    Total      44      44       5       3       3       2
   -------------------------------------------------------

  ==> Iterations <==

                           Total Energy        Delta E     RMS |[F,P]|

   @DF-UKS iter   0:   -75.25617435599199   -7.52562e+01   1.85952e-11 
   @DF-UKS iter   1:   -75.25617435599187    1.13687e-13   4.25644e-12 DIIS
  Energy and wave function converged.


  ==> Post-Iterations <==

   Electrons on quadrature grid:
      Nalpha   =    4.9999999773 ; deviation = -2.268e-08
      Nbeta    =    2.9999999839 ; deviation = -1.611e-08
      Ntotal   =    7.9999999612 ; deviation = -3.880e-08 

   @Spin Contamination Metric:   3.745019985E-03
   @S^2 Expected:                2.000000000E+00
   @S^2 Observed:                2.003745020E+00
   @S   Expected:                1.000000000E+00
   @S   Observed:                1.000000000E+00

    Orbital Energies [Eh]
    ---------------------

    Alpha Occupied:                                                       

       1A1   -19.831074     2A1    -1.627877     3A1    -1.026530  
       1B1    -0.971911     1B2    -0.971911  

    Alpha Virtual:                                                        

       4A1    -0.267444     5A1     0.049094     2B2     0.134966  
       2B1     0.134966     6A1     0.150470     3B2     0.327236  
       3B1     0.327236     7A1     0.441881     8A1     0.906192  
       1A2     0.906192     9A1     0.971441     4B2     1.325405  
       4B1     1.325405    10A1     1.403491    11A1     2.051000  
       2A2     2.775235    12A1     2.775235     5B1     2.853266  
       5B2     2.853266     6B2     3.121132     6B1     3.121132  
      13A1     3.336341     7B1     3.690433     7B2     3.690433  
      14A1     3.956494    15A1     4.335351     8B1     4.480633  
       8B2     4.480633    16A1     4.919050     3A2     4.919050  
       4A2     5.509618    17A1     5.509619     9B1     5.766373  
       9B2     5.766373    18A1     6.112346    10B1     6.402982  
      10B2     6.402982    19A1     6.625931    20A1    10.600856  

    Beta Occupied:                                                        

       1A1   -19.775138     2A1    -1.481891     3A1    -0.966583  

    Beta Virtual:                                                         

       1B1    -0.667823     1B2    -0.667823     4A1    -0.252777  
       5A1     0.063495     6A1     0.162357     2B2     0.204608  
       2B1     0.204608     3B2     0.343280     3B1     0.343280  
       7A1     0.487569     8A1     0.998183     9A1     1.018219  
       1A2     1.018219     4B2     1.378259     4B1     1.378259  
      10A1     1.434866    11A1     2.066760     2A2     2.794456  
      12A1     2.794456     5B2     2.936207     5B1     2.936207  
       6B1     3.179519     6B2     3.179519    13A1     3.348477  
       7B1     3.728494     7B2     3.728494    14A1     4.015887  
      15A1     4.395555     8B1     4.633087     8B2     4.633087  
      16A1     5.015896     3A2     5.015896    17A1     5.720720  
       4A2     5.720720     9B1     5.870641     9B2     5.870641  
      18A1     6.162273    10B1     6.465343    10B2     6.465343  
      19A1     6.675071    20A1    10.669419  

    Final Occupation by Irrep:
             A1    A2    B1    B2 
    DOCC [     3,    0,    0,    0 ]
    SOCC [     0,    0,    1,    1 ]
    NA   [     3,    0,    1,    1 ]
    NB   [     3,    0,    0,    0 ]

  @DF-UKS Final Energy:   -75.25617435599187

   => Energetics <=

    Nuclear Repulsion Energy =              4.8608459602122807
    One-Electron Energy =                -108.6076989406664381
    Two-Electron Energy =                  35.4118311323734929
    DFT Exchange-Correlation Energy =      -6.9211525079112306
    Empirical Dispersion Energy =           0.0000000000000000
    VV10 Nonlocal Energy =                  0.0000000000000000
    Total Energy =                        -75.2561743559918881

  UHF NO Occupations:
  HONO-2 :    3 A1 1.9985586
  HONO-1 :    1 B1 1.0000000
  HONO-0 :    1 B2 1.0000000
  LUNO+0 :    4 A1 0.0014414
  LUNO+1 :    5 A1 0.0004308
  LUNO+2 :    6 A1 0.0000015
  LUNO+3 :    7 A1 0.0000000


Computation Completed


Properties will be evaluated at   0.000000,   0.000000,   0.000000 [a0]

Properties computed using the B3LYP density matrix


 Multipole Moments:

 ------------------------------------------------------------------------------------
     Multipole            Electronic (a.u.)      Nuclear  (a.u.)        Total (a.u.)
 ------------------------------------------------------------------------------------

 L = 1.  Multiply by 2.5417464519 to convert [e a0] to [Debye]
 Dipole X            :          0.0000000            0.0000000            0.0000000
 Dipole Y            :          0.0000000            0.0000000            0.0000000
 Dipole Z            :         -0.0122137            0.7678195            0.7556058
 Magnitude           :                                                    0.7556058

 L = 2.  Multiply by 1.3450342976 to convert [e a0^2] to [Debye ang]
 Quadrupole XX       :         -2.9457022            0.0000000           -2.9457022
 Quadrupole XY       :          0.0000000            0.0000000            0.0000000
 Quadrupole XZ       :          0.0000000            0.0000000            0.0000000
 Quadrupole YY       :         -2.9457022            0.0000000           -2.9457022
 Quadrupole YZ       :          0.0000000            0.0000000            0.0000000
 Quadrupole ZZ       :         -4.5247712            2.4732127           -2.0515585
 Traceless XX        :          0.5263563           -0.8244042           -0.2980479
 Traceless YY        :          0.5263563           -0.8244042           -0.2980479
 Traceless ZZ        :         -1.0527127            1.6488085            0.5960958

 ------------------------------------------------------------------------------------
  ==> Computing MBIS Charges <==

  Electron Count from Grid (Expected Number):  8.00000 ( 8.00000)
  Difference: -0.00000

  MBIS Charges: (a.u.)
   Center  Symbol  Z      Pop.       Charge
      1       O    8    7.482943    0.517057
      2       H    1    0.517057    0.482943

  MBIS Dipoles: [e a0]
   Center  Symbol  Z        X           Y           Z
      1       O    8   -0.000000    0.000000    0.017940
      2       H    1    0.000000    0.000000    0.040391

  MBIS Quadrupoles: [e a0^2]
   Center  Symbol  Z      XX        XY        XZ        YY        YZ        ZZ
      1       O    8   -2.7687    0.0000    0.0000   -2.7687    0.0000   -3.1625
      2       H    1   -0.1770   -0.0000    0.0000   -0.1770    0.0000   -0.1732

  MBIS Octupoles: [e a0^3]
   Center  Symbol  Z      XXX       XXY       XXZ       XYY       XYZ       XZZ       YYY       YYZ       YZZ       ZZZ
      1       O    8   -0.0000   -0.0000    0.0298   -0.0000    0.0000   -0.0000   -0.0000    0.0298    0.0000    0.0308
      2       H    1    0.0000    0.0000    0.0046   -0.0000    0.0000    0.0000    0.0000    0.0046   -0.0000    0.0188

  MBIS Radial Moments:
   Center  Symbol  Z      [a0^2]      [a0^3]      [a0^4]      
      1       O    8    8.699994   14.653407   29.591245
      2       H    1    0.527112    0.754774    1.296550

  MBIS Valence Widths: [a0]
   Center  Symbol  Z     Width
      1       O    8    0.353593
      2       H    1    0.294760

*** tstop() called on Mac.lan at Sun Aug 10 18:28:44 2025
Module time:
	user time   =       3.17 seconds =       0.05 minutes
	system time =       2.43 seconds =       0.04 minutes
	total time  =          0 seconds =       0.00 minutes
Total time:
	user time   =      10.99 seconds =       0.18 minutes
	system time =       4.52 seconds =       0.08 minutes
	total time  =          1 seconds =       0.02 minutes

    Psi4 stopped on: Sunday, 10 August 2025 06:28PM
    Psi4 wall time for execution: 0:00:01.51

*** Psi4 exiting successfully. Buy a developer a beer!
