
    -----------------------------------------------------------------------
          Psi4: An Open-Source Ab Initio Electronic Structure Package
                               Psi4 1.9.1 release

                         Git: Rev {} zzzzzzz 


    D. G. A. Smith, L. A. Burns, A. C. Simmonett, R. M. Parrish,
    M. C. Schieber, R. Galvelis, P. Kraus, H. Kruse, R. Di Remigio,
    A. Alenaizan, A. M. James, S. Lehtola, J. P. Misiewicz, M. Scheurer,
    R. A. Shaw, J. B. Schriber, Y. Xie, Z. L. Glick, D. A. Sirianni,
    J. S. O'Brien, J. M. Waldrop, A. Kumar, E. G. Hohenstein,
    B. P. Pritchard, B. R. Brooks, H. F. Schaefer III, A. Yu. Sokolov,
    K. Patkowski, A. E. DePrince III, U. Bozkaya, R. A. King,
    F. A. Evangelista, J. M. Turney, T. D. Crawford, C. D. Sherrill,
    J. Chem. Phys. 152(18) 184108 (2020). https://doi.org/10.1063/5.0006002

                            Additional Code Authors
    E. T. Seidl, C. L. Janssen, E. F. Valeev, M. L. Leininger,
    J. F. Gonthier, R. M. Richard, H. R. McAlexander, M. Saitow, X. Wang,
    P. Verma, M. H. Lechner, A. Jiang, S. Behnle, A. G. Heide,
    M. F. Herbst, and D. L. Poole

             Previous Authors, Complete List of Code Contributors,
                       and Citations for Specific Modules
    https://github.com/psi4/psi4/blob/master/codemeta.json
    https://github.com/psi4/psi4/graphs/contributors
    http://psicode.org/psi4manual/master/introduction.html#citing-psifour

    -----------------------------------------------------------------------


    Psi4 started on: Sunday, 10 August 2025 06:14PM

    Process ID: 49853
    Host:       Mac.lan
    PSIDATADIR: /Users/joseantoniorodriguesromero/anaconda3/share/psi4
    Memory:     500.0 MiB
    Threads:    1
    
  ==> Input File <==

--------------------------------------------------------------------------
molecule { 
1 2
O           0.000000           0.000000           0.000000
O           0.000000           0.000000           1.578190
}

set { 
basis              cc-pvtz
reference          uks
maxiter            500
DAMPING_PERCENTAGE 1
E_CONVERGENCE      1.0E-8
D_CONVERGENCE      1.0E-8
DIIS_MAX_VECS      400
MBIS_MAXITER       8000
guess              read
}

E, wfn = energy('b3lyp', restart_file='last_wfn', return_wfn=True)
properties('b3lyp','MBIS_CHARGES', wfn=wfn)
wfn.to_file('last_wfn')
--------------------------------------------------------------------------

Scratch directory: /tmp/
 Found user provided orbital data. Setting orbital guess to READ 
 Copying restart file <last_wfn.npy> to </tmp/scan_OO_46.default.49853.180.npy> for internal processing
   => Libint2 <=

    Primary   basis highest AM E, G, H:  6, 6, 3
    Auxiliary basis highest AM E, G, H:  7, 7, 4
    Onebody   basis highest AM E, G, H:  -, -, -
    Solid Harmonics ordering:            Gaussian

*** tstart() called on Mac.lan
*** at Sun Aug 10 18:14:13 2025

   => Loading Basis Set <=

    Name: CC-PVTZ
    Role: ORBITAL
    Keyword: BASIS
    atoms 1-2 entry O          line   262 file /Users/joseantoniorodriguesromero/anaconda3/share/psi4/basis/cc-pvtz.gbs 


         ---------------------------------------------------------
                                   SCF
               by Justin Turney, Rob Parrish, Andy Simmonett
                          and Daniel G. A. Smith
                              UKS Reference
                        1 Threads,    500 MiB Core
         ---------------------------------------------------------

  ==> Geometry <==

    Molecular point group: d2h
    Full point group: D_inf_h

    Geometry (in Angstrom), charge = 1, multiplicity = 2:

       Center              X                  Y                   Z               Mass       
    ------------   -----------------  -----------------  -----------------  -----------------
         O            0.000000000000     0.000000000000    -0.789095000000    15.994914619570
         O            0.000000000000     0.000000000000     0.789095000000    15.994914619570

  Running in d2h symmetry.

  Rotational constants: A = ************  B =      0.84630  C =      0.84630 [cm^-1]
  Rotational constants: A = ************  B =  25371.53215  C =  25371.53215 [MHz]
  Nuclear repulsion =   21.459609731958764

  Charge       = 1
  Multiplicity = 2
  Electrons    = 15
  Nalpha       = 8
  Nbeta        = 7

  ==> Algorithm <==

  SCF Algorithm Type is DF.
  DIIS enabled.
  MOM disabled.
  Fractional occupation disabled.
  Guess Type is READ.
  Energy threshold   = 1.00e-08
  Density threshold  = 1.00e-08
  Integral threshold = 1.00e-12

  ==> Primary Basis <==

  Basis Set: CC-PVTZ
    Blend: CC-PVTZ
    Number of shells: 20
    Number of basis functions: 60
    Number of Cartesian functions: 70
    Spherical Harmonics?: true
    Max angular momentum: 3

  ==> DFT Potential <==

   => LibXC <=

    Version 6.2.2
    S. Lehtola, C. Steigemann, M. J.T. Oliveira, and M. A.L. Marques.,  SoftwareX 7, 1–5 (2018) (10.1016/j.softx.2017.11.002)

   => Composite Functional: B3LYP <= 

    B3LYP Hyb-GGA Exchange-Correlation Functional

    P. J. Stephens, F. J. Devlin, C. F. Chabalowski, and M. J. Frisch.,  J. Phys. Chem. 98, 11623 (1994) (10.1021/j100096a001)

    Deriv               =              1
    GGA                 =           TRUE
    Meta                =          FALSE

    Exchange Hybrid     =           TRUE
    MP2 Hybrid          =          FALSE

   => Exchange Functionals <=

    0.0800   Slater exchange
    0.7200         Becke 88

   => Exact (HF) Exchange <=

    0.2000               HF 

   => Correlation Functionals <=

    0.1900   Vosko, Wilk & Nusair (VWN5_RPA)
    0.8100   Lee, Yang & Parr

   => LibXC Density Thresholds  <==

    XC_HYB_GGA_XC_B3LYP:  1.00E-15 

   => Molecular Quadrature <=

    Radial Scheme          =       TREUTLER
    Pruning Scheme         =           NONE
    Nuclear Scheme         =       TREUTLER

    Blocking Scheme        =         OCTREE
    BS radius alpha        =              1
    Pruning alpha          =              1
    Radial Points          =             75
    Spherical Points       =            302
    Total Points           =          42488
    Total Blocks           =            376
    Max Points             =            256
    Max Functions          =             60
    Weights Tolerance      =       1.00E-15

   => Loading Basis Set <=

    Name: (CC-PVTZ AUX)
    Role: JKFIT
    Keyword: DF_BASIS_SCF
    atoms 1-2 entry O          line   229 file /Users/joseantoniorodriguesromero/anaconda3/share/psi4/basis/cc-pvtz-jkfit.gbs 

   => Loading Basis Set <=

    Name: CC-PVTZ
    Role: ORBITAL
    Keyword: BASIS
    atoms 1-2 entry O          line   262 file /Users/joseantoniorodriguesromero/anaconda3/share/psi4/basis/cc-pvtz.gbs 

  Reading orbitals from file /tmp/scan_OO_46.default.49853.180.npy, no projection.

  ==> Integral Setup <==

  DFHelper Memory: AOs need 0.005 GiB; user supplied 0.297 GiB. 
  Using in-core AOs.

  ==> MemDFJK: Density-Fitted J/K Matrices <==

    J tasked:                   Yes
    K tasked:                   Yes
    wK tasked:                   No
    OpenMP threads:               1
    Memory [MiB]:               304
    Algorithm:                 Core
    Schwarz Cutoff:           1E-12
    Mask sparsity (%):       0.0000
    Fitting Condition:        1E-10

   => Auxiliary Basis Set <=

  Basis Set: (CC-PVTZ AUX)
    Blend: CC-PVTZ-JKFIT
    Number of shells: 50
    Number of basis functions: 158
    Number of Cartesian functions: 192
    Spherical Harmonics?: true
    Max angular momentum: 4

  Cached 100.0% of DFT collocation blocks in 0.069 [GiB].

  Minimum eigenvalue in the overlap matrix is 1.8699327018E-02.
  Reciprocal condition number of the overlap matrix is 6.4199423609E-03.
    Using symmetric orthogonalization.

  ==> Pre-Iterations <==

  SCF Guess: Orbitals guess was supplied from a previous computation.

   -------------------------------------------------------
    Irrep   Nso     Nmo     Nalpha   Nbeta   Ndocc  Nsocc
   -------------------------------------------------------
     Ag        13      13       3       3       3       0
     B1g        3       3       0       0       0       0
     B2g        7       7       1       0       0       1
     B3g        7       7       0       0       0       0
     Au         3       3       0       0       0       0
     B1u       13      13       2       2       2       0
     B2u        7       7       1       1       1       0
     B3u        7       7       1       1       1       0
   -------------------------------------------------------
    Total      60      60       8       7       7       1
   -------------------------------------------------------

  ==> Iterations <==

                           Total Energy        Delta E     RMS |[F,P]|

   @DF-UKS iter   0:  -149.72374378017363   -1.49724e+02   1.26971e-03 
   @DF-UKS iter   1:  -149.74115728280731   -1.74135e-02   5.30437e-04 ADIIS/DIIS
   @DF-UKS iter   2:  -149.74119394499323   -3.66622e-05   3.20426e-04 ADIIS/DIIS/DAMP=1%
   @DF-UKS iter   3:  -149.74107082381289    1.23121e-04   1.43440e-05 DIIS/DAMP=1%
   @DF-UKS iter   4:  -149.74122014793596   -1.49324e-04   3.59662e-06 DIIS/DAMP=1%
   @DF-UKS iter   5:  -149.74121108225071    9.06569e-06   1.59455e-07 DIIS/DAMP=1%
   @DF-UKS iter   6:  -149.74121321786279   -2.13561e-06   4.41850e-08 DIIS/DAMP=1%
   @DF-UKS iter   7:  -149.74121321744391    4.18879e-10   7.23923e-09 DIIS/DAMP=1%
  Energy and wave function converged.


  ==> Post-Iterations <==

   Electrons on quadrature grid:
      Nalpha   =    7.9999991400 ; deviation = -8.600e-07
      Nbeta    =    6.9999996030 ; deviation = -3.970e-07
      Ntotal   =   14.9999987431 ; deviation = -1.257e-06 

   @Spin Contamination Metric:   3.766856231E-03
   @S^2 Expected:                7.500000000E-01
   @S^2 Observed:                7.537668562E-01
   @S   Expected:                5.000000000E-01
   @S   Observed:                5.000000000E-01

    Orbital Energies [Eh]
    ---------------------

    Alpha Occupied:                                                       

       1Ag   -19.817005     1B1u  -19.816928     2Ag    -1.542529  
       2B1u   -1.350177     3Ag    -0.924641     1B3u   -0.911729  
       1B2u   -0.862489     1B2g   -0.818377  

    Alpha Virtual:                                                        

       1B3g   -0.701109     3B1u   -0.553547     2B3u    0.161400  
       2B2u    0.168317     4B1u    0.173963     4Ag     0.267625  
       2B2g    0.287169     2B3g    0.293471     5Ag     0.323899  
       5B1u    0.754298     3B2u    0.792023     3B3u    0.794445  
       1B1g    0.917717     6Ag     0.919016     1Au     1.103550  
       6B1u    1.105023     7Ag     1.156010     3B2g    1.489579  
       3B3g    1.490708     7B1u    1.894343     8Ag     2.912867  
       4B3u    2.972334     4B2u    2.988885     4B2g    3.109522  
       4B3g    3.125547     8B1u    3.596778     5B2u    4.269621  
       5B3u    4.271985     9Ag     4.328043     2B1g    4.451160  
      10Ag     4.452627     6B3u    4.579588     6B2u    4.579851  
       5B2g    4.608996     5B3g    4.609267     2Au     4.725773  
       9B1u    4.727305     6B2g    5.039937     6B3g    5.041064  
      10B1u    5.310770     3B1g    5.547001    11Ag     5.550863  
       7B3u    5.589219     7B2u    5.599980     3Au     5.672777  
      11B1u    5.676613    12Ag     5.911578     7B2g    6.134417  
       7B3g    6.141937    13Ag     6.804070    12B1u    6.834690  
      13B1u    7.516947  

    Beta Occupied:                                                        

       1Ag   -19.801212     1B1u  -19.801103     2Ag    -1.506521  
       2B1u   -1.303580     3Ag    -0.908937     1B2u   -0.848328  
       1B3u   -0.805240  

    Beta Virtual:                                                         

       1B3g   -0.684576     1B2g   -0.637556     3B1u   -0.534514  
       2B2u    0.173224     4B1u    0.179755     2B3u    0.194708  
       4Ag     0.274779     2B3g    0.298012     2B2g    0.316280  
       5Ag     0.333419     5B1u    0.768835     3B2u    0.793560  
       3B3u    0.815653     6Ag     0.942196     1B1g    0.942677  
       1Au     1.133167     6B1u    1.133384     7Ag     1.170938  
       3B3g    1.494496     3B2g    1.520197     7B1u    1.906034  
       8Ag     2.921834     4B2u    2.999587     4B3u    3.036559  
       4B3g    3.137125     4B2g    3.176020     8B1u    3.612398  
       5B2u    4.273722     5B3u    4.304229     9Ag     4.343324  
       2B1g    4.476438    10Ag     4.479167     6B2u    4.617544  
       6B3u    4.617593     5B3g    4.646757     5B2g    4.646787  
       9B1u    4.752284     2Au     4.752450     6B3g    5.046338  
       6B2g    5.077695    10B1u    5.327201    11Ag     5.604516  
       3B1g    5.605179     7B2u    5.607308     7B3u    5.645364  
       3Au     5.730058    11B1u    5.730173    12Ag     5.925217  
       7B3g    6.147887     7B2g    6.183797    13Ag     6.837144  
      12B1u    6.851120    13B1u    7.542497  

    Final Occupation by Irrep:
             Ag   B1g   B2g   B3g    Au   B1u   B2u   B3u 
    DOCC [     3,    0,    0,    0,    0,    2,    1,    1 ]
    SOCC [     0,    0,    1,    0,    0,    0,    0,    0 ]
    NA   [     3,    0,    1,    0,    0,    2,    1,    1 ]
    NB   [     3,    0,    0,    0,    0,    2,    1,    1 ]

  @DF-UKS Final Energy:  -149.74121321744391

   => Energetics <=

    Nuclear Repulsion Energy =             21.4596097319587642
    One-Electron Energy =                -241.8903755858920022
    Two-Electron Energy =                  83.8829323266633793
    DFT Exchange-Correlation Energy =     -13.1933796901740941
    Empirical Dispersion Energy =           0.0000000000000000
    VV10 Nonlocal Energy =                  0.0000000000000000
    Total Energy =                       -149.7412132174439421

  UHF NO Occupations:
  HONO-2 :    2B1u 1.9997831
  HONO-1 :    1B3u 1.9985489
  HONO-0 :    1B2g 1.0000000
  LUNO+0 :    2B3u 0.0014511
  LUNO+1 :    3B1u 0.0002169
  LUNO+2 :    4 Ag 0.0001518
  LUNO+3 :    2B2u 0.0000421


Computation Completed


Properties will be evaluated at   0.000000,   0.000000,   0.000000 [a0]

Properties computed using the SCF density matrix


 Multipole Moments:

 ------------------------------------------------------------------------------------
     Multipole            Electronic (a.u.)      Nuclear  (a.u.)        Total (a.u.)
 ------------------------------------------------------------------------------------

 L = 1.  Multiply by 2.5417464519 to convert [e a0] to [Debye]
 Dipole X            :          0.0000000            0.0000000            0.0000000
 Dipole Y            :          0.0000000            0.0000000            0.0000000
 Dipole Z            :          0.0000000            0.0000000            0.0000000
 Magnitude           :                                                    0.0000000

 ------------------------------------------------------------------------------------

*** tstop() called on Mac.lan at Sun Aug 10 18:14:14 2025
Module time:
	user time   =      10.82 seconds =       0.18 minutes
	system time =       2.09 seconds =       0.03 minutes
	total time  =          1 seconds =       0.02 minutes
Total time:
	user time   =      10.82 seconds =       0.18 minutes
	system time =       2.09 seconds =       0.03 minutes
	total time  =          1 seconds =       0.02 minutes

*** tstart() called on Mac.lan
*** at Sun Aug 10 18:14:14 2025

   => Libint2 <=

    Primary   basis highest AM E, G, H:  6, 6, 3
    Auxiliary basis highest AM E, G, H:  7, 7, 4
    Onebody   basis highest AM E, G, H:  -, -, -
    Solid Harmonics ordering:            Gaussian
   => Loading Basis Set <=

    Name: CC-PVTZ
    Role: ORBITAL
    Keyword: BASIS
    atoms 1-2 entry O          line   262 file /Users/joseantoniorodriguesromero/anaconda3/share/psi4/basis/cc-pvtz.gbs 


         ---------------------------------------------------------
                                   SCF
               by Justin Turney, Rob Parrish, Andy Simmonett
                          and Daniel G. A. Smith
                              UKS Reference
                        1 Threads,    500 MiB Core
         ---------------------------------------------------------

  ==> Geometry <==

    Molecular point group: d2h
    Full point group: D_inf_h

    Geometry (in Angstrom), charge = 1, multiplicity = 2:

       Center              X                  Y                   Z               Mass       
    ------------   -----------------  -----------------  -----------------  -----------------
         O            0.000000000000     0.000000000000    -0.789095000000    15.994914619570
         O            0.000000000000     0.000000000000     0.789095000000    15.994914619570

  Running in d2h symmetry.

  Rotational constants: A = ************  B =      0.84630  C =      0.84630 [cm^-1]
  Rotational constants: A = ************  B =  25371.53215  C =  25371.53215 [MHz]
  Nuclear repulsion =   21.459609731958764

  Charge       = 1
  Multiplicity = 2
  Electrons    = 15
  Nalpha       = 8
  Nbeta        = 7

  ==> Algorithm <==

  SCF Algorithm Type is DF.
  DIIS enabled.
  MOM disabled.
  Fractional occupation disabled.
  Guess Type is READ.
  Energy threshold   = 1.00e-08
  Density threshold  = 1.00e-08
  Integral threshold = 1.00e-12

  ==> Primary Basis <==

  Basis Set: CC-PVTZ
    Blend: CC-PVTZ
    Number of shells: 20
    Number of basis functions: 60
    Number of Cartesian functions: 70
    Spherical Harmonics?: true
    Max angular momentum: 3

  ==> DFT Potential <==

   => LibXC <=

    Version 6.2.2
    S. Lehtola, C. Steigemann, M. J.T. Oliveira, and M. A.L. Marques.,  SoftwareX 7, 1–5 (2018) (10.1016/j.softx.2017.11.002)

   => Composite Functional: B3LYP <= 

    B3LYP Hyb-GGA Exchange-Correlation Functional

    P. J. Stephens, F. J. Devlin, C. F. Chabalowski, and M. J. Frisch.,  J. Phys. Chem. 98, 11623 (1994) (10.1021/j100096a001)

    Deriv               =              1
    GGA                 =           TRUE
    Meta                =          FALSE

    Exchange Hybrid     =           TRUE
    MP2 Hybrid          =          FALSE

   => Exchange Functionals <=

    0.0800   Slater exchange
    0.7200         Becke 88

   => Exact (HF) Exchange <=

    0.2000               HF 

   => Correlation Functionals <=

    0.1900   Vosko, Wilk & Nusair (VWN5_RPA)
    0.8100   Lee, Yang & Parr

   => LibXC Density Thresholds  <==

    XC_HYB_GGA_XC_B3LYP:  1.00E-15 

   => Molecular Quadrature <=

    Radial Scheme          =       TREUTLER
    Pruning Scheme         =           NONE
    Nuclear Scheme         =       TREUTLER

    Blocking Scheme        =         OCTREE
    BS radius alpha        =              1
    Pruning alpha          =              1
    Radial Points          =             75
    Spherical Points       =            302
    Total Points           =          42488
    Total Blocks           =            376
    Max Points             =            256
    Max Functions          =             60
    Weights Tolerance      =       1.00E-15

   => Loading Basis Set <=

    Name: (CC-PVTZ AUX)
    Role: JKFIT
    Keyword: DF_BASIS_SCF
    atoms 1-2 entry O          line   229 file /Users/joseantoniorodriguesromero/anaconda3/share/psi4/basis/cc-pvtz-jkfit.gbs 

   => Loading Basis Set <=

    Name: CC-PVTZ
    Role: ORBITAL
    Keyword: BASIS
    atoms 1-2 entry O          line   262 file /Users/joseantoniorodriguesromero/anaconda3/share/psi4/basis/cc-pvtz.gbs 

  Reading orbitals from file /tmp/scan_OO_46.default.49853.180.npy, no projection.

  ==> Integral Setup <==

  DFHelper Memory: AOs need 0.005 GiB; user supplied 0.297 GiB. 
  Using in-core AOs.

  ==> MemDFJK: Density-Fitted J/K Matrices <==

    J tasked:                   Yes
    K tasked:                   Yes
    wK tasked:                   No
    OpenMP threads:               1
    Memory [MiB]:               304
    Algorithm:                 Core
    Schwarz Cutoff:           1E-12
    Mask sparsity (%):       0.0000
    Fitting Condition:        1E-10

   => Auxiliary Basis Set <=

  Basis Set: (CC-PVTZ AUX)
    Blend: CC-PVTZ-JKFIT
    Number of shells: 50
    Number of basis functions: 158
    Number of Cartesian functions: 192
    Spherical Harmonics?: true
    Max angular momentum: 4

  Cached 100.0% of DFT collocation blocks in 0.069 [GiB].

  Minimum eigenvalue in the overlap matrix is 1.8699327018E-02.
  Reciprocal condition number of the overlap matrix is 6.4199423609E-03.
    Using symmetric orthogonalization.

  ==> Pre-Iterations <==

  SCF Guess: Orbitals guess was supplied from a previous computation.

   -------------------------------------------------------
    Irrep   Nso     Nmo     Nalpha   Nbeta   Ndocc  Nsocc
   -------------------------------------------------------
     Ag        13      13       3       3       3       0
     B1g        3       3       0       0       0       0
     B2g        7       7       1       0       0       1
     B3g        7       7       0       0       0       0
     Au         3       3       0       0       0       0
     B1u       13      13       2       2       2       0
     B2u        7       7       1       1       1       0
     B3u        7       7       1       1       1       0
   -------------------------------------------------------
    Total      60      60       8       7       7       1
   -------------------------------------------------------

  ==> Iterations <==

                           Total Energy        Delta E     RMS |[F,P]|

   @DF-UKS iter   0:  -149.74121321438838   -1.49741e+02   4.30710e-10 
   @DF-UKS iter   1:  -149.74121321438838    0.00000e+00   1.96071e-10 DIIS
  Energy and wave function converged.


  ==> Post-Iterations <==

   Electrons on quadrature grid:
      Nalpha   =    7.9999991400 ; deviation = -8.600e-07
      Nbeta    =    6.9999996030 ; deviation = -3.970e-07
      Ntotal   =   14.9999987431 ; deviation = -1.257e-06 

   @Spin Contamination Metric:   3.766856661E-03
   @S^2 Expected:                7.500000000E-01
   @S^2 Observed:                7.537668567E-01
   @S   Expected:                5.000000000E-01
   @S   Observed:                5.000000000E-01

    Orbital Energies [Eh]
    ---------------------

    Alpha Occupied:                                                       

       1Ag   -19.817005     1B1u  -19.816928     2Ag    -1.542529  
       2B1u   -1.350177     3Ag    -0.924641     1B3u   -0.911729  
       1B2u   -0.862489     1B2g   -0.818377  

    Alpha Virtual:                                                        

       1B3g   -0.701109     3B1u   -0.553547     2B3u    0.161400  
       2B2u    0.168317     4B1u    0.173963     4Ag     0.267625  
       2B2g    0.287169     2B3g    0.293471     5Ag     0.323899  
       5B1u    0.754298     3B2u    0.792023     3B3u    0.794445  
       1B1g    0.917717     6Ag     0.919016     1Au     1.103550  
       6B1u    1.105023     7Ag     1.156010     3B2g    1.489579  
       3B3g    1.490708     7B1u    1.894343     8Ag     2.912867  
       4B3u    2.972334     4B2u    2.988885     4B2g    3.109522  
       4B3g    3.125547     8B1u    3.596778     5B2u    4.269621  
       5B3u    4.271985     9Ag     4.328043     2B1g    4.451160  
      10Ag     4.452627     6B3u    4.579588     6B2u    4.579851  
       5B2g    4.608996     5B3g    4.609267     2Au     4.725773  
       9B1u    4.727305     6B2g    5.039937     6B3g    5.041064  
      10B1u    5.310770     3B1g    5.547001    11Ag     5.550863  
       7B3u    5.589219     7B2u    5.599980     3Au     5.672777  
      11B1u    5.676613    12Ag     5.911578     7B2g    6.134417  
       7B3g    6.141937    13Ag     6.804070    12B1u    6.834690  
      13B1u    7.516947  

    Beta Occupied:                                                        

       1Ag   -19.801212     1B1u  -19.801103     2Ag    -1.506521  
       2B1u   -1.303580     3Ag    -0.908937     1B2u   -0.848328  
       1B3u   -0.805240  

    Beta Virtual:                                                         

       1B3g   -0.684576     1B2g   -0.637556     3B1u   -0.534514  
       2B2u    0.173224     4B1u    0.179755     2B3u    0.194708  
       4Ag     0.274779     2B3g    0.298012     2B2g    0.316280  
       5Ag     0.333419     5B1u    0.768835     3B2u    0.793560  
       3B3u    0.815653     6Ag     0.942196     1B1g    0.942677  
       1Au     1.133167     6B1u    1.133384     7Ag     1.170938  
       3B3g    1.494496     3B2g    1.520197     7B1u    1.906034  
       8Ag     2.921834     4B2u    2.999587     4B3u    3.036559  
       4B3g    3.137125     4B2g    3.176020     8B1u    3.612398  
       5B2u    4.273722     5B3u    4.304229     9Ag     4.343324  
       2B1g    4.476438    10Ag     4.479167     6B2u    4.617544  
       6B3u    4.617593     5B3g    4.646757     5B2g    4.646787  
       9B1u    4.752284     2Au     4.752450     6B3g    5.046338  
       6B2g    5.077695    10B1u    5.327201    11Ag     5.604516  
       3B1g    5.605179     7B2u    5.607308     7B3u    5.645364  
       3Au     5.730058    11B1u    5.730173    12Ag     5.925217  
       7B3g    6.147887     7B2g    6.183797    13Ag     6.837144  
      12B1u    6.851120    13B1u    7.542497  

    Final Occupation by Irrep:
             Ag   B1g   B2g   B3g    Au   B1u   B2u   B3u 
    DOCC [     3,    0,    0,    0,    0,    2,    1,    1 ]
    SOCC [     0,    0,    1,    0,    0,    0,    0,    0 ]
    NA   [     3,    0,    1,    0,    0,    2,    1,    1 ]
    NB   [     3,    0,    0,    0,    0,    2,    1,    1 ]

  @DF-UKS Final Energy:  -149.74121321438838

   => Energetics <=

    Nuclear Repulsion Energy =             21.4596097319587642
    One-Electron Energy =                -241.8903756291174432
    Two-Electron Energy =                  83.8829323631987762
    DFT Exchange-Correlation Energy =     -13.1933796804284817
    Empirical Dispersion Energy =           0.0000000000000000
    VV10 Nonlocal Energy =                  0.0000000000000000
    Total Energy =                       -149.7412132143883525

  UHF NO Occupations:
  HONO-2 :    2B1u 1.9997831
  HONO-1 :    1B3u 1.9985489
  HONO-0 :    1B2g 1.0000000
  LUNO+0 :    2B3u 0.0014511
  LUNO+1 :    3B1u 0.0002169
  LUNO+2 :    4 Ag 0.0001518
  LUNO+3 :    2B2u 0.0000421


Computation Completed


Properties will be evaluated at   0.000000,   0.000000,   0.000000 [a0]

Properties computed using the B3LYP density matrix


 Multipole Moments:

 ------------------------------------------------------------------------------------
     Multipole            Electronic (a.u.)      Nuclear  (a.u.)        Total (a.u.)
 ------------------------------------------------------------------------------------

 L = 1.  Multiply by 2.5417464519 to convert [e a0] to [Debye]
 Dipole X            :          0.0000000            0.0000000            0.0000000
 Dipole Y            :          0.0000000            0.0000000            0.0000000
 Dipole Z            :          0.0000000            0.0000000            0.0000000
 Magnitude           :                                                    0.0000000

 L = 2.  Multiply by 1.3450342976 to convert [e a0^2] to [Debye ang]
 Quadrupole XX       :         -6.6100928            0.0000000           -6.6100928
 Quadrupole XY       :          0.0000000            0.0000000            0.0000000
 Quadrupole XZ       :          0.0000000            0.0000000            0.0000000
 Quadrupole YY       :         -6.0510328            0.0000000           -6.0510328
 Quadrupole YZ       :          0.0000000            0.0000000            0.0000000
 Quadrupole ZZ       :        -38.8847363           35.5775715           -3.3071648
 Traceless XX        :         10.5718611          -11.8591905           -1.2873294
 Traceless YY        :         11.1309212          -11.8591905           -0.7282693
 Traceless ZZ        :        -21.7027823           23.7183810            2.0155987

 ------------------------------------------------------------------------------------
  ==> Computing MBIS Charges <==

  Electron Count from Grid (Expected Number): 15.00000 (15.00000)
  Difference: -0.00000

  MBIS Charges: (a.u.)
   Center  Symbol  Z      Pop.       Charge
      1       O    8    7.499999    0.500001
      2       O    8    7.499999    0.500001

  MBIS Dipoles: [e a0]
   Center  Symbol  Z        X           Y           Z
      1       O    8   -0.000000    0.000000   -0.127463
      2       O    8   -0.000000    0.000000    0.127463

  MBIS Quadrupoles: [e a0^2]
   Center  Symbol  Z      XX        XY        XZ        YY        YZ        ZZ
      1       O    8   -3.3050    0.0000    0.0000   -3.0255   -0.0000   -3.1455
      2       O    8   -3.3050    0.0000   -0.0000   -3.0255   -0.0000   -3.1455

  MBIS Octupoles: [e a0^3]
   Center  Symbol  Z      XXX       XXY       XXZ       XYY       XYZ       XZZ       YYY       YYZ       YZZ       ZZZ
      1       O    8   -0.0000   -0.0000   -0.1345   -0.0000   -0.0000    0.0000    0.0000   -0.1816    0.0000   -0.5097
      2       O    8   -0.0000   -0.0000    0.1345    0.0000    0.0000   -0.0000    0.0000    0.1816    0.0000    0.5097

  MBIS Radial Moments:
   Center  Symbol  Z      [a0^2]      [a0^3]      [a0^4]      
      1       O    8    9.476083   16.854077   36.011029
      2       O    8    9.476083   16.854077   36.011029

  MBIS Valence Widths: [a0]
   Center  Symbol  Z     Width
      1       O    8    0.368501
      2       O    8    0.368501

*** tstop() called on Mac.lan at Sun Aug 10 18:14:15 2025
Module time:
	user time   =       5.25 seconds =       0.09 minutes
	system time =       1.90 seconds =       0.03 minutes
	total time  =          1 seconds =       0.02 minutes
Total time:
	user time   =      16.16 seconds =       0.27 minutes
	system time =       4.18 seconds =       0.07 minutes
	total time  =          2 seconds =       0.03 minutes

    Psi4 stopped on: Sunday, 10 August 2025 06:14PM
    Psi4 wall time for execution: 0:00:02.04

*** Psi4 exiting successfully. Buy a developer a beer!
