
    -----------------------------------------------------------------------
          Psi4: An Open-Source Ab Initio Electronic Structure Package
                               Psi4 1.9.1 release

                         Git: Rev {} zzzzzzz 


    D. G. A. Smith, L. A. Burns, A. C. Simmonett, R. M. Parrish,
    M. C. Schieber, R. Galvelis, P. Kraus, H. Kruse, R. Di Remigio,
    A. Alenaizan, A. M. James, S. Lehtola, J. P. Misiewicz, M. Scheurer,
    R. A. Shaw, J. B. Schriber, Y. Xie, Z. L. Glick, D. A. Sirianni,
    J. S. O'Brien, J. M. Waldrop, A. Kumar, E. G. Hohenstein,
    B. P. Pritchard, B. R. Brooks, H. F. Schaefer III, A. Yu. Sokolov,
    K. Patkowski, A. E. DePrince III, U. Bozkaya, R. A. King,
    F. A. Evangelista, J. M. Turney, T. D. Crawford, C. D. Sherrill,
    J. Chem. Phys. 152(18) 184108 (2020). https://doi.org/10.1063/5.0006002

                            Additional Code Authors
    E. T. Seidl, C. L. Janssen, E. F. Valeev, M. L. Leininger,
    J. F. Gonthier, R. M. Richard, H. R. McAlexander, M. Saitow, X. Wang,
    P. Verma, M. H. Lechner, A. Jiang, S. Behnle, A. G. Heide,
    M. F. Herbst, and D. L. Poole

             Previous Authors, Complete List of Code Contributors,
                       and Citations for Specific Modules
    https://github.com/psi4/psi4/blob/master/codemeta.json
    https://github.com/psi4/psi4/graphs/contributors
    http://psicode.org/psi4manual/master/introduction.html#citing-psifour

    -----------------------------------------------------------------------


    Psi4 started on: Sunday, 10 August 2025 06:30PM

    Process ID: 50239
    Host:       Mac.lan
    PSIDATADIR: /Users/joseantoniorodriguesromero/anaconda3/share/psi4
    Memory:     500.0 MiB
    Threads:    1
    
  ==> Input File <==

--------------------------------------------------------------------------
molecule { 
1 3
O           0.000000           0.000000           0.000000
H           0.000000           0.000000           1.423989
}

set { 
basis              cc-pvtz
reference          uks
maxiter            500
DAMPING_PERCENTAGE 1
E_CONVERGENCE      1.0E-8
D_CONVERGENCE      1.0E-8
DIIS_MAX_VECS      400
MBIS_MAXITER       8000
guess              read
}

E, wfn = energy('b3lyp', restart_file='last_wfn', return_wfn=True)
properties('b3lyp','MBIS_CHARGES', wfn=wfn)
wfn.to_file('last_wfn')
--------------------------------------------------------------------------

Scratch directory: /tmp/
 Found user provided orbital data. Setting orbital guess to READ 
 Copying restart file <last_wfn.npy> to </tmp/scan_HO_43.default.50239.180.npy> for internal processing
   => Libint2 <=

    Primary   basis highest AM E, G, H:  6, 6, 3
    Auxiliary basis highest AM E, G, H:  7, 7, 4
    Onebody   basis highest AM E, G, H:  -, -, -
    Solid Harmonics ordering:            Gaussian

*** tstart() called on Mac.lan
*** at Sun Aug 10 18:30:29 2025

   => Loading Basis Set <=

    Name: CC-PVTZ
    Role: ORBITAL
    Keyword: BASIS
    atoms 1 entry O          line   262 file /Users/joseantoniorodriguesromero/anaconda3/share/psi4/basis/cc-pvtz.gbs 
    atoms 2 entry H          line    23 file /Users/joseantoniorodriguesromero/anaconda3/share/psi4/basis/cc-pvtz.gbs 


         ---------------------------------------------------------
                                   SCF
               by Justin Turney, Rob Parrish, Andy Simmonett
                          and Daniel G. A. Smith
                              UKS Reference
                        1 Threads,    500 MiB Core
         ---------------------------------------------------------

  ==> Geometry <==

    Molecular point group: c2v
    Full point group: C_inf_v

    Geometry (in Angstrom), charge = 1, multiplicity = 3:

       Center              X                  Y                   Z               Mass       
    ------------   -----------------  -----------------  -----------------  -----------------
         O            0.000000000000     0.000000000000    -0.084405912765    15.994914619570
         H            0.000000000000     0.000000000000     1.339583087235     1.007825032230

  Running in c2v symmetry.

  Rotational constants: A = ************  B =      8.76870  C =      8.76870 [cm^-1]
  Rotational constants: A = ************  B = 262878.92371  C = 262878.92371 [MHz]
  Nuclear repulsion =    2.972928642960023

  Charge       = 1
  Multiplicity = 3
  Electrons    = 8
  Nalpha       = 5
  Nbeta        = 3

  ==> Algorithm <==

  SCF Algorithm Type is DF.
  DIIS enabled.
  MOM disabled.
  Fractional occupation disabled.
  Guess Type is READ.
  Energy threshold   = 1.00e-08
  Density threshold  = 1.00e-08
  Integral threshold = 1.00e-12

  ==> Primary Basis <==

  Basis Set: CC-PVTZ
    Blend: CC-PVTZ
    Number of shells: 16
    Number of basis functions: 44
    Number of Cartesian functions: 50
    Spherical Harmonics?: true
    Max angular momentum: 3

  ==> DFT Potential <==

   => LibXC <=

    Version 6.2.2
    S. Lehtola, C. Steigemann, M. J.T. Oliveira, and M. A.L. Marques.,  SoftwareX 7, 1–5 (2018) (10.1016/j.softx.2017.11.002)

   => Composite Functional: B3LYP <= 

    B3LYP Hyb-GGA Exchange-Correlation Functional

    P. J. Stephens, F. J. Devlin, C. F. Chabalowski, and M. J. Frisch.,  J. Phys. Chem. 98, 11623 (1994) (10.1021/j100096a001)

    Deriv               =              1
    GGA                 =           TRUE
    Meta                =          FALSE

    Exchange Hybrid     =           TRUE
    MP2 Hybrid          =          FALSE

   => Exchange Functionals <=

    0.0800   Slater exchange
    0.7200         Becke 88

   => Exact (HF) Exchange <=

    0.2000               HF 

   => Correlation Functionals <=

    0.1900   Vosko, Wilk & Nusair (VWN5_RPA)
    0.8100   Lee, Yang & Parr

   => LibXC Density Thresholds  <==

    XC_HYB_GGA_XC_B3LYP:  1.00E-15 

   => Molecular Quadrature <=

    Radial Scheme          =       TREUTLER
    Pruning Scheme         =           NONE
    Nuclear Scheme         =       TREUTLER

    Blocking Scheme        =         OCTREE
    BS radius alpha        =              1
    Pruning alpha          =              1
    Radial Points          =             75
    Spherical Points       =            302
    Total Points           =          44190
    Total Blocks           =            393
    Max Points             =            256
    Max Functions          =             44
    Weights Tolerance      =       1.00E-15

   => Loading Basis Set <=

    Name: (CC-PVTZ AUX)
    Role: JKFIT
    Keyword: DF_BASIS_SCF
    atoms 1 entry O          line   229 file /Users/joseantoniorodriguesromero/anaconda3/share/psi4/basis/cc-pvtz-jkfit.gbs 
    atoms 2 entry H          line    51 file /Users/joseantoniorodriguesromero/anaconda3/share/psi4/basis/cc-pvtz-jkfit.gbs 

   => Loading Basis Set <=

    Name: CC-PVTZ
    Role: ORBITAL
    Keyword: BASIS
    atoms 1 entry O          line   262 file /Users/joseantoniorodriguesromero/anaconda3/share/psi4/basis/cc-pvtz.gbs 
    atoms 2 entry H          line    23 file /Users/joseantoniorodriguesromero/anaconda3/share/psi4/basis/cc-pvtz.gbs 

  Reading orbitals from file /tmp/scan_HO_43.default.50239.180.npy, no projection.

  ==> Integral Setup <==

  DFHelper Memory: AOs need 0.002 GiB; user supplied 0.312 GiB. 
  Using in-core AOs.

  ==> MemDFJK: Density-Fitted J/K Matrices <==

    J tasked:                   Yes
    K tasked:                   Yes
    wK tasked:                   No
    OpenMP threads:               1
    Memory [MiB]:               319
    Algorithm:                 Core
    Schwarz Cutoff:           1E-12
    Mask sparsity (%):       0.0000
    Fitting Condition:        1E-10

   => Auxiliary Basis Set <=

  Basis Set: (CC-PVTZ AUX)
    Blend: CC-PVTZ-JKFIT
    Number of shells: 35
    Number of basis functions: 109
    Number of Cartesian functions: 131
    Spherical Harmonics?: true
    Max angular momentum: 4

  Cached 100.0% of DFT collocation blocks in 0.054 [GiB].

  Minimum eigenvalue in the overlap matrix is 2.1132176135E-02.
  Reciprocal condition number of the overlap matrix is 6.2127867319E-03.
    Using symmetric orthogonalization.

  ==> Pre-Iterations <==

  SCF Guess: Orbitals guess was supplied from a previous computation.

   -------------------------------------------------------
    Irrep   Nso     Nmo     Nalpha   Nbeta   Ndocc  Nsocc
   -------------------------------------------------------
     A1        20      20       3       3       3       0
     A2         4       4       0       0       0       0
     B1        10      10       1       0       0       1
     B2        10      10       1       0       0       1
   -------------------------------------------------------
    Total      44      44       5       3       3       2
   -------------------------------------------------------

  ==> Iterations <==

                           Total Energy        Delta E     RMS |[F,P]|

   @DF-UKS iter   0:   -75.23157173775452   -7.52316e+01   5.86821e-04 
   @DF-UKS iter   1:   -75.24067567780818   -9.10394e-03   2.27323e-04 ADIIS/DIIS
   @DF-UKS iter   2:   -75.24067727548450   -1.59768e-06   2.21444e-04 ADIIS/DIIS/DAMP=1%
   @DF-UKS iter   3:   -75.24055334172236    1.23934e-04   3.71698e-05 DIIS/DAMP=1%
   @DF-UKS iter   4:   -75.24070878680479   -1.55445e-04   1.09530e-05 DIIS/DAMP=1%
   @DF-UKS iter   5:   -75.24068497970347    2.38071e-05   4.38544e-06 DIIS/DAMP=1%
   @DF-UKS iter   6:   -75.24069142598238   -6.44628e-06   2.25007e-07 DIIS/DAMP=1%
   @DF-UKS iter   7:   -75.24068946055428    1.96543e-06   5.63909e-08 DIIS/DAMP=1%
   @DF-UKS iter   8:   -75.24068953437380   -7.38195e-08   7.99066e-09 DIIS/DAMP=1%
   @DF-UKS iter   9:   -75.24068950601946    2.83543e-08   7.50530e-10 DIIS/DAMP=1%
   @DF-UKS iter  10:   -75.24068951028474   -4.26527e-09   5.38247e-11 DIIS/DAMP=1%
  Energy and wave function converged.


  ==> Post-Iterations <==

   Electrons on quadrature grid:
      Nalpha   =    4.9999999467 ; deviation = -5.327e-08
      Nbeta    =    3.0000000002 ; deviation = 2.208e-10
      Ntotal   =    7.9999999470 ; deviation = -5.304e-08 

   @Spin Contamination Metric:   2.207168113E-02
   @S^2 Expected:                2.000000000E+00
   @S^2 Observed:                2.022071681E+00
   @S   Expected:                1.000000000E+00
   @S   Observed:                1.000000000E+00

    Orbital Energies [Eh]
    ---------------------

    Alpha Occupied:                                                       

       1A1   -19.772050     2A1    -1.475554     1B1    -0.894808  
       1B2    -0.894808     3A1    -0.879880  

    Alpha Virtual:                                                        

       4A1    -0.448390     5A1    -0.029649     2B1     0.133959  
       2B2     0.133959     6A1     0.230939     3B1     0.335923  
       3B2     0.335923     7A1     0.411884     8A1     0.677149  
       9A1     0.973347     1A2     0.973347     4B2     1.108408  
       4B1     1.108408    10A1     1.539449    11A1     1.987119  
      12A1     2.680761     2A2     2.784348    13A1     2.784351  
       5B1     2.804474     5B2     2.804474     6B1     3.114999  
       6B2     3.114999     7B1     3.254879     7B2     3.254879  
      14A1     3.376112    15A1     4.126085     8B1     4.552929  
       8B2     4.552929     3A2     4.592187    16A1     4.592187  
       9B1     4.837322     9B2     4.837322    17A1     5.233425  
       4A2     5.558932    18A1     5.558933    10B2     5.791959  
      10B1     5.791959    19A1     6.434916    20A1     6.985589  

    Beta Occupied:                                                        

       1A1   -19.713714     2A1    -1.306829     3A1    -0.827627  

    Beta Virtual:                                                         

       1B1    -0.592520     1B2    -0.592520     4A1    -0.449401  
       5A1    -0.037580     2B1     0.179240     2B2     0.179240  
       6A1     0.254454     3B1     0.355577     3B2     0.355577  
       7A1     0.445129     8A1     0.706541     1A2     1.086670  
       9A1     1.086670     4B2     1.164806     4B1     1.164806  
      10A1     1.568484    11A1     1.957945    12A1     2.695517  
       2A2     2.758875    13A1     2.758879     5B1     2.821040  
       5B2     2.821040     6B1     3.210730     6B2     3.210730  
       7B1     3.243065     7B2     3.243065    14A1     3.370251  
      15A1     4.154196    16A1     4.694489     3A2     4.694490  
       8B1     4.704250     8B2     4.704250     9B1     4.914449  
       9B2     4.914449    17A1     5.292203     4A2     5.773846  
      18A1     5.773846    10B1     5.908582    10B2     5.908582  
      19A1     6.504495    20A1     7.095516  

    Final Occupation by Irrep:
             A1    A2    B1    B2 
    DOCC [     3,    0,    0,    0 ]
    SOCC [     0,    0,    1,    1 ]
    NA   [     3,    0,    1,    1 ]
    NB   [     3,    0,    0,    0 ]

  @DF-UKS Final Energy:   -75.24068951028474

   => Energetics <=

    Nuclear Repulsion Energy =              2.9729286429600230
    One-Electron Energy =                -105.7717266005075771
    Two-Electron Energy =                  34.3594170017897156
    DFT Exchange-Correlation Energy =      -6.8013085545268996
    Empirical Dispersion Energy =           0.0000000000000000
    VV10 Nonlocal Energy =                  0.0000000000000000
    Total Energy =                        -75.2406895102847244

  UHF NO Occupations:
  HONO-2 :    3 A1 1.9898108
  HONO-1 :    1 B1 1.0000000
  HONO-0 :    1 B2 1.0000000
  LUNO+0 :    4 A1 0.0101892
  LUNO+1 :    5 A1 0.0008975
  LUNO+2 :    6 A1 0.0000014
  LUNO+3 :    7 A1 0.0000000


Computation Completed


Properties will be evaluated at   0.000000,   0.000000,   0.000000 [a0]

Properties computed using the SCF density matrix


 Multipole Moments:

 ------------------------------------------------------------------------------------
     Multipole            Electronic (a.u.)      Nuclear  (a.u.)        Total (a.u.)
 ------------------------------------------------------------------------------------

 L = 1.  Multiply by 2.5417464519 to convert [e a0] to [Debye]
 Dipole X            :          0.0000000            0.0000000            0.0000000
 Dipole Y            :          0.0000000            0.0000000            0.0000000
 Dipole Z            :          0.0807908            1.2554127            1.3362035
 Magnitude           :                                                    1.3362035

 ------------------------------------------------------------------------------------

*** tstop() called on Mac.lan at Sun Aug 10 18:30:30 2025
Module time:
	user time   =       9.92 seconds =       0.17 minutes
	system time =       2.46 seconds =       0.04 minutes
	total time  =          1 seconds =       0.02 minutes
Total time:
	user time   =       9.92 seconds =       0.17 minutes
	system time =       2.46 seconds =       0.04 minutes
	total time  =          1 seconds =       0.02 minutes

*** tstart() called on Mac.lan
*** at Sun Aug 10 18:30:30 2025

   => Libint2 <=

    Primary   basis highest AM E, G, H:  6, 6, 3
    Auxiliary basis highest AM E, G, H:  7, 7, 4
    Onebody   basis highest AM E, G, H:  -, -, -
    Solid Harmonics ordering:            Gaussian
   => Loading Basis Set <=

    Name: CC-PVTZ
    Role: ORBITAL
    Keyword: BASIS
    atoms 1 entry O          line   262 file /Users/joseantoniorodriguesromero/anaconda3/share/psi4/basis/cc-pvtz.gbs 
    atoms 2 entry H          line    23 file /Users/joseantoniorodriguesromero/anaconda3/share/psi4/basis/cc-pvtz.gbs 


         ---------------------------------------------------------
                                   SCF
               by Justin Turney, Rob Parrish, Andy Simmonett
                          and Daniel G. A. Smith
                              UKS Reference
                        1 Threads,    500 MiB Core
         ---------------------------------------------------------

  ==> Geometry <==

    Molecular point group: c2v
    Full point group: C_inf_v

    Geometry (in Angstrom), charge = 1, multiplicity = 3:

       Center              X                  Y                   Z               Mass       
    ------------   -----------------  -----------------  -----------------  -----------------
         O            0.000000000000     0.000000000000    -0.084405912765    15.994914619570
         H            0.000000000000     0.000000000000     1.339583087235     1.007825032230

  Running in c2v symmetry.

  Rotational constants: A = ************  B =      8.76870  C =      8.76870 [cm^-1]
  Rotational constants: A = ************  B = 262878.92371  C = 262878.92371 [MHz]
  Nuclear repulsion =    2.972928642960023

  Charge       = 1
  Multiplicity = 3
  Electrons    = 8
  Nalpha       = 5
  Nbeta        = 3

  ==> Algorithm <==

  SCF Algorithm Type is DF.
  DIIS enabled.
  MOM disabled.
  Fractional occupation disabled.
  Guess Type is READ.
  Energy threshold   = 1.00e-08
  Density threshold  = 1.00e-08
  Integral threshold = 1.00e-12

  ==> Primary Basis <==

  Basis Set: CC-PVTZ
    Blend: CC-PVTZ
    Number of shells: 16
    Number of basis functions: 44
    Number of Cartesian functions: 50
    Spherical Harmonics?: true
    Max angular momentum: 3

  ==> DFT Potential <==

   => LibXC <=

    Version 6.2.2
    S. Lehtola, C. Steigemann, M. J.T. Oliveira, and M. A.L. Marques.,  SoftwareX 7, 1–5 (2018) (10.1016/j.softx.2017.11.002)

   => Composite Functional: B3LYP <= 

    B3LYP Hyb-GGA Exchange-Correlation Functional

    P. J. Stephens, F. J. Devlin, C. F. Chabalowski, and M. J. Frisch.,  J. Phys. Chem. 98, 11623 (1994) (10.1021/j100096a001)

    Deriv               =              1
    GGA                 =           TRUE
    Meta                =          FALSE

    Exchange Hybrid     =           TRUE
    MP2 Hybrid          =          FALSE

   => Exchange Functionals <=

    0.0800   Slater exchange
    0.7200         Becke 88

   => Exact (HF) Exchange <=

    0.2000               HF 

   => Correlation Functionals <=

    0.1900   Vosko, Wilk & Nusair (VWN5_RPA)
    0.8100   Lee, Yang & Parr

   => LibXC Density Thresholds  <==

    XC_HYB_GGA_XC_B3LYP:  1.00E-15 

   => Molecular Quadrature <=

    Radial Scheme          =       TREUTLER
    Pruning Scheme         =           NONE
    Nuclear Scheme         =       TREUTLER

    Blocking Scheme        =         OCTREE
    BS radius alpha        =              1
    Pruning alpha          =              1
    Radial Points          =             75
    Spherical Points       =            302
    Total Points           =          44190
    Total Blocks           =            393
    Max Points             =            256
    Max Functions          =             44
    Weights Tolerance      =       1.00E-15

   => Loading Basis Set <=

    Name: (CC-PVTZ AUX)
    Role: JKFIT
    Keyword: DF_BASIS_SCF
    atoms 1 entry O          line   229 file /Users/joseantoniorodriguesromero/anaconda3/share/psi4/basis/cc-pvtz-jkfit.gbs 
    atoms 2 entry H          line    51 file /Users/joseantoniorodriguesromero/anaconda3/share/psi4/basis/cc-pvtz-jkfit.gbs 

   => Loading Basis Set <=

    Name: CC-PVTZ
    Role: ORBITAL
    Keyword: BASIS
    atoms 1 entry O          line   262 file /Users/joseantoniorodriguesromero/anaconda3/share/psi4/basis/cc-pvtz.gbs 
    atoms 2 entry H          line    23 file /Users/joseantoniorodriguesromero/anaconda3/share/psi4/basis/cc-pvtz.gbs 

  Reading orbitals from file /tmp/scan_HO_43.default.50239.180.npy, no projection.

  ==> Integral Setup <==

  DFHelper Memory: AOs need 0.002 GiB; user supplied 0.312 GiB. 
  Using in-core AOs.

  ==> MemDFJK: Density-Fitted J/K Matrices <==

    J tasked:                   Yes
    K tasked:                   Yes
    wK tasked:                   No
    OpenMP threads:               1
    Memory [MiB]:               319
    Algorithm:                 Core
    Schwarz Cutoff:           1E-12
    Mask sparsity (%):       0.0000
    Fitting Condition:        1E-10

   => Auxiliary Basis Set <=

  Basis Set: (CC-PVTZ AUX)
    Blend: CC-PVTZ-JKFIT
    Number of shells: 35
    Number of basis functions: 109
    Number of Cartesian functions: 131
    Spherical Harmonics?: true
    Max angular momentum: 4

  Cached 100.0% of DFT collocation blocks in 0.054 [GiB].

  Minimum eigenvalue in the overlap matrix is 2.1132176135E-02.
  Reciprocal condition number of the overlap matrix is 6.2127867319E-03.
    Using symmetric orthogonalization.

  ==> Pre-Iterations <==

  SCF Guess: Orbitals guess was supplied from a previous computation.

   -------------------------------------------------------
    Irrep   Nso     Nmo     Nalpha   Nbeta   Ndocc  Nsocc
   -------------------------------------------------------
     A1        20      20       3       3       3       0
     A2         4       4       0       0       0       0
     B1        10      10       1       0       0       1
     B2        10      10       1       0       0       1
   -------------------------------------------------------
    Total      44      44       5       3       3       2
   -------------------------------------------------------

  ==> Iterations <==

                           Total Energy        Delta E     RMS |[F,P]|

   @DF-UKS iter   0:   -75.24068951022529   -7.52407e+01   6.14554e-12 
   @DF-UKS iter   1:   -75.24068951022542   -1.27898e-13   4.06249e-12 DIIS
  Energy and wave function converged.


  ==> Post-Iterations <==

   Electrons on quadrature grid:
      Nalpha   =    4.9999999467 ; deviation = -5.327e-08
      Nbeta    =    3.0000000002 ; deviation = 2.208e-10
      Ntotal   =    7.9999999470 ; deviation = -5.304e-08 

   @Spin Contamination Metric:   2.207168095E-02
   @S^2 Expected:                2.000000000E+00
   @S^2 Observed:                2.022071681E+00
   @S   Expected:                1.000000000E+00
   @S   Observed:                1.000000000E+00

    Orbital Energies [Eh]
    ---------------------

    Alpha Occupied:                                                       

       1A1   -19.772050     2A1    -1.475554     1B1    -0.894808  
       1B2    -0.894808     3A1    -0.879880  

    Alpha Virtual:                                                        

       4A1    -0.448390     5A1    -0.029649     2B1     0.133959  
       2B2     0.133959     6A1     0.230939     3B2     0.335923  
       3B1     0.335923     7A1     0.411884     8A1     0.677149  
       9A1     0.973347     1A2     0.973347     4B2     1.108408  
       4B1     1.108408    10A1     1.539449    11A1     1.987119  
      12A1     2.680761     2A2     2.784348    13A1     2.784351  
       5B1     2.804474     5B2     2.804474     6B1     3.114999  
       6B2     3.114999     7B1     3.254879     7B2     3.254879  
      14A1     3.376112    15A1     4.126085     8B1     4.552929  
       8B2     4.552929     3A2     4.592187    16A1     4.592187  
       9B1     4.837322     9B2     4.837322    17A1     5.233425  
       4A2     5.558932    18A1     5.558933    10B2     5.791959  
      10B1     5.791959    19A1     6.434916    20A1     6.985589  

    Beta Occupied:                                                        

       1A1   -19.713714     2A1    -1.306829     3A1    -0.827627  

    Beta Virtual:                                                         

       1B1    -0.592520     1B2    -0.592520     4A1    -0.449401  
       5A1    -0.037580     2B1     0.179240     2B2     0.179240  
       6A1     0.254454     3B1     0.355577     3B2     0.355577  
       7A1     0.445129     8A1     0.706541     1A2     1.086670  
       9A1     1.086670     4B2     1.164806     4B1     1.164806  
      10A1     1.568484    11A1     1.957945    12A1     2.695517  
       2A2     2.758875    13A1     2.758879     5B1     2.821040  
       5B2     2.821040     6B1     3.210730     6B2     3.210730  
       7B1     3.243065     7B2     3.243065    14A1     3.370251  
      15A1     4.154196    16A1     4.694489     3A2     4.694490  
       8B1     4.704250     8B2     4.704250     9B1     4.914449  
       9B2     4.914449    17A1     5.292203     4A2     5.773846  
      18A1     5.773846    10B1     5.908582    10B2     5.908582  
      19A1     6.504495    20A1     7.095516  

    Final Occupation by Irrep:
             A1    A2    B1    B2 
    DOCC [     3,    0,    0,    0 ]
    SOCC [     0,    0,    1,    1 ]
    NA   [     3,    0,    1,    1 ]
    NB   [     3,    0,    0,    0 ]

  @DF-UKS Final Energy:   -75.24068951022542

   => Energetics <=

    Nuclear Repulsion Energy =              2.9729286429600230
    One-Electron Energy =                -105.7717266045893041
    Two-Electron Energy =                  34.3594170064403741
    DFT Exchange-Correlation Energy =      -6.8013085550365187
    Empirical Dispersion Energy =           0.0000000000000000
    VV10 Nonlocal Energy =                  0.0000000000000000
    Total Energy =                        -75.2406895102254225

  UHF NO Occupations:
  HONO-2 :    3 A1 1.9898108
  HONO-1 :    1 B2 1.0000000
  HONO-0 :    1 B1 1.0000000
  LUNO+0 :    4 A1 0.0101892
  LUNO+1 :    5 A1 0.0008975
  LUNO+2 :    6 A1 0.0000014
  LUNO+3 :    7 A1 0.0000000


Computation Completed


Properties will be evaluated at   0.000000,   0.000000,   0.000000 [a0]

Properties computed using the B3LYP density matrix


 Multipole Moments:

 ------------------------------------------------------------------------------------
     Multipole            Electronic (a.u.)      Nuclear  (a.u.)        Total (a.u.)
 ------------------------------------------------------------------------------------

 L = 1.  Multiply by 2.5417464519 to convert [e a0] to [Debye]
 Dipole X            :          0.0000000            0.0000000            0.0000000
 Dipole Y            :          0.0000000            0.0000000            0.0000000
 Dipole Z            :          0.0807908            1.2554127            1.3362035
 Magnitude           :                                                    1.3362035

 L = 2.  Multiply by 1.3450342976 to convert [e a0^2] to [Debye ang]
 Quadrupole XX       :         -3.2213984            0.0000000           -3.2213984
 Quadrupole XY       :          0.0000000            0.0000000            0.0000000
 Quadrupole XZ       :          0.0000000            0.0000000            0.0000000
 Quadrupole YY       :         -3.2213984            0.0000000           -3.2213984
 Quadrupole YZ       :          0.0000000            0.0000000            0.0000000
 Quadrupole ZZ       :         -6.2080069            6.6117469            0.4037400
 Traceless XX        :          0.9955362           -2.2039156           -1.2083795
 Traceless YY        :          0.9955362           -2.2039156           -1.2083795
 Traceless ZZ        :         -1.9910724            4.4078313            2.4167589

 ------------------------------------------------------------------------------------
  ==> Computing MBIS Charges <==

  Electron Count from Grid (Expected Number):  8.00000 ( 8.00000)
  Difference: -0.00000

  MBIS Charges: (a.u.)
   Center  Symbol  Z      Pop.       Charge
      1       O    8    7.583813    0.416187
      2       H    1    0.416187    0.583813

  MBIS Dipoles: [e a0]
   Center  Symbol  Z        X           Y           Z
      1       O    8   -0.000000   -0.000000   -0.154065
      2       H    1    0.000000   -0.000000    0.078761

  MBIS Quadrupoles: [e a0^2]
   Center  Symbol  Z      XX        XY        XZ        YY        YZ        ZZ
      1       O    8   -2.9631    0.0000   -0.0000   -2.9631    0.0000   -3.5594
      2       H    1   -0.2583    0.0000    0.0000   -0.2583   -0.0000   -0.2366

  MBIS Octupoles: [e a0^3]
   Center  Symbol  Z      XXX       XXY       XXZ       XYY       XYZ       XZZ       YYY       YYZ       YZZ       ZZZ
      1       O    8   -0.0000   -0.0000   -0.1301   -0.0000    0.0000   -0.0000    0.0000   -0.1301    0.0000   -0.5146
      2       H    1    0.0000    0.0000    0.0394    0.0000   -0.0000    0.0000    0.0000    0.0394    0.0000    0.1111

  MBIS Radial Moments:
   Center  Symbol  Z      [a0^2]      [a0^3]      [a0^4]      
      1       O    8    9.485589   16.644330   34.917569
      2       H    1    0.753164    1.407436    3.124712

  MBIS Valence Widths: [a0]
   Center  Symbol  Z     Width
      1       O    8    0.366457
      2       H    1    0.395293

*** tstop() called on Mac.lan at Sun Aug 10 18:30:30 2025
Module time:
	user time   =       2.44 seconds =       0.04 minutes
	system time =       2.02 seconds =       0.03 minutes
	total time  =          0 seconds =       0.00 minutes
Total time:
	user time   =      12.46 seconds =       0.21 minutes
	system time =       4.60 seconds =       0.08 minutes
	total time  =          1 seconds =       0.02 minutes

    Psi4 stopped on: Sunday, 10 August 2025 06:30PM
    Psi4 wall time for execution: 0:00:01.67

*** Psi4 exiting successfully. Buy a developer a beer!
