
    -----------------------------------------------------------------------
          Psi4: An Open-Source Ab Initio Electronic Structure Package
                               Psi4 1.9.1 release

                         Git: Rev {} zzzzzzz 


    D. G. A. Smith, L. A. Burns, A. C. Simmonett, R. M. Parrish,
    M. C. Schieber, R. Galvelis, P. Kraus, H. Kruse, R. Di Remigio,
    A. Alenaizan, A. M. James, S. Lehtola, J. P. Misiewicz, M. Scheurer,
    R. A. Shaw, J. B. Schriber, Y. Xie, Z. L. Glick, D. A. Sirianni,
    J. S. O'Brien, J. M. Waldrop, A. Kumar, E. G. Hohenstein,
    B. P. Pritchard, B. R. Brooks, H. F. Schaefer III, A. Yu. Sokolov,
    K. Patkowski, A. E. DePrince III, U. Bozkaya, R. A. King,
    F. A. Evangelista, J. M. Turney, T. D. Crawford, C. D. Sherrill,
    J. Chem. Phys. 152(18) 184108 (2020). https://doi.org/10.1063/5.0006002

                            Additional Code Authors
    E. T. Seidl, C. L. Janssen, E. F. Valeev, M. L. Leininger,
    J. F. Gonthier, R. M. Richard, H. R. McAlexander, M. Saitow, X. Wang,
    P. Verma, M. H. Lechner, A. Jiang, S. Behnle, A. G. Heide,
    M. F. Herbst, and D. L. Poole

             Previous Authors, Complete List of Code Contributors,
                       and Citations for Specific Modules
    https://github.com/psi4/psi4/blob/master/codemeta.json
    https://github.com/psi4/psi4/graphs/contributors
    http://psicode.org/psi4manual/master/introduction.html#citing-psifour

    -----------------------------------------------------------------------


    Psi4 started on: Sunday, 10 August 2025 06:28PM

    Process ID: 50169
    Host:       Mac.lan
    PSIDATADIR: /Users/joseantoniorodriguesromero/anaconda3/share/psi4
    Memory:     500.0 MiB
    Threads:    1
    
  ==> Input File <==

--------------------------------------------------------------------------
molecule { 
1 3
O           0.000000           0.000000           0.000000
H           0.000000           0.000000           0.889993
}

set { 
basis              cc-pvtz
reference          uks
maxiter            500
DAMPING_PERCENTAGE 1
E_CONVERGENCE      1.0E-8
D_CONVERGENCE      1.0E-8
DIIS_MAX_VECS      400
MBIS_MAXITER       8000
guess              read
}

E, wfn = energy('b3lyp', restart_file='last_wfn', return_wfn=True)
properties('b3lyp','MBIS_CHARGES', wfn=wfn)
wfn.to_file('last_wfn')
--------------------------------------------------------------------------

Scratch directory: /tmp/
 Found user provided orbital data. Setting orbital guess to READ 
 Copying restart file <last_wfn.npy> to </tmp/scan_HO_15.default.50169.180.npy> for internal processing
   => Libint2 <=

    Primary   basis highest AM E, G, H:  6, 6, 3
    Auxiliary basis highest AM E, G, H:  7, 7, 4
    Onebody   basis highest AM E, G, H:  -, -, -
    Solid Harmonics ordering:            Gaussian

*** tstart() called on Mac.lan
*** at Sun Aug 10 18:28:41 2025

   => Loading Basis Set <=

    Name: CC-PVTZ
    Role: ORBITAL
    Keyword: BASIS
    atoms 1 entry O          line   262 file /Users/joseantoniorodriguesromero/anaconda3/share/psi4/basis/cc-pvtz.gbs 
    atoms 2 entry H          line    23 file /Users/joseantoniorodriguesromero/anaconda3/share/psi4/basis/cc-pvtz.gbs 


         ---------------------------------------------------------
                                   SCF
               by Justin Turney, Rob Parrish, Andy Simmonett
                          and Daniel G. A. Smith
                              UKS Reference
                        1 Threads,    500 MiB Core
         ---------------------------------------------------------

  ==> Geometry <==

    Molecular point group: c2v
    Full point group: C_inf_v

    Geometry (in Angstrom), charge = 1, multiplicity = 3:

       Center              X                  Y                   Z               Mass       
    ------------   -----------------  -----------------  -----------------  -----------------
         O            0.000000000000     0.000000000000    -0.052753688069    15.994914619570
         H            0.000000000000     0.000000000000     0.837239311931     1.007825032230

  Running in c2v symmetry.

  Rotational constants: A = ************  B =     22.44787  C =     22.44787 [cm^-1]
  Rotational constants: A = ************  B = 672970.23373  C = 672970.23373 [MHz]
  Nuclear repulsion =    4.756686496815144

  Charge       = 1
  Multiplicity = 3
  Electrons    = 8
  Nalpha       = 5
  Nbeta        = 3

  ==> Algorithm <==

  SCF Algorithm Type is DF.
  DIIS enabled.
  MOM disabled.
  Fractional occupation disabled.
  Guess Type is READ.
  Energy threshold   = 1.00e-08
  Density threshold  = 1.00e-08
  Integral threshold = 1.00e-12

  ==> Primary Basis <==

  Basis Set: CC-PVTZ
    Blend: CC-PVTZ
    Number of shells: 16
    Number of basis functions: 44
    Number of Cartesian functions: 50
    Spherical Harmonics?: true
    Max angular momentum: 3

  ==> DFT Potential <==

   => LibXC <=

    Version 6.2.2
    S. Lehtola, C. Steigemann, M. J.T. Oliveira, and M. A.L. Marques.,  SoftwareX 7, 1–5 (2018) (10.1016/j.softx.2017.11.002)

   => Composite Functional: B3LYP <= 

    B3LYP Hyb-GGA Exchange-Correlation Functional

    P. J. Stephens, F. J. Devlin, C. F. Chabalowski, and M. J. Frisch.,  J. Phys. Chem. 98, 11623 (1994) (10.1021/j100096a001)

    Deriv               =              1
    GGA                 =           TRUE
    Meta                =          FALSE

    Exchange Hybrid     =           TRUE
    MP2 Hybrid          =          FALSE

   => Exchange Functionals <=

    0.0800   Slater exchange
    0.7200         Becke 88

   => Exact (HF) Exchange <=

    0.2000               HF 

   => Correlation Functionals <=

    0.1900   Vosko, Wilk & Nusair (VWN5_RPA)
    0.8100   Lee, Yang & Parr

   => LibXC Density Thresholds  <==

    XC_HYB_GGA_XC_B3LYP:  1.00E-15 

   => Molecular Quadrature <=

    Radial Scheme          =       TREUTLER
    Pruning Scheme         =           NONE
    Nuclear Scheme         =       TREUTLER

    Blocking Scheme        =         OCTREE
    BS radius alpha        =              1
    Pruning alpha          =              1
    Radial Points          =             75
    Spherical Points       =            302
    Total Points           =          44120
    Total Blocks           =            391
    Max Points             =            256
    Max Functions          =             44
    Weights Tolerance      =       1.00E-15

   => Loading Basis Set <=

    Name: (CC-PVTZ AUX)
    Role: JKFIT
    Keyword: DF_BASIS_SCF
    atoms 1 entry O          line   229 file /Users/joseantoniorodriguesromero/anaconda3/share/psi4/basis/cc-pvtz-jkfit.gbs 
    atoms 2 entry H          line    51 file /Users/joseantoniorodriguesromero/anaconda3/share/psi4/basis/cc-pvtz-jkfit.gbs 

   => Loading Basis Set <=

    Name: CC-PVTZ
    Role: ORBITAL
    Keyword: BASIS
    atoms 1 entry O          line   262 file /Users/joseantoniorodriguesromero/anaconda3/share/psi4/basis/cc-pvtz.gbs 
    atoms 2 entry H          line    23 file /Users/joseantoniorodriguesromero/anaconda3/share/psi4/basis/cc-pvtz.gbs 

  Reading orbitals from file /tmp/scan_HO_15.default.50169.180.npy, no projection.

  ==> Integral Setup <==

  DFHelper Memory: AOs need 0.002 GiB; user supplied 0.312 GiB. 
  Using in-core AOs.

  ==> MemDFJK: Density-Fitted J/K Matrices <==

    J tasked:                   Yes
    K tasked:                   Yes
    wK tasked:                   No
    OpenMP threads:               1
    Memory [MiB]:               319
    Algorithm:                 Core
    Schwarz Cutoff:           1E-12
    Mask sparsity (%):       0.0000
    Fitting Condition:        1E-10

   => Auxiliary Basis Set <=

  Basis Set: (CC-PVTZ AUX)
    Blend: CC-PVTZ-JKFIT
    Number of shells: 35
    Number of basis functions: 109
    Number of Cartesian functions: 131
    Spherical Harmonics?: true
    Max angular momentum: 4

  Cached 100.0% of DFT collocation blocks in 0.055 [GiB].

  Minimum eigenvalue in the overlap matrix is 3.0618695063E-03.
  Reciprocal condition number of the overlap matrix is 7.5809690472E-04.
    Using symmetric orthogonalization.

  ==> Pre-Iterations <==

  SCF Guess: Orbitals guess was supplied from a previous computation.

   -------------------------------------------------------
    Irrep   Nso     Nmo     Nalpha   Nbeta   Ndocc  Nsocc
   -------------------------------------------------------
     A1        20      20       3       3       3       0
     A2         4       4       0       0       0       0
     B1        10      10       1       0       0       1
     B2        10      10       1       0       0       1
   -------------------------------------------------------
    Total      44      44       5       3       3       2
   -------------------------------------------------------

  ==> Iterations <==

                           Total Energy        Delta E     RMS |[F,P]|

   @DF-UKS iter   0:   -75.27539479154935   -7.52754e+01   2.10716e-03 
   @DF-UKS iter   1:   -75.26248462338989    1.29102e-02   2.45836e-04 ADIIS/DIIS
   @DF-UKS iter   2:   -75.26249414182756   -9.51844e-06   1.10758e-04 ADIIS/DIIS/DAMP=1%
   @DF-UKS iter   3:   -75.26254835908199   -5.42173e-05   2.25906e-05 DIIS/DAMP=1%
   @DF-UKS iter   4:   -75.26248648733971    6.18717e-05   2.78218e-06 DIIS/DAMP=1%
   @DF-UKS iter   5:   -75.26249747664696   -1.09893e-05   3.05572e-07 DIIS/DAMP=1%
   @DF-UKS iter   6:   -75.26249618537885    1.29127e-06   5.13395e-08 DIIS/DAMP=1%
   @DF-UKS iter   7:   -75.26249629094536   -1.05567e-07   2.86164e-09 DIIS/DAMP=1%
   @DF-UKS iter   8:   -75.26249627980762    1.11377e-08   2.23333e-10 DIIS/DAMP=1%
   @DF-UKS iter   9:   -75.26249627977928    2.83364e-11   2.16384e-11 DIIS/DAMP=1%
  Energy and wave function converged.


  ==> Post-Iterations <==

   Electrons on quadrature grid:
      Nalpha   =    4.9999999754 ; deviation = -2.456e-08
      Nbeta    =    2.9999999875 ; deviation = -1.248e-08
      Ntotal   =    7.9999999630 ; deviation = -3.703e-08 

   @Spin Contamination Metric:   3.850901653E-03
   @S^2 Expected:                2.000000000E+00
   @S^2 Observed:                2.003850902E+00
   @S   Expected:                1.000000000E+00
   @S   Observed:                1.000000000E+00

    Orbital Energies [Eh]
    ---------------------

    Alpha Occupied:                                                       

       1A1   -19.829771     2A1    -1.619245     3A1    -1.020968  
       1B1    -0.968953     1B2    -0.968953  

    Alpha Virtual:                                                        

       4A1    -0.272960     5A1     0.040086     2B1     0.135125  
       2B2     0.135125     6A1     0.152713     3B1     0.326028  
       3B2     0.326028     7A1     0.446033     8A1     0.908114  
       1A2     0.908114     9A1     0.949338     4B1     1.318741  
       4B2     1.318741    10A1     1.408463    11A1     2.038099  
       2A2     2.769966    12A1     2.769966     5B1     2.845528  
       5B2     2.845528     6B1     3.126848     6B2     3.126848  
      13A1     3.318547     7B1     3.672128     7B2     3.672128  
      14A1     3.947817    15A1     4.271395     8B2     4.483283  
       8B1     4.483283    16A1     4.893386     3A2     4.893386  
       4A2     5.512855    17A1     5.512855     9B1     5.769861  
       9B2     5.769861    18A1     6.050560    10B1     6.321065  
      10B2     6.321065    19A1     6.586821    20A1    10.400625  

    Beta Occupied:                                                        

       1A1   -19.773809     2A1    -1.472321     3A1    -0.961906  

    Beta Virtual:                                                         

       1B1    -0.665056     1B2    -0.665056     4A1    -0.257854  
       5A1     0.053549     6A1     0.164778     2B1     0.204803  
       2B2     0.204803     3B1     0.341567     3B2     0.341567  
       7A1     0.492675     8A1     0.974752     9A1     1.020082  
       1A2     1.020082     4B1     1.371778     4B2     1.371778  
      10A1     1.438978    11A1     2.053399     2A2     2.787698  
      12A1     2.787699     5B1     2.928918     5B2     2.928918  
       6B1     3.181903     6B2     3.181903    13A1     3.329861  
       7B1     3.710955     7B2     3.710955    14A1     4.005613  
      15A1     4.330454     8B2     4.635704     8B1     4.635704  
      16A1     4.990232     3A2     4.990232    17A1     5.724151  
       4A2     5.724151     9B1     5.876881     9B2     5.876881  
      18A1     6.100685    10B1     6.381424    10B2     6.381424  
      19A1     6.637797    20A1    10.470216  

    Final Occupation by Irrep:
             A1    A2    B1    B2 
    DOCC [     3,    0,    0,    0 ]
    SOCC [     0,    0,    1,    1 ]
    NA   [     3,    0,    1,    1 ]
    NB   [     3,    0,    0,    0 ]

  @DF-UKS Final Energy:   -75.26249627977928

   => Energetics <=

    Nuclear Repulsion Energy =              4.7566864968151439
    One-Electron Energy =                -108.4542722040299196
    Two-Electron Energy =                  35.3486930996437607
    DFT Exchange-Correlation Energy =      -6.9136036722082679
    Empirical Dispersion Energy =           0.0000000000000000
    VV10 Nonlocal Energy =                  0.0000000000000000
    Total Energy =                        -75.2624962797792705

  UHF NO Occupations:
  HONO-2 :    3 A1 1.9985297
  HONO-1 :    1 B2 1.0000000
  HONO-0 :    1 B1 1.0000000
  LUNO+0 :    4 A1 0.0014703
  LUNO+1 :    5 A1 0.0004549
  LUNO+2 :    6 A1 0.0000015
  LUNO+3 :    7 A1 0.0000000


Computation Completed


Properties will be evaluated at   0.000000,   0.000000,   0.000000 [a0]

Properties computed using the SCF density matrix


 Multipole Moments:

 ------------------------------------------------------------------------------------
     Multipole            Electronic (a.u.)      Nuclear  (a.u.)        Total (a.u.)
 ------------------------------------------------------------------------------------

 L = 1.  Multiply by 2.5417464519 to convert [e a0] to [Debye]
 Dipole X            :          0.0000000            0.0000000            0.0000000
 Dipole Y            :          0.0000000            0.0000000            0.0000000
 Dipole Z            :         -0.0135594            0.7846328            0.7710735
 Magnitude           :                                                    0.7710735

 ------------------------------------------------------------------------------------

*** tstop() called on Mac.lan at Sun Aug 10 18:28:42 2025
Module time:
	user time   =       8.63 seconds =       0.14 minutes
	system time =       1.96 seconds =       0.03 minutes
	total time  =          1 seconds =       0.02 minutes
Total time:
	user time   =       8.63 seconds =       0.14 minutes
	system time =       1.96 seconds =       0.03 minutes
	total time  =          1 seconds =       0.02 minutes

*** tstart() called on Mac.lan
*** at Sun Aug 10 18:28:42 2025

   => Libint2 <=

    Primary   basis highest AM E, G, H:  6, 6, 3
    Auxiliary basis highest AM E, G, H:  7, 7, 4
    Onebody   basis highest AM E, G, H:  -, -, -
    Solid Harmonics ordering:            Gaussian
   => Loading Basis Set <=

    Name: CC-PVTZ
    Role: ORBITAL
    Keyword: BASIS
    atoms 1 entry O          line   262 file /Users/joseantoniorodriguesromero/anaconda3/share/psi4/basis/cc-pvtz.gbs 
    atoms 2 entry H          line    23 file /Users/joseantoniorodriguesromero/anaconda3/share/psi4/basis/cc-pvtz.gbs 


         ---------------------------------------------------------
                                   SCF
               by Justin Turney, Rob Parrish, Andy Simmonett
                          and Daniel G. A. Smith
                              UKS Reference
                        1 Threads,    500 MiB Core
         ---------------------------------------------------------

  ==> Geometry <==

    Molecular point group: c2v
    Full point group: C_inf_v

    Geometry (in Angstrom), charge = 1, multiplicity = 3:

       Center              X                  Y                   Z               Mass       
    ------------   -----------------  -----------------  -----------------  -----------------
         O            0.000000000000     0.000000000000    -0.052753688069    15.994914619570
         H            0.000000000000     0.000000000000     0.837239311931     1.007825032230

  Running in c2v symmetry.

  Rotational constants: A = ************  B =     22.44787  C =     22.44787 [cm^-1]
  Rotational constants: A = ************  B = 672970.23373  C = 672970.23373 [MHz]
  Nuclear repulsion =    4.756686496815144

  Charge       = 1
  Multiplicity = 3
  Electrons    = 8
  Nalpha       = 5
  Nbeta        = 3

  ==> Algorithm <==

  SCF Algorithm Type is DF.
  DIIS enabled.
  MOM disabled.
  Fractional occupation disabled.
  Guess Type is READ.
  Energy threshold   = 1.00e-08
  Density threshold  = 1.00e-08
  Integral threshold = 1.00e-12

  ==> Primary Basis <==

  Basis Set: CC-PVTZ
    Blend: CC-PVTZ
    Number of shells: 16
    Number of basis functions: 44
    Number of Cartesian functions: 50
    Spherical Harmonics?: true
    Max angular momentum: 3

  ==> DFT Potential <==

   => LibXC <=

    Version 6.2.2
    S. Lehtola, C. Steigemann, M. J.T. Oliveira, and M. A.L. Marques.,  SoftwareX 7, 1–5 (2018) (10.1016/j.softx.2017.11.002)

   => Composite Functional: B3LYP <= 

    B3LYP Hyb-GGA Exchange-Correlation Functional

    P. J. Stephens, F. J. Devlin, C. F. Chabalowski, and M. J. Frisch.,  J. Phys. Chem. 98, 11623 (1994) (10.1021/j100096a001)

    Deriv               =              1
    GGA                 =           TRUE
    Meta                =          FALSE

    Exchange Hybrid     =           TRUE
    MP2 Hybrid          =          FALSE

   => Exchange Functionals <=

    0.0800   Slater exchange
    0.7200         Becke 88

   => Exact (HF) Exchange <=

    0.2000               HF 

   => Correlation Functionals <=

    0.1900   Vosko, Wilk & Nusair (VWN5_RPA)
    0.8100   Lee, Yang & Parr

   => LibXC Density Thresholds  <==

    XC_HYB_GGA_XC_B3LYP:  1.00E-15 

   => Molecular Quadrature <=

    Radial Scheme          =       TREUTLER
    Pruning Scheme         =           NONE
    Nuclear Scheme         =       TREUTLER

    Blocking Scheme        =         OCTREE
    BS radius alpha        =              1
    Pruning alpha          =              1
    Radial Points          =             75
    Spherical Points       =            302
    Total Points           =          44120
    Total Blocks           =            391
    Max Points             =            256
    Max Functions          =             44
    Weights Tolerance      =       1.00E-15

   => Loading Basis Set <=

    Name: (CC-PVTZ AUX)
    Role: JKFIT
    Keyword: DF_BASIS_SCF
    atoms 1 entry O          line   229 file /Users/joseantoniorodriguesromero/anaconda3/share/psi4/basis/cc-pvtz-jkfit.gbs 
    atoms 2 entry H          line    51 file /Users/joseantoniorodriguesromero/anaconda3/share/psi4/basis/cc-pvtz-jkfit.gbs 

   => Loading Basis Set <=

    Name: CC-PVTZ
    Role: ORBITAL
    Keyword: BASIS
    atoms 1 entry O          line   262 file /Users/joseantoniorodriguesromero/anaconda3/share/psi4/basis/cc-pvtz.gbs 
    atoms 2 entry H          line    23 file /Users/joseantoniorodriguesromero/anaconda3/share/psi4/basis/cc-pvtz.gbs 

  Reading orbitals from file /tmp/scan_HO_15.default.50169.180.npy, no projection.

  ==> Integral Setup <==

  DFHelper Memory: AOs need 0.002 GiB; user supplied 0.312 GiB. 
  Using in-core AOs.

  ==> MemDFJK: Density-Fitted J/K Matrices <==

    J tasked:                   Yes
    K tasked:                   Yes
    wK tasked:                   No
    OpenMP threads:               1
    Memory [MiB]:               319
    Algorithm:                 Core
    Schwarz Cutoff:           1E-12
    Mask sparsity (%):       0.0000
    Fitting Condition:        1E-10

   => Auxiliary Basis Set <=

  Basis Set: (CC-PVTZ AUX)
    Blend: CC-PVTZ-JKFIT
    Number of shells: 35
    Number of basis functions: 109
    Number of Cartesian functions: 131
    Spherical Harmonics?: true
    Max angular momentum: 4

  Cached 100.0% of DFT collocation blocks in 0.055 [GiB].

  Minimum eigenvalue in the overlap matrix is 3.0618695063E-03.
  Reciprocal condition number of the overlap matrix is 7.5809690472E-04.
    Using symmetric orthogonalization.

  ==> Pre-Iterations <==

  SCF Guess: Orbitals guess was supplied from a previous computation.

   -------------------------------------------------------
    Irrep   Nso     Nmo     Nalpha   Nbeta   Ndocc  Nsocc
   -------------------------------------------------------
     A1        20      20       3       3       3       0
     A2         4       4       0       0       0       0
     B1        10      10       1       0       0       1
     B2        10      10       1       0       0       1
   -------------------------------------------------------
    Total      44      44       5       3       3       2
   -------------------------------------------------------

  ==> Iterations <==

                           Total Energy        Delta E     RMS |[F,P]|

   @DF-UKS iter   0:   -75.26249627978950   -7.52625e+01   1.80978e-12 
   @DF-UKS iter   1:   -75.26249627978954   -4.26326e-14   7.52142e-13 DIIS
  Energy and wave function converged.


  ==> Post-Iterations <==

   Electrons on quadrature grid:
      Nalpha   =    4.9999999754 ; deviation = -2.456e-08
      Nbeta    =    2.9999999875 ; deviation = -1.248e-08
      Ntotal   =    7.9999999630 ; deviation = -3.703e-08 

   @Spin Contamination Metric:   3.850901652E-03
   @S^2 Expected:                2.000000000E+00
   @S^2 Observed:                2.003850902E+00
   @S   Expected:                1.000000000E+00
   @S   Observed:                1.000000000E+00

    Orbital Energies [Eh]
    ---------------------

    Alpha Occupied:                                                       

       1A1   -19.829771     2A1    -1.619245     3A1    -1.020968  
       1B1    -0.968953     1B2    -0.968953  

    Alpha Virtual:                                                        

       4A1    -0.272960     5A1     0.040086     2B1     0.135125  
       2B2     0.135125     6A1     0.152713     3B1     0.326028  
       3B2     0.326028     7A1     0.446033     8A1     0.908114  
       1A2     0.908114     9A1     0.949338     4B1     1.318741  
       4B2     1.318741    10A1     1.408463    11A1     2.038099  
       2A2     2.769966    12A1     2.769966     5B1     2.845528  
       5B2     2.845528     6B1     3.126848     6B2     3.126848  
      13A1     3.318547     7B1     3.672128     7B2     3.672128  
      14A1     3.947817    15A1     4.271395     8B2     4.483283  
       8B1     4.483283    16A1     4.893386     3A2     4.893386  
       4A2     5.512855    17A1     5.512855     9B1     5.769861  
       9B2     5.769861    18A1     6.050560    10B1     6.321065  
      10B2     6.321065    19A1     6.586821    20A1    10.400625  

    Beta Occupied:                                                        

       1A1   -19.773809     2A1    -1.472321     3A1    -0.961906  

    Beta Virtual:                                                         

       1B1    -0.665056     1B2    -0.665056     4A1    -0.257854  
       5A1     0.053549     6A1     0.164778     2B1     0.204803  
       2B2     0.204803     3B1     0.341567     3B2     0.341567  
       7A1     0.492675     8A1     0.974752     9A1     1.020082  
       1A2     1.020082     4B1     1.371778     4B2     1.371778  
      10A1     1.438978    11A1     2.053399     2A2     2.787698  
      12A1     2.787699     5B1     2.928918     5B2     2.928918  
       6B1     3.181903     6B2     3.181903    13A1     3.329861  
       7B1     3.710955     7B2     3.710955    14A1     4.005613  
      15A1     4.330454     8B2     4.635704     8B1     4.635704  
      16A1     4.990232     3A2     4.990232    17A1     5.724151  
       4A2     5.724151     9B1     5.876881     9B2     5.876881  
      18A1     6.100685    10B1     6.381424    10B2     6.381424  
      19A1     6.637797    20A1    10.470216  

    Final Occupation by Irrep:
             A1    A2    B1    B2 
    DOCC [     3,    0,    0,    0 ]
    SOCC [     0,    0,    1,    1 ]
    NA   [     3,    0,    1,    1 ]
    NB   [     3,    0,    0,    0 ]

  @DF-UKS Final Energy:   -75.26249627978954

   => Energetics <=

    Nuclear Repulsion Energy =              4.7566864968151439
    One-Electron Energy =                -108.4542722038857363
    Two-Electron Energy =                  35.3486930994433308
    DFT Exchange-Correlation Energy =      -6.9136036721622789
    Empirical Dispersion Energy =           0.0000000000000000
    VV10 Nonlocal Energy =                  0.0000000000000000
    Total Energy =                        -75.2624962797895307

  UHF NO Occupations:
  HONO-2 :    3 A1 1.9985297
  HONO-1 :    1 B2 1.0000000
  HONO-0 :    1 B1 1.0000000
  LUNO+0 :    4 A1 0.0014703
  LUNO+1 :    5 A1 0.0004549
  LUNO+2 :    6 A1 0.0000015
  LUNO+3 :    7 A1 0.0000000


Computation Completed


Properties will be evaluated at   0.000000,   0.000000,   0.000000 [a0]

Properties computed using the B3LYP density matrix


 Multipole Moments:

 ------------------------------------------------------------------------------------
     Multipole            Electronic (a.u.)      Nuclear  (a.u.)        Total (a.u.)
 ------------------------------------------------------------------------------------

 L = 1.  Multiply by 2.5417464519 to convert [e a0] to [Debye]
 Dipole X            :          0.0000000            0.0000000            0.0000000
 Dipole Y            :          0.0000000            0.0000000            0.0000000
 Dipole Z            :         -0.0135594            0.7846328            0.7710735
 Magnitude           :                                                    0.7710735

 L = 2.  Multiply by 1.3450342976 to convert [e a0^2] to [Debye ang]
 Quadrupole XX       :         -2.9577776            0.0000000           -2.9577776
 Quadrupole XY       :          0.0000000            0.0000000            0.0000000
 Quadrupole XZ       :          0.0000000            0.0000000            0.0000000
 Quadrupole YY       :         -2.9577776            0.0000000           -2.9577776
 Quadrupole YZ       :          0.0000000            0.0000000            0.0000000
 Quadrupole ZZ       :         -4.5804990            2.5827129           -1.9977861
 Traceless XX        :          0.5409071           -0.8609043           -0.3199972
 Traceless YY        :          0.5409071           -0.8609043           -0.3199972
 Traceless ZZ        :         -1.0818142            1.7218086            0.6399944

 ------------------------------------------------------------------------------------
  ==> Computing MBIS Charges <==

  Electron Count from Grid (Expected Number):  8.00000 ( 8.00000)
  Difference: -0.00000

  MBIS Charges: (a.u.)
   Center  Symbol  Z      Pop.       Charge
      1       O    8    7.487608    0.512392
      2       H    1    0.512392    0.487608

  MBIS Dipoles: [e a0]
   Center  Symbol  Z        X           Y           Z
      1       O    8    0.000000   -0.000000    0.008997
      2       H    1    0.000000    0.000000    0.041686

  MBIS Quadrupoles: [e a0^2]
   Center  Symbol  Z      XX        XY        XZ        YY        YZ        ZZ
      1       O    8   -2.7773   -0.0000    0.0000   -2.7773   -0.0000   -3.1775
      2       H    1   -0.1805   -0.0000    0.0000   -0.1805   -0.0000   -0.1760

  MBIS Octupoles: [e a0^3]
   Center  Symbol  Z      XXX       XXY       XXZ       XYY       XYZ       XZZ       YYY       YYZ       YZZ       ZZZ
      1       O    8    0.0000   -0.0000    0.0224    0.0000   -0.0000    0.0000   -0.0000    0.0224   -0.0000    0.0100
      2       H    1    0.0000   -0.0000    0.0050    0.0000   -0.0000    0.0000    0.0000    0.0050   -0.0000    0.0210

  MBIS Radial Moments:
   Center  Symbol  Z      [a0^2]      [a0^3]      [a0^4]      
      1       O    8    8.732086   14.726397   29.770007
      2       H    1    0.537046    0.779265    1.355845

  MBIS Valence Widths: [a0]
   Center  Symbol  Z     Width
      1       O    8    0.354168
      2       H    1    0.298921

*** tstop() called on Mac.lan at Sun Aug 10 18:28:42 2025
Module time:
	user time   =       3.02 seconds =       0.05 minutes
	system time =       1.98 seconds =       0.03 minutes
	total time  =          0 seconds =       0.00 minutes
Total time:
	user time   =      11.69 seconds =       0.19 minutes
	system time =       4.14 seconds =       0.07 minutes
	total time  =          1 seconds =       0.02 minutes

    Psi4 stopped on: Sunday, 10 August 2025 06:28PM
    Psi4 wall time for execution: 0:00:01.54

*** Psi4 exiting successfully. Buy a developer a beer!
