
    -----------------------------------------------------------------------
          Psi4: An Open-Source Ab Initio Electronic Structure Package
                               Psi4 1.9.1 release

                         Git: Rev {} zzzzzzz 


    D. G. A. Smith, L. A. Burns, A. C. Simmonett, R. M. Parrish,
    M. C. Schieber, R. Galvelis, P. Kraus, H. Kruse, R. Di Remigio,
    A. Alenaizan, A. M. James, S. Lehtola, J. P. Misiewicz, M. Scheurer,
    R. A. Shaw, J. B. Schriber, Y. Xie, Z. L. Glick, D. A. Sirianni,
    J. S. O'Brien, J. M. Waldrop, A. Kumar, E. G. Hohenstein,
    B. P. Pritchard, B. R. Brooks, H. F. Schaefer III, A. Yu. Sokolov,
    K. Patkowski, A. E. DePrince III, U. Bozkaya, R. A. King,
    F. A. Evangelista, J. M. Turney, T. D. Crawford, C. D. Sherrill,
    J. Chem. Phys. 152(18) 184108 (2020). https://doi.org/10.1063/5.0006002

                            Additional Code Authors
    E. T. Seidl, C. L. Janssen, E. F. Valeev, M. L. Leininger,
    J. F. Gonthier, R. M. Richard, H. R. McAlexander, M. Saitow, X. Wang,
    P. Verma, M. H. Lechner, A. Jiang, S. Behnle, A. G. Heide,
    M. F. Herbst, and D. L. Poole

             Previous Authors, Complete List of Code Contributors,
                       and Citations for Specific Modules
    https://github.com/psi4/psi4/blob/master/codemeta.json
    https://github.com/psi4/psi4/graphs/contributors
    http://psicode.org/psi4manual/master/introduction.html#citing-psifour

    -----------------------------------------------------------------------


    Psi4 started on: Sunday, 10 August 2025 06:24PM

    Process ID: 50024
    Host:       Mac.lan
    PSIDATADIR: /Users/joseantoniorodriguesromero/anaconda3/share/psi4
    Memory:     500.0 MiB
    Threads:    1
    
  ==> Input File <==

--------------------------------------------------------------------------
molecule { 
1 2
N           0.000000           0.000000           0.000000
N           0.000000           0.000000           0.703448
}

set { 
basis              cc-pvtz
reference          uks
maxiter            500
DAMPING_PERCENTAGE 1
E_CONVERGENCE      1.0E-8
D_CONVERGENCE      1.0E-8
DIIS_MAX_VECS      400
MBIS_MAXITER       8000
guess              read
}

E, wfn = energy('b3lyp', restart_file='last_wfn', return_wfn=True)
properties('b3lyp','MBIS_CHARGES', wfn=wfn)
wfn.to_file('last_wfn')
--------------------------------------------------------------------------

Scratch directory: /tmp/
 Found user provided orbital data. Setting orbital guess to READ 
 Copying restart file <last_wfn.npy> to </tmp/scan_NN_3.default.50024.180.npy> for internal processing
   => Libint2 <=

    Primary   basis highest AM E, G, H:  6, 6, 3
    Auxiliary basis highest AM E, G, H:  7, 7, 4
    Onebody   basis highest AM E, G, H:  -, -, -
    Solid Harmonics ordering:            Gaussian

*** tstart() called on Mac.lan
*** at Sun Aug 10 18:24:52 2025

   => Loading Basis Set <=

    Name: CC-PVTZ
    Role: ORBITAL
    Keyword: BASIS
    atoms 1-2 entry N          line   224 file /Users/joseantoniorodriguesromero/anaconda3/share/psi4/basis/cc-pvtz.gbs 


         ---------------------------------------------------------
                                   SCF
               by Justin Turney, Rob Parrish, Andy Simmonett
                          and Daniel G. A. Smith
                              UKS Reference
                        1 Threads,    500 MiB Core
         ---------------------------------------------------------

  ==> Geometry <==

    Molecular point group: d2h
    Full point group: D_inf_h

    Geometry (in Angstrom), charge = 1, multiplicity = 2:

       Center              X                  Y                   Z               Mass       
    ------------   -----------------  -----------------  -----------------  -----------------
         N            0.000000000000     0.000000000000    -0.351724000000    14.003074004430
         N            0.000000000000     0.000000000000     0.351724000000    14.003074004430

  Running in d2h symmetry.

  Rotational constants: A = ************  B =      4.86563  C =      4.86563 [cm^-1]
  Rotational constants: A = ************  B = 145867.92751  C = 145867.92751 [MHz]
  Nuclear repulsion =   36.860838786704925

  Charge       = 1
  Multiplicity = 2
  Electrons    = 13
  Nalpha       = 7
  Nbeta        = 6

  ==> Algorithm <==

  SCF Algorithm Type is DF.
  DIIS enabled.
  MOM disabled.
  Fractional occupation disabled.
  Guess Type is READ.
  Energy threshold   = 1.00e-08
  Density threshold  = 1.00e-08
  Integral threshold = 1.00e-12

  ==> Primary Basis <==

  Basis Set: CC-PVTZ
    Blend: CC-PVTZ
    Number of shells: 20
    Number of basis functions: 60
    Number of Cartesian functions: 70
    Spherical Harmonics?: true
    Max angular momentum: 3

  ==> DFT Potential <==

   => LibXC <=

    Version 6.2.2
    S. Lehtola, C. Steigemann, M. J.T. Oliveira, and M. A.L. Marques.,  SoftwareX 7, 1–5 (2018) (10.1016/j.softx.2017.11.002)

   => Composite Functional: B3LYP <= 

    B3LYP Hyb-GGA Exchange-Correlation Functional

    P. J. Stephens, F. J. Devlin, C. F. Chabalowski, and M. J. Frisch.,  J. Phys. Chem. 98, 11623 (1994) (10.1021/j100096a001)

    Deriv               =              1
    GGA                 =           TRUE
    Meta                =          FALSE

    Exchange Hybrid     =           TRUE
    MP2 Hybrid          =          FALSE

   => Exchange Functionals <=

    0.0800   Slater exchange
    0.7200         Becke 88

   => Exact (HF) Exchange <=

    0.2000               HF 

   => Correlation Functionals <=

    0.1900   Vosko, Wilk & Nusair (VWN5_RPA)
    0.8100   Lee, Yang & Parr

   => LibXC Density Thresholds  <==

    XC_HYB_GGA_XC_B3LYP:  1.00E-15 

   => Molecular Quadrature <=

    Radial Scheme          =       TREUTLER
    Pruning Scheme         =           NONE
    Nuclear Scheme         =       TREUTLER

    Blocking Scheme        =         OCTREE
    BS radius alpha        =              1
    Pruning alpha          =              1
    Radial Points          =             75
    Spherical Points       =            302
    Total Points           =          42374
    Total Blocks           =            378
    Max Points             =            256
    Max Functions          =             60
    Weights Tolerance      =       1.00E-15

   => Loading Basis Set <=

    Name: (CC-PVTZ AUX)
    Role: JKFIT
    Keyword: DF_BASIS_SCF
    atoms 1-2 entry N          line   177 file /Users/joseantoniorodriguesromero/anaconda3/share/psi4/basis/cc-pvtz-jkfit.gbs 

   => Loading Basis Set <=

    Name: CC-PVTZ
    Role: ORBITAL
    Keyword: BASIS
    atoms 1-2 entry N          line   224 file /Users/joseantoniorodriguesromero/anaconda3/share/psi4/basis/cc-pvtz.gbs 

  Reading orbitals from file /tmp/scan_NN_3.default.50024.180.npy, no projection.

  ==> Integral Setup <==

  DFHelper Memory: AOs need 0.005 GiB; user supplied 0.295 GiB. 
  Using in-core AOs.

  ==> MemDFJK: Density-Fitted J/K Matrices <==

    J tasked:                   Yes
    K tasked:                   Yes
    wK tasked:                   No
    OpenMP threads:               1
    Memory [MiB]:               301
    Algorithm:                 Core
    Schwarz Cutoff:           1E-12
    Mask sparsity (%):       0.0000
    Fitting Condition:        1E-10

   => Auxiliary Basis Set <=

  Basis Set: (CC-PVTZ AUX)
    Blend: CC-PVTZ-JKFIT
    Number of shells: 50
    Number of basis functions: 158
    Number of Cartesian functions: 192
    Spherical Harmonics?: true
    Max angular momentum: 4

  Cached 100.0% of DFT collocation blocks in 0.072 [GiB].

  Minimum eigenvalue in the overlap matrix is 8.7099451935E-04.
  Reciprocal condition number of the overlap matrix is 2.1361179291E-04.
    Using symmetric orthogonalization.

  ==> Pre-Iterations <==

  SCF Guess: Orbitals guess was supplied from a previous computation.

   -------------------------------------------------------
    Irrep   Nso     Nmo     Nalpha   Nbeta   Ndocc  Nsocc
   -------------------------------------------------------
     Ag        13      13       3       2       2       1
     B1g        3       3       0       0       0       0
     B2g        7       7       0       0       0       0
     B3g        7       7       0       0       0       0
     Au         3       3       0       0       0       0
     B1u       13      13       2       2       2       0
     B2u        7       7       1       1       1       0
     B3u        7       7       1       1       1       0
   -------------------------------------------------------
    Total      60      60       7       6       6       1
   -------------------------------------------------------

  ==> Iterations <==

                           Total Energy        Delta E     RMS |[F,P]|

   @DF-UKS iter   0:  -107.73676557966593   -1.07737e+02   9.62187e-03 
   @DF-UKS iter   1:  -107.74082276712821   -4.05719e-03   1.02817e-03 ADIIS/DIIS
   @DF-UKS iter   2:  -107.74090140176470   -7.86346e-05   5.32742e-04 ADIIS/DIIS/DAMP=1%
   @DF-UKS iter   3:  -107.74062325680410    2.78145e-04   4.75831e-05 DIIS/DAMP=1%
   @DF-UKS iter   4:  -107.74096772310641   -3.44466e-04   2.85464e-06 DIIS/DAMP=1%
   @DF-UKS iter   5:  -107.74094392020018    2.38029e-05   4.94944e-07 DIIS/DAMP=1%
   @DF-UKS iter   6:  -107.74094381742398    1.02776e-07   3.02024e-08 DIIS/DAMP=1%
   @DF-UKS iter   7:  -107.74094405943579   -2.42012e-07   5.50929e-09 DIIS/DAMP=1%
   @DF-UKS iter   8:  -107.74094404038611    1.90497e-08   3.83809e-10 DIIS/DAMP=1%
   @DF-UKS iter   9:  -107.74094404372886   -3.34275e-09   2.38229e-11 DIIS/DAMP=1%
  Energy and wave function converged.


  ==> Post-Iterations <==

   Electrons on quadrature grid:
      Nalpha   =    7.0000001530 ; deviation = 1.530e-07
      Nbeta    =    6.0000001541 ; deviation = 1.541e-07
      Ntotal   =   13.0000003071 ; deviation = 3.071e-07 

   @Spin Contamination Metric:   1.937531286E-03
   @S^2 Expected:                7.500000000E-01
   @S^2 Observed:                7.519375313E-01
   @S   Expected:                5.000000000E-01
   @S   Observed:                5.000000000E-01

    Orbital Energies [Eh]
    ---------------------

    Alpha Occupied:                                                       

       1Ag   -14.931129     1B1u  -14.844903     2Ag    -1.760870  
       1B3u   -1.149218     1B2u   -1.149218     3Ag    -0.960688  
       2B1u   -0.918975  

    Alpha Virtual:                                                        

       1B2g   -0.200791     1B3g   -0.200791     2B2u   -0.000636  
       2B3u   -0.000636     3B1u    0.016708     4Ag     0.059445  
       5Ag     0.154589     2B2g    0.293329     2B3g    0.293329  
       1B1g    0.439557     6Ag     0.439557     4B1u    0.540894  
       3B2u    0.942173     3B3u    0.942173     5B1u    1.021494  
       1Au     1.027067     6B1u    1.027067     7Ag     1.133042  
       3B2g    1.346604     3B3g    1.346604     4B2u    2.050348  
       4B3u    2.050348     7B1u    2.679613     8Ag     2.785422  
       5B2u    3.022609     5B3u    3.022609     4B3g    3.056530  
       4B2g    3.056530     9Ag     3.151599     2B1g    3.151599  
       8B1u    3.265078     6B2u    3.566742     6B3u    3.566742  
      10Ag     3.772663     2Au     3.830700     9B1u    3.830700  
       5B3g    4.026500     5B2g    4.026500     6B3g    4.034958  
       6B2g    4.034958     3B1g    4.083616    11Ag     4.083616  
      12Ag     4.291173    10B1u    4.872907     7B2u    5.429718  
       7B3u    5.429718    11B1u    5.778057     3Au     5.778057  
       7B3g    7.587916     7B2g    7.587916    12B1u    7.795826  
      13Ag     8.342795    13B1u   28.014626  

    Beta Occupied:                                                        

       1Ag   -14.913996     1B1u  -14.830086     2Ag    -1.723696  
       1B3u   -1.133241     1B2u   -1.133241     2B1u   -0.823965  

    Beta Virtual:                                                         

       3Ag    -0.771834     1B2g   -0.175034     1B3g   -0.175034  
       2B2u    0.004591     2B3u    0.004591     3B1u    0.029598  
       4Ag     0.077869     5Ag     0.182726     2B2g    0.304828  
       2B3g    0.304828     1B1g    0.446963     6Ag     0.446963  
       4B1u    0.564087     3B2u    0.972371     3B3u    0.972371  
       1Au     1.040334     5B1u    1.040334     6B1u    1.049506  
       7Ag     1.170236     3B2g    1.364406     3B3g    1.364406  
       4B2u    2.062869     4B3u    2.062869     7B1u    2.760642  
       8Ag     2.817439     5B2u    3.028665     5B3u    3.028665  
       4B3g    3.072313     4B2g    3.072313     9Ag     3.156256  
       2B1g    3.156256     8B1u    3.282756     6B2u    3.627554  
       6B3u    3.627554    10Ag     3.843846     2Au     3.864095  
       9B1u    3.864096     5B3g    4.048634     5B2g    4.048634  
       6B3g    4.077702     6B2g    4.077702     3B1g    4.117071  
      11Ag     4.117071    12Ag     4.335059    10B1u    4.923736  
       7B2u    5.466098     7B3u    5.466098    11B1u    5.792611  
       3Au     5.792611     7B3g    7.629431     7B2g    7.629431  
      12B1u    7.856096    13Ag     8.375779    13B1u   28.038189  

    Final Occupation by Irrep:
             Ag   B1g   B2g   B3g    Au   B1u   B2u   B3u 
    DOCC [     2,    0,    0,    0,    0,    2,    1,    1 ]
    SOCC [     1,    0,    0,    0,    0,    0,    0,    0 ]
    NA   [     3,    0,    0,    0,    0,    2,    1,    1 ]
    NB   [     2,    0,    0,    0,    0,    2,    1,    1 ]

  @DF-UKS Final Energy:  -107.74094404372886

   => Energetics <=

    Nuclear Repulsion Energy =             36.8608387867049245
    One-Electron Energy =                -210.7531478524381612
    Two-Electron Energy =                  77.5400760813455463
    DFT Exchange-Correlation Energy =     -11.3887110593411709
    Empirical Dispersion Energy =           0.0000000000000000
    VV10 Nonlocal Energy =                  0.0000000000000000
    Total Energy =                       -107.7409440437288595

  UHF NO Occupations:
  HONO-2 :    2 Ag 1.9999066
  HONO-1 :    2B1u 1.9991993
  HONO-0 :    3 Ag 1.0000000
  LUNO+0 :    3B1u 0.0008007
  LUNO+1 :    4 Ag 0.0000934
  LUNO+2 :    2B3u 0.0000371
  LUNO+3 :    2B2u 0.0000371


Computation Completed


Properties will be evaluated at   0.000000,   0.000000,   0.000000 [a0]

Properties computed using the SCF density matrix


 Multipole Moments:

 ------------------------------------------------------------------------------------
     Multipole            Electronic (a.u.)      Nuclear  (a.u.)        Total (a.u.)
 ------------------------------------------------------------------------------------

 L = 1.  Multiply by 2.5417464519 to convert [e a0] to [Debye]
 Dipole X            :          0.0000000            0.0000000            0.0000000
 Dipole Y            :          0.0000000            0.0000000            0.0000000
 Dipole Z            :          0.0000000            0.0000000            0.0000000
 Magnitude           :                                                    0.0000000

 ------------------------------------------------------------------------------------

*** tstop() called on Mac.lan at Sun Aug 10 18:24:53 2025
Module time:
	user time   =      11.90 seconds =       0.20 minutes
	system time =       2.24 seconds =       0.04 minutes
	total time  =          1 seconds =       0.02 minutes
Total time:
	user time   =      11.90 seconds =       0.20 minutes
	system time =       2.24 seconds =       0.04 minutes
	total time  =          1 seconds =       0.02 minutes

*** tstart() called on Mac.lan
*** at Sun Aug 10 18:24:53 2025

   => Libint2 <=

    Primary   basis highest AM E, G, H:  6, 6, 3
    Auxiliary basis highest AM E, G, H:  7, 7, 4
    Onebody   basis highest AM E, G, H:  -, -, -
    Solid Harmonics ordering:            Gaussian
   => Loading Basis Set <=

    Name: CC-PVTZ
    Role: ORBITAL
    Keyword: BASIS
    atoms 1-2 entry N          line   224 file /Users/joseantoniorodriguesromero/anaconda3/share/psi4/basis/cc-pvtz.gbs 


         ---------------------------------------------------------
                                   SCF
               by Justin Turney, Rob Parrish, Andy Simmonett
                          and Daniel G. A. Smith
                              UKS Reference
                        1 Threads,    500 MiB Core
         ---------------------------------------------------------

  ==> Geometry <==

    Molecular point group: d2h
    Full point group: D_inf_h

    Geometry (in Angstrom), charge = 1, multiplicity = 2:

       Center              X                  Y                   Z               Mass       
    ------------   -----------------  -----------------  -----------------  -----------------
         N            0.000000000000     0.000000000000    -0.351724000000    14.003074004430
         N            0.000000000000     0.000000000000     0.351724000000    14.003074004430

  Running in d2h symmetry.

  Rotational constants: A = ************  B =      4.86563  C =      4.86563 [cm^-1]
  Rotational constants: A = ************  B = 145867.92751  C = 145867.92751 [MHz]
  Nuclear repulsion =   36.860838786704925

  Charge       = 1
  Multiplicity = 2
  Electrons    = 13
  Nalpha       = 7
  Nbeta        = 6

  ==> Algorithm <==

  SCF Algorithm Type is DF.
  DIIS enabled.
  MOM disabled.
  Fractional occupation disabled.
  Guess Type is READ.
  Energy threshold   = 1.00e-08
  Density threshold  = 1.00e-08
  Integral threshold = 1.00e-12

  ==> Primary Basis <==

  Basis Set: CC-PVTZ
    Blend: CC-PVTZ
    Number of shells: 20
    Number of basis functions: 60
    Number of Cartesian functions: 70
    Spherical Harmonics?: true
    Max angular momentum: 3

  ==> DFT Potential <==

   => LibXC <=

    Version 6.2.2
    S. Lehtola, C. Steigemann, M. J.T. Oliveira, and M. A.L. Marques.,  SoftwareX 7, 1–5 (2018) (10.1016/j.softx.2017.11.002)

   => Composite Functional: B3LYP <= 

    B3LYP Hyb-GGA Exchange-Correlation Functional

    P. J. Stephens, F. J. Devlin, C. F. Chabalowski, and M. J. Frisch.,  J. Phys. Chem. 98, 11623 (1994) (10.1021/j100096a001)

    Deriv               =              1
    GGA                 =           TRUE
    Meta                =          FALSE

    Exchange Hybrid     =           TRUE
    MP2 Hybrid          =          FALSE

   => Exchange Functionals <=

    0.0800   Slater exchange
    0.7200         Becke 88

   => Exact (HF) Exchange <=

    0.2000               HF 

   => Correlation Functionals <=

    0.1900   Vosko, Wilk & Nusair (VWN5_RPA)
    0.8100   Lee, Yang & Parr

   => LibXC Density Thresholds  <==

    XC_HYB_GGA_XC_B3LYP:  1.00E-15 

   => Molecular Quadrature <=

    Radial Scheme          =       TREUTLER
    Pruning Scheme         =           NONE
    Nuclear Scheme         =       TREUTLER

    Blocking Scheme        =         OCTREE
    BS radius alpha        =              1
    Pruning alpha          =              1
    Radial Points          =             75
    Spherical Points       =            302
    Total Points           =          42374
    Total Blocks           =            378
    Max Points             =            256
    Max Functions          =             60
    Weights Tolerance      =       1.00E-15

   => Loading Basis Set <=

    Name: (CC-PVTZ AUX)
    Role: JKFIT
    Keyword: DF_BASIS_SCF
    atoms 1-2 entry N          line   177 file /Users/joseantoniorodriguesromero/anaconda3/share/psi4/basis/cc-pvtz-jkfit.gbs 

   => Loading Basis Set <=

    Name: CC-PVTZ
    Role: ORBITAL
    Keyword: BASIS
    atoms 1-2 entry N          line   224 file /Users/joseantoniorodriguesromero/anaconda3/share/psi4/basis/cc-pvtz.gbs 

  Reading orbitals from file /tmp/scan_NN_3.default.50024.180.npy, no projection.

  ==> Integral Setup <==

  DFHelper Memory: AOs need 0.005 GiB; user supplied 0.295 GiB. 
  Using in-core AOs.

  ==> MemDFJK: Density-Fitted J/K Matrices <==

    J tasked:                   Yes
    K tasked:                   Yes
    wK tasked:                   No
    OpenMP threads:               1
    Memory [MiB]:               301
    Algorithm:                 Core
    Schwarz Cutoff:           1E-12
    Mask sparsity (%):       0.0000
    Fitting Condition:        1E-10

   => Auxiliary Basis Set <=

  Basis Set: (CC-PVTZ AUX)
    Blend: CC-PVTZ-JKFIT
    Number of shells: 50
    Number of basis functions: 158
    Number of Cartesian functions: 192
    Spherical Harmonics?: true
    Max angular momentum: 4

  Cached 100.0% of DFT collocation blocks in 0.072 [GiB].

  Minimum eigenvalue in the overlap matrix is 8.7099451935E-04.
  Reciprocal condition number of the overlap matrix is 2.1361179291E-04.
    Using symmetric orthogonalization.

  ==> Pre-Iterations <==

  SCF Guess: Orbitals guess was supplied from a previous computation.

   -------------------------------------------------------
    Irrep   Nso     Nmo     Nalpha   Nbeta   Ndocc  Nsocc
   -------------------------------------------------------
     Ag        13      13       3       2       2       1
     B1g        3       3       0       0       0       0
     B2g        7       7       0       0       0       0
     B3g        7       7       0       0       0       0
     Au         3       3       0       0       0       0
     B1u       13      13       2       2       2       0
     B2u        7       7       1       1       1       0
     B3u        7       7       1       1       1       0
   -------------------------------------------------------
    Total      60      60       7       6       6       1
   -------------------------------------------------------

  ==> Iterations <==

                           Total Energy        Delta E     RMS |[F,P]|

   @DF-UKS iter   0:  -107.74094404354483   -1.07741e+02   7.02376e-13 
   @DF-UKS iter   1:  -107.74094404354490   -7.10543e-14   1.82686e-13 DIIS
  Energy and wave function converged.


  ==> Post-Iterations <==

   Electrons on quadrature grid:
      Nalpha   =    7.0000001530 ; deviation = 1.530e-07
      Nbeta    =    6.0000001541 ; deviation = 1.541e-07
      Ntotal   =   13.0000003071 ; deviation = 3.071e-07 

   @Spin Contamination Metric:   1.937531285E-03
   @S^2 Expected:                7.500000000E-01
   @S^2 Observed:                7.519375313E-01
   @S   Expected:                5.000000000E-01
   @S   Observed:                5.000000000E-01

    Orbital Energies [Eh]
    ---------------------

    Alpha Occupied:                                                       

       1Ag   -14.931129     1B1u  -14.844903     2Ag    -1.760870  
       1B3u   -1.149218     1B2u   -1.149218     3Ag    -0.960688  
       2B1u   -0.918975  

    Alpha Virtual:                                                        

       1B2g   -0.200791     1B3g   -0.200791     2B2u   -0.000636  
       2B3u   -0.000636     3B1u    0.016708     4Ag     0.059445  
       5Ag     0.154589     2B2g    0.293329     2B3g    0.293329  
       1B1g    0.439557     6Ag     0.439557     4B1u    0.540894  
       3B2u    0.942173     3B3u    0.942173     5B1u    1.021494  
       1Au     1.027067     6B1u    1.027067     7Ag     1.133042  
       3B2g    1.346604     3B3g    1.346604     4B2u    2.050348  
       4B3u    2.050348     7B1u    2.679613     8Ag     2.785422  
       5B2u    3.022609     5B3u    3.022609     4B3g    3.056530  
       4B2g    3.056530     9Ag     3.151599     2B1g    3.151599  
       8B1u    3.265078     6B2u    3.566742     6B3u    3.566742  
      10Ag     3.772663     2Au     3.830700     9B1u    3.830700  
       5B3g    4.026500     5B2g    4.026500     6B3g    4.034958  
       6B2g    4.034958     3B1g    4.083616    11Ag     4.083616  
      12Ag     4.291173    10B1u    4.872907     7B2u    5.429718  
       7B3u    5.429718    11B1u    5.778057     3Au     5.778057  
       7B3g    7.587916     7B2g    7.587916    12B1u    7.795826  
      13Ag     8.342795    13B1u   28.014626  

    Beta Occupied:                                                        

       1Ag   -14.913996     1B1u  -14.830086     2Ag    -1.723696  
       1B3u   -1.133241     1B2u   -1.133241     2B1u   -0.823965  

    Beta Virtual:                                                         

       3Ag    -0.771834     1B2g   -0.175034     1B3g   -0.175034  
       2B2u    0.004591     2B3u    0.004591     3B1u    0.029598  
       4Ag     0.077869     5Ag     0.182726     2B2g    0.304828  
       2B3g    0.304828     1B1g    0.446963     6Ag     0.446963  
       4B1u    0.564087     3B2u    0.972371     3B3u    0.972371  
       1Au     1.040334     5B1u    1.040334     6B1u    1.049506  
       7Ag     1.170236     3B2g    1.364406     3B3g    1.364406  
       4B2u    2.062869     4B3u    2.062869     7B1u    2.760642  
       8Ag     2.817439     5B2u    3.028665     5B3u    3.028665  
       4B3g    3.072313     4B2g    3.072313     9Ag     3.156256  
       2B1g    3.156256     8B1u    3.282756     6B2u    3.627554  
       6B3u    3.627554    10Ag     3.843846     2Au     3.864095  
       9B1u    3.864096     5B3g    4.048634     5B2g    4.048634  
       6B3g    4.077702     6B2g    4.077702     3B1g    4.117071  
      11Ag     4.117071    12Ag     4.335059    10B1u    4.923736  
       7B2u    5.466098     7B3u    5.466098    11B1u    5.792611  
       3Au     5.792611     7B3g    7.629431     7B2g    7.629431  
      12B1u    7.856096    13Ag     8.375779    13B1u   28.038189  

    Final Occupation by Irrep:
             Ag   B1g   B2g   B3g    Au   B1u   B2u   B3u 
    DOCC [     2,    0,    0,    0,    0,    2,    1,    1 ]
    SOCC [     1,    0,    0,    0,    0,    0,    0,    0 ]
    NA   [     3,    0,    0,    0,    0,    2,    1,    1 ]
    NB   [     2,    0,    0,    0,    0,    2,    1,    1 ]

  @DF-UKS Final Energy:  -107.74094404354490

   => Energetics <=

    Nuclear Repulsion Energy =             36.8608387867049245
    One-Electron Energy =                -210.7531478498549404
    Two-Electron Energy =                  77.5400760786752556
    DFT Exchange-Correlation Energy =     -11.3887110590701504
    Empirical Dispersion Energy =           0.0000000000000000
    VV10 Nonlocal Energy =                  0.0000000000000000
    Total Energy =                       -107.7409440435449000

  UHF NO Occupations:
  HONO-2 :    2 Ag 1.9999066
  HONO-1 :    2B1u 1.9991993
  HONO-0 :    3 Ag 1.0000000
  LUNO+0 :    3B1u 0.0008007
  LUNO+1 :    4 Ag 0.0000934
  LUNO+2 :    2B3u 0.0000371
  LUNO+3 :    2B2u 0.0000371


Computation Completed


Properties will be evaluated at   0.000000,   0.000000,   0.000000 [a0]

Properties computed using the B3LYP density matrix


 Multipole Moments:

 ------------------------------------------------------------------------------------
     Multipole            Electronic (a.u.)      Nuclear  (a.u.)        Total (a.u.)
 ------------------------------------------------------------------------------------

 L = 1.  Multiply by 2.5417464519 to convert [e a0] to [Debye]
 Dipole X            :          0.0000000            0.0000000            0.0000000
 Dipole Y            :          0.0000000            0.0000000            0.0000000
 Dipole Z            :          0.0000000            0.0000000            0.0000000
 Magnitude           :                                                    0.0000000

 L = 2.  Multiply by 1.3450342976 to convert [e a0^2] to [Debye ang]
 Quadrupole XX       :         -5.0992721            0.0000000           -5.0992721
 Quadrupole XY       :          0.0000000            0.0000000            0.0000000
 Quadrupole XZ       :          0.0000000            0.0000000            0.0000000
 Quadrupole YY       :         -5.0992721            0.0000000           -5.0992721
 Quadrupole YZ       :          0.0000000            0.0000000            0.0000000
 Quadrupole ZZ       :        -11.3097816            6.1848586           -5.1249229
 Traceless XX        :          2.0701698           -2.0616195            0.0085503
 Traceless YY        :          2.0701698           -2.0616195            0.0085503
 Traceless ZZ        :         -4.1403397            4.1232391           -0.0171006

 ------------------------------------------------------------------------------------
  ==> Computing MBIS Charges <==

  Electron Count from Grid (Expected Number): 13.00000 (13.00000)
  Difference: -0.00000

  MBIS Charges: (a.u.)
   Center  Symbol  Z      Pop.       Charge
      1       N    7    6.499999    0.500001
      2       N    7    6.499999    0.500001

  MBIS Dipoles: [e a0]
   Center  Symbol  Z        X           Y           Z
      1       N    7    0.000000    0.000000   -0.075413
      2       N    7   -0.000000   -0.000000    0.075413

  MBIS Quadrupoles: [e a0^2]
   Center  Symbol  Z      XX        XY        XZ        YY        YZ        ZZ
      1       N    7   -2.5496   -0.0000   -0.0000   -2.5496   -0.0000   -2.8836
      2       N    7   -2.5496   -0.0000    0.0000   -2.5496    0.0000   -2.8836

  MBIS Octupoles: [e a0^3]
   Center  Symbol  Z      XXX       XXY       XXZ       XYY       XYZ       XZZ       YYY       YYZ       YZZ       ZZZ
      1       N    7    0.0000   -0.0000    0.0416    0.0000   -0.0000    0.0000   -0.0000    0.0416    0.0000    0.2445
      2       N    7    0.0000    0.0000   -0.0416    0.0000    0.0000    0.0000   -0.0000   -0.0416    0.0000   -0.2445

  MBIS Radial Moments:
   Center  Symbol  Z      [a0^2]      [a0^3]      [a0^4]      
      1       N    7    7.982869   14.105128   29.989247
      2       N    7    7.982869   14.105128   29.989247

  MBIS Valence Widths: [a0]
   Center  Symbol  Z     Width
      1       N    7    0.368350
      2       N    7    0.368350

*** tstop() called on Mac.lan at Sun Aug 10 18:24:54 2025
Module time:
	user time   =       3.90 seconds =       0.06 minutes
	system time =       2.35 seconds =       0.04 minutes
	total time  =          1 seconds =       0.02 minutes
Total time:
	user time   =      15.88 seconds =       0.26 minutes
	system time =       4.72 seconds =       0.08 minutes
	total time  =          2 seconds =       0.03 minutes

    Psi4 stopped on: Sunday, 10 August 2025 06:24PM
    Psi4 wall time for execution: 0:00:02.00

*** Psi4 exiting successfully. Buy a developer a beer!
