
    -----------------------------------------------------------------------
          Psi4: An Open-Source Ab Initio Electronic Structure Package
                               Psi4 1.9.1 release

                         Git: Rev {} zzzzzzz 


    D. G. A. Smith, L. A. Burns, A. C. Simmonett, R. M. Parrish,
    M. C. Schieber, R. Galvelis, P. Kraus, H. Kruse, R. Di Remigio,
    A. Alenaizan, A. M. James, S. Lehtola, J. P. Misiewicz, M. Scheurer,
    R. A. Shaw, J. B. Schriber, Y. Xie, Z. L. Glick, D. A. Sirianni,
    J. S. O'Brien, J. M. Waldrop, A. Kumar, E. G. Hohenstein,
    B. P. Pritchard, B. R. Brooks, H. F. Schaefer III, A. Yu. Sokolov,
    K. Patkowski, A. E. DePrince III, U. Bozkaya, R. A. King,
    F. A. Evangelista, J. M. Turney, T. D. Crawford, C. D. Sherrill,
    J. Chem. Phys. 152(18) 184108 (2020). https://doi.org/10.1063/5.0006002

                            Additional Code Authors
    E. T. Seidl, C. L. Janssen, E. F. Valeev, M. L. Leininger,
    J. F. Gonthier, R. M. Richard, H. R. McAlexander, M. Saitow, X. Wang,
    P. Verma, M. H. Lechner, A. Jiang, S. Behnle, A. G. Heide,
    M. F. Herbst, and D. L. Poole

             Previous Authors, Complete List of Code Contributors,
                       and Citations for Specific Modules
    https://github.com/psi4/psi4/blob/master/codemeta.json
    https://github.com/psi4/psi4/graphs/contributors
    http://psicode.org/psi4manual/master/introduction.html#citing-psifour

    -----------------------------------------------------------------------


    Psi4 started on: Sunday, 10 August 2025 06:33PM

    Process ID: 50349
    Host:       Mac.lan
    PSIDATADIR: /Users/joseantoniorodriguesromero/anaconda3/share/psi4
    Memory:     500.0 MiB
    Threads:    1
    
  ==> Input File <==

--------------------------------------------------------------------------
molecule { 
1 3
N           0.000000           0.000000           0.000000
C           0.000000           0.000000           1.372313
}

set { 
basis              cc-pvtz
reference          uks
maxiter            500
DAMPING_PERCENTAGE 1
E_CONVERGENCE      1.0E-8
D_CONVERGENCE      1.0E-8
DIIS_MAX_VECS      400
MBIS_MAXITER       8000
guess              read
}

E, wfn = energy('b3lyp', restart_file='last_wfn', return_wfn=True)
properties('b3lyp','MBIS_CHARGES', wfn=wfn)
wfn.to_file('last_wfn')
--------------------------------------------------------------------------

Scratch directory: /tmp/
 Found user provided orbital data. Setting orbital guess to READ 
 Copying restart file <last_wfn.npy> to </tmp/scan_CN_29.default.50349.180.npy> for internal processing
   => Libint2 <=

    Primary   basis highest AM E, G, H:  6, 6, 3
    Auxiliary basis highest AM E, G, H:  7, 7, 4
    Onebody   basis highest AM E, G, H:  -, -, -
    Solid Harmonics ordering:            Gaussian

*** tstart() called on Mac.lan
*** at Sun Aug 10 18:33:52 2025

   => Loading Basis Set <=

    Name: CC-PVTZ
    Role: ORBITAL
    Keyword: BASIS
    atoms 1 entry N          line   224 file /Users/joseantoniorodriguesromero/anaconda3/share/psi4/basis/cc-pvtz.gbs 
    atoms 2 entry C          line   186 file /Users/joseantoniorodriguesromero/anaconda3/share/psi4/basis/cc-pvtz.gbs 


         ---------------------------------------------------------
                                   SCF
               by Justin Turney, Rob Parrish, Andy Simmonett
                          and Daniel G. A. Smith
                              UKS Reference
                        1 Threads,    500 MiB Core
         ---------------------------------------------------------

  ==> Geometry <==

    Molecular point group: c2v
    Full point group: C_inf_v

    Geometry (in Angstrom), charge = 1, multiplicity = 3:

       Center              X                  Y                   Z               Mass       
    ------------   -----------------  -----------------  -----------------  -----------------
         N            0.000000000000     0.000000000000    -0.633300355073    14.003074004430
         C            0.000000000000     0.000000000000     0.739012644927    12.000000000000

  Running in c2v symmetry.

  Rotational constants: A = ************  B =      1.38519  C =      1.38519 [cm^-1]
  Rotational constants: A = ************  B =  41527.03332  C =  41527.03332 [MHz]
  Nuclear repulsion =   16.195607596911206

  Charge       = 1
  Multiplicity = 3
  Electrons    = 12
  Nalpha       = 7
  Nbeta        = 5

  ==> Algorithm <==

  SCF Algorithm Type is DF.
  DIIS enabled.
  MOM disabled.
  Fractional occupation disabled.
  Guess Type is READ.
  Energy threshold   = 1.00e-08
  Density threshold  = 1.00e-08
  Integral threshold = 1.00e-12

  ==> Primary Basis <==

  Basis Set: CC-PVTZ
    Blend: CC-PVTZ
    Number of shells: 20
    Number of basis functions: 60
    Number of Cartesian functions: 70
    Spherical Harmonics?: true
    Max angular momentum: 3

  ==> DFT Potential <==

   => LibXC <=

    Version 6.2.2
    S. Lehtola, C. Steigemann, M. J.T. Oliveira, and M. A.L. Marques.,  SoftwareX 7, 1–5 (2018) (10.1016/j.softx.2017.11.002)

   => Composite Functional: B3LYP <= 

    B3LYP Hyb-GGA Exchange-Correlation Functional

    P. J. Stephens, F. J. Devlin, C. F. Chabalowski, and M. J. Frisch.,  J. Phys. Chem. 98, 11623 (1994) (10.1021/j100096a001)

    Deriv               =              1
    GGA                 =           TRUE
    Meta                =          FALSE

    Exchange Hybrid     =           TRUE
    MP2 Hybrid          =          FALSE

   => Exchange Functionals <=

    0.0800   Slater exchange
    0.7200         Becke 88

   => Exact (HF) Exchange <=

    0.2000               HF 

   => Correlation Functionals <=

    0.1900   Vosko, Wilk & Nusair (VWN5_RPA)
    0.8100   Lee, Yang & Parr

   => LibXC Density Thresholds  <==

    XC_HYB_GGA_XC_B3LYP:  1.00E-15 

   => Molecular Quadrature <=

    Radial Scheme          =       TREUTLER
    Pruning Scheme         =           NONE
    Nuclear Scheme         =       TREUTLER

    Blocking Scheme        =         OCTREE
    BS radius alpha        =              1
    Pruning alpha          =              1
    Radial Points          =             75
    Spherical Points       =            302
    Total Points           =          43258
    Total Blocks           =            394
    Max Points             =            256
    Max Functions          =             60
    Weights Tolerance      =       1.00E-15

   => Loading Basis Set <=

    Name: (CC-PVTZ AUX)
    Role: JKFIT
    Keyword: DF_BASIS_SCF
    atoms 1 entry N          line   177 file /Users/joseantoniorodriguesromero/anaconda3/share/psi4/basis/cc-pvtz-jkfit.gbs 
    atoms 2 entry C          line   125 file /Users/joseantoniorodriguesromero/anaconda3/share/psi4/basis/cc-pvtz-jkfit.gbs 

   => Loading Basis Set <=

    Name: CC-PVTZ
    Role: ORBITAL
    Keyword: BASIS
    atoms 1 entry N          line   224 file /Users/joseantoniorodriguesromero/anaconda3/share/psi4/basis/cc-pvtz.gbs 
    atoms 2 entry C          line   186 file /Users/joseantoniorodriguesromero/anaconda3/share/psi4/basis/cc-pvtz.gbs 

  Reading orbitals from file /tmp/scan_CN_29.default.50349.180.npy, no projection.

  ==> Integral Setup <==

  DFHelper Memory: AOs need 0.005 GiB; user supplied 0.294 GiB. 
  Using in-core AOs.

  ==> MemDFJK: Density-Fitted J/K Matrices <==

    J tasked:                   Yes
    K tasked:                   Yes
    wK tasked:                   No
    OpenMP threads:               1
    Memory [MiB]:               301
    Algorithm:                 Core
    Schwarz Cutoff:           1E-12
    Mask sparsity (%):       0.0000
    Fitting Condition:        1E-10

   => Auxiliary Basis Set <=

  Basis Set: (CC-PVTZ AUX)
    Blend: CC-PVTZ-JKFIT
    Number of shells: 50
    Number of basis functions: 158
    Number of Cartesian functions: 192
    Spherical Harmonics?: true
    Max angular momentum: 4

  Cached 100.0% of DFT collocation blocks in 0.072 [GiB].

  Minimum eigenvalue in the overlap matrix is 3.1112452647E-03.
  Reciprocal condition number of the overlap matrix is 7.9349685796E-04.
    Using symmetric orthogonalization.

  ==> Pre-Iterations <==

  SCF Guess: Orbitals guess was supplied from a previous computation.

   -------------------------------------------------------
    Irrep   Nso     Nmo     Nalpha   Nbeta   Ndocc  Nsocc
   -------------------------------------------------------
     A1        26      26       5       4       4       1
     A2         6       6       0       0       0       0
     B1        14      14       1       0       0       1
     B2        14      14       1       1       1       0
   -------------------------------------------------------
    Total      60      60       7       5       5       2
   -------------------------------------------------------

  ==> Iterations <==

                           Total Energy        Delta E     RMS |[F,P]|

   @DF-UKS iter   0:   -92.18340728554830   -9.21834e+01   1.65280e-03 
   @DF-UKS iter   1:   -92.21029800577335   -2.68907e-02   3.52695e-04 DIIS/ADIIS
   @DF-UKS iter   2:   -92.21027723988327    2.07659e-05   4.60865e-04 DIIS/ADIIS/DAMP=1%
   @DF-UKS iter   3:   -92.21002386823885    2.53372e-04   4.03705e-04 DIIS/ADIIS/DAMP=1%
   @DF-UKS iter   4:   -92.21045732284512   -4.33455e-04   4.04770e-05 DIIS/DAMP=1%
   @DF-UKS iter   5:   -92.21038542334793    7.18995e-05   1.67767e-05 DIIS/DAMP=1%
   @DF-UKS iter   6:   -92.21039924486755   -1.38215e-05   1.08592e-05 DIIS/DAMP=1%
   @DF-UKS iter   7:   -92.21039514189115    4.10298e-06   5.81278e-06 DIIS/DAMP=1%
   @DF-UKS iter   8:   -92.21039538753081   -2.45640e-07   2.20531e-06 DIIS/DAMP=1%
   @DF-UKS iter   9:   -92.21039639348146   -1.00595e-06   4.34173e-07 DIIS/DAMP=1%
   @DF-UKS iter  10:   -92.21039540178232    9.91699e-07   5.25658e-08 DIIS/DAMP=1%
   @DF-UKS iter  11:   -92.21039550582664   -1.04044e-07   2.03283e-08 DIIS/DAMP=1%
   @DF-UKS iter  12:   -92.21039550142680    4.39984e-09   2.96975e-09 DIIS/DAMP=1%
  Energy and wave function converged.


  ==> Post-Iterations <==

   Electrons on quadrature grid:
      Nalpha   =    7.0000003128 ; deviation = 3.128e-07
      Nbeta    =    5.0000001829 ; deviation = 1.829e-07
      Ntotal   =   12.0000004957 ; deviation = 4.957e-07 

   @Spin Contamination Metric:   4.848023851E-03
   @S^2 Expected:                2.000000000E+00
   @S^2 Observed:                2.004848024E+00
   @S   Expected:                1.000000000E+00
   @S   Observed:                1.000000000E+00

    Orbital Energies [Eh]
    ---------------------

    Alpha Occupied:                                                       

       1A1   -14.864782     2A1   -10.782913     3A1    -1.321954  
       4A1    -0.922744     5A1    -0.785730     1B1    -0.782618  
       1B2    -0.741029  

    Alpha Virtual:                                                        

       2B1    -0.483053     2B2    -0.452001     6A1    -0.144095  
       7A1     0.004264     3B1     0.005203     3B2     0.014888  
       8A1     0.022812     9A1     0.151791     4B1     0.194713  
       4B2     0.213154     1A2     0.285061    10A1     0.285518  
       5B1     0.397052     5B2     0.418738    11A1     0.561974  
      12A1     0.746304     2A2     0.746926    13A1     0.753604  
       6B1     1.068135     6B2     1.090538    14A1     1.301006  
       7B1     1.575159     7B2     1.594638    15A1     1.754272  
       8B1     2.238637     8B2     2.245743     9B1     2.245958  
       3A2     2.249745    16A1     2.249850     9B2     2.268127  
      10B1     2.486689    17A1     2.500208     4A2     2.505296  
      18A1     2.515728    10B2     2.516071    19A1     2.529393  
      11B1     2.867357    11B2     2.893462    20A1     3.001299  
      12B1     3.471148    12B2     3.471292    21A1     3.731060  
       5A2     3.731350    22A1     4.047215     6A2     4.047626  
      23A1     4.134738    13B1     4.152469    13B2     4.190460  
      24A1     4.612887    14B1     4.660380    14B2     4.690472  
      25A1     5.025637    26A1     8.713274  

    Beta Occupied:                                                        

       1A1   -14.842750     2A1   -10.763625     3A1    -1.251453  
       4A1    -0.826985     1B2    -0.718873  

    Beta Virtual:                                                         

       1B1    -0.608282     5A1    -0.606258     2B2    -0.421036  
       2B1    -0.383309     6A1    -0.104440     3B2     0.020590  
       3B1     0.026295     7A1     0.032517     8A1     0.072152  
       9A1     0.178736     4B2     0.219866     4B1     0.231135  
       1A2     0.310725    10A1     0.312709     5B2     0.450514  
       5B1     0.456178    11A1     0.588936     2A2     0.781439  
      12A1     0.784048    13A1     0.797338     6B2     1.115534  
       6B1     1.121541    14A1     1.340760     7B2     1.609142  
       7B1     1.617011    15A1     1.814299     8B2     2.279556  
       8B1     2.280239     3A2     2.291117    16A1     2.293528  
       9B2     2.293752     9B1     2.309828     4A2     2.555143  
      10B2     2.557530    17A1     2.558116    10B1     2.573554  
      18A1     2.575351    19A1     2.595339    11B2     2.942189  
      11B1     2.950466    20A1     3.068817    12B2     3.518004  
      12B1     3.519380     5A2     3.780976    21A1     3.785373  
       6A2     4.107761    22A1     4.113851    23A1     4.190590  
      13B2     4.227428    13B1     4.249394    24A1     4.670824  
      14B2     4.724882    14B1     4.733194    25A1     5.067343  
      26A1     8.751073  

    Final Occupation by Irrep:
             A1    A2    B1    B2 
    DOCC [     4,    0,    0,    1 ]
    SOCC [     1,    0,    1,    0 ]
    NA   [     5,    0,    1,    1 ]
    NB   [     4,    0,    0,    1 ]

  @DF-UKS Final Energy:   -92.21039550142680

   => Energetics <=

    Nuclear Repulsion Energy =             16.1956075969112057
    One-Electron Energy =                -151.4063856594584081
    Two-Electron Energy =                  52.4331876679898130
    DFT Exchange-Correlation Energy =      -9.4328051068694236
    Empirical Dispersion Energy =           0.0000000000000000
    VV10 Nonlocal Energy =                  0.0000000000000000
    Total Energy =                        -92.2103955014268166

  UHF NO Occupations:
  HONO-2 :    4 A1 1.9981665
  HONO-1 :    1 B1 1.0000000
  HONO-0 :    5 A1 1.0000000
  LUNO+0 :    6 A1 0.0018335
  LUNO+1 :    7 A1 0.0003456
  LUNO+2 :    2 B2 0.0002458
  LUNO+3 :    8 A1 0.0000005


Computation Completed


Properties will be evaluated at   0.000000,   0.000000,   0.000000 [a0]

Properties computed using the SCF density matrix


 Multipole Moments:

 ------------------------------------------------------------------------------------
     Multipole            Electronic (a.u.)      Nuclear  (a.u.)        Total (a.u.)
 ------------------------------------------------------------------------------------

 L = 1.  Multiply by 2.5417464519 to convert [e a0] to [Debye]
 Dipole X            :          0.0000000            0.0000000            0.0000000
 Dipole Y            :          0.0000000            0.0000000            0.0000000
 Dipole Z            :          0.6496945            0.0018394            0.6515339
 Magnitude           :                                                    0.6515339

 ------------------------------------------------------------------------------------

*** tstop() called on Mac.lan at Sun Aug 10 18:34:00 2025
Module time:
	user time   =      73.29 seconds =       1.22 minutes
	system time =       3.94 seconds =       0.07 minutes
	total time  =          8 seconds =       0.13 minutes
Total time:
	user time   =      73.29 seconds =       1.22 minutes
	system time =       3.94 seconds =       0.07 minutes
	total time  =          8 seconds =       0.13 minutes

*** tstart() called on Mac.lan
*** at Sun Aug 10 18:34:00 2025

   => Libint2 <=

    Primary   basis highest AM E, G, H:  6, 6, 3
    Auxiliary basis highest AM E, G, H:  7, 7, 4
    Onebody   basis highest AM E, G, H:  -, -, -
    Solid Harmonics ordering:            Gaussian
   => Loading Basis Set <=

    Name: CC-PVTZ
    Role: ORBITAL
    Keyword: BASIS
    atoms 1 entry N          line   224 file /Users/joseantoniorodriguesromero/anaconda3/share/psi4/basis/cc-pvtz.gbs 
    atoms 2 entry C          line   186 file /Users/joseantoniorodriguesromero/anaconda3/share/psi4/basis/cc-pvtz.gbs 


         ---------------------------------------------------------
                                   SCF
               by Justin Turney, Rob Parrish, Andy Simmonett
                          and Daniel G. A. Smith
                              UKS Reference
                        1 Threads,    500 MiB Core
         ---------------------------------------------------------

  ==> Geometry <==

    Molecular point group: c2v
    Full point group: C_inf_v

    Geometry (in Angstrom), charge = 1, multiplicity = 3:

       Center              X                  Y                   Z               Mass       
    ------------   -----------------  -----------------  -----------------  -----------------
         N            0.000000000000     0.000000000000    -0.633300355073    14.003074004430
         C            0.000000000000     0.000000000000     0.739012644927    12.000000000000

  Running in c2v symmetry.

  Rotational constants: A = ************  B =      1.38519  C =      1.38519 [cm^-1]
  Rotational constants: A = ************  B =  41527.03332  C =  41527.03332 [MHz]
  Nuclear repulsion =   16.195607596911206

  Charge       = 1
  Multiplicity = 3
  Electrons    = 12
  Nalpha       = 7
  Nbeta        = 5

  ==> Algorithm <==

  SCF Algorithm Type is DF.
  DIIS enabled.
  MOM disabled.
  Fractional occupation disabled.
  Guess Type is READ.
  Energy threshold   = 1.00e-08
  Density threshold  = 1.00e-08
  Integral threshold = 1.00e-12

  ==> Primary Basis <==

  Basis Set: CC-PVTZ
    Blend: CC-PVTZ
    Number of shells: 20
    Number of basis functions: 60
    Number of Cartesian functions: 70
    Spherical Harmonics?: true
    Max angular momentum: 3

  ==> DFT Potential <==

   => LibXC <=

    Version 6.2.2
    S. Lehtola, C. Steigemann, M. J.T. Oliveira, and M. A.L. Marques.,  SoftwareX 7, 1–5 (2018) (10.1016/j.softx.2017.11.002)

   => Composite Functional: B3LYP <= 

    B3LYP Hyb-GGA Exchange-Correlation Functional

    P. J. Stephens, F. J. Devlin, C. F. Chabalowski, and M. J. Frisch.,  J. Phys. Chem. 98, 11623 (1994) (10.1021/j100096a001)

    Deriv               =              1
    GGA                 =           TRUE
    Meta                =          FALSE

    Exchange Hybrid     =           TRUE
    MP2 Hybrid          =          FALSE

   => Exchange Functionals <=

    0.0800   Slater exchange
    0.7200         Becke 88

   => Exact (HF) Exchange <=

    0.2000               HF 

   => Correlation Functionals <=

    0.1900   Vosko, Wilk & Nusair (VWN5_RPA)
    0.8100   Lee, Yang & Parr

   => LibXC Density Thresholds  <==

    XC_HYB_GGA_XC_B3LYP:  1.00E-15 

   => Molecular Quadrature <=

    Radial Scheme          =       TREUTLER
    Pruning Scheme         =           NONE
    Nuclear Scheme         =       TREUTLER

    Blocking Scheme        =         OCTREE
    BS radius alpha        =              1
    Pruning alpha          =              1
    Radial Points          =             75
    Spherical Points       =            302
    Total Points           =          43258
    Total Blocks           =            394
    Max Points             =            256
    Max Functions          =             60
    Weights Tolerance      =       1.00E-15

   => Loading Basis Set <=

    Name: (CC-PVTZ AUX)
    Role: JKFIT
    Keyword: DF_BASIS_SCF
    atoms 1 entry N          line   177 file /Users/joseantoniorodriguesromero/anaconda3/share/psi4/basis/cc-pvtz-jkfit.gbs 
    atoms 2 entry C          line   125 file /Users/joseantoniorodriguesromero/anaconda3/share/psi4/basis/cc-pvtz-jkfit.gbs 

   => Loading Basis Set <=

    Name: CC-PVTZ
    Role: ORBITAL
    Keyword: BASIS
    atoms 1 entry N          line   224 file /Users/joseantoniorodriguesromero/anaconda3/share/psi4/basis/cc-pvtz.gbs 
    atoms 2 entry C          line   186 file /Users/joseantoniorodriguesromero/anaconda3/share/psi4/basis/cc-pvtz.gbs 

  Reading orbitals from file /tmp/scan_CN_29.default.50349.180.npy, no projection.

  ==> Integral Setup <==

  DFHelper Memory: AOs need 0.005 GiB; user supplied 0.294 GiB. 
  Using in-core AOs.

  ==> MemDFJK: Density-Fitted J/K Matrices <==

    J tasked:                   Yes
    K tasked:                   Yes
    wK tasked:                   No
    OpenMP threads:               1
    Memory [MiB]:               301
    Algorithm:                 Core
    Schwarz Cutoff:           1E-12
    Mask sparsity (%):       0.0000
    Fitting Condition:        1E-10

   => Auxiliary Basis Set <=

  Basis Set: (CC-PVTZ AUX)
    Blend: CC-PVTZ-JKFIT
    Number of shells: 50
    Number of basis functions: 158
    Number of Cartesian functions: 192
    Spherical Harmonics?: true
    Max angular momentum: 4

  Cached 100.0% of DFT collocation blocks in 0.072 [GiB].

  Minimum eigenvalue in the overlap matrix is 3.1112452647E-03.
  Reciprocal condition number of the overlap matrix is 7.9349685796E-04.
    Using symmetric orthogonalization.

  ==> Pre-Iterations <==

  SCF Guess: Orbitals guess was supplied from a previous computation.

   -------------------------------------------------------
    Irrep   Nso     Nmo     Nalpha   Nbeta   Ndocc  Nsocc
   -------------------------------------------------------
     A1        26      26       5       4       4       1
     A2         6       6       0       0       0       0
     B1        14      14       1       0       0       1
     B2        14      14       1       1       1       0
   -------------------------------------------------------
    Total      60      60       7       5       5       2
   -------------------------------------------------------

  ==> Iterations <==

                           Total Energy        Delta E     RMS |[F,P]|

   @DF-UKS iter   0:   -92.21039550627749   -9.22104e+01   3.63010e-10 
   @DF-UKS iter   1:   -92.21039550627741    8.52651e-14   1.17724e-09 DIIS
  Energy and wave function converged.


  ==> Post-Iterations <==

   Electrons on quadrature grid:
      Nalpha   =    7.0000003128 ; deviation = 3.128e-07
      Nbeta    =    5.0000001829 ; deviation = 1.829e-07
      Ntotal   =   12.0000004957 ; deviation = 4.957e-07 

   @Spin Contamination Metric:   4.848023571E-03
   @S^2 Expected:                2.000000000E+00
   @S^2 Observed:                2.004848024E+00
   @S   Expected:                1.000000000E+00
   @S   Observed:                1.000000000E+00

    Orbital Energies [Eh]
    ---------------------

    Alpha Occupied:                                                       

       1A1   -14.864782     2A1   -10.782913     3A1    -1.321954  
       4A1    -0.922744     5A1    -0.785730     1B1    -0.782618  
       1B2    -0.741029  

    Alpha Virtual:                                                        

       2B1    -0.483053     2B2    -0.452001     6A1    -0.144095  
       7A1     0.004264     3B1     0.005203     3B2     0.014888  
       8A1     0.022812     9A1     0.151791     4B1     0.194713  
       4B2     0.213154     1A2     0.285061    10A1     0.285518  
       5B1     0.397052     5B2     0.418738    11A1     0.561974  
      12A1     0.746304     2A2     0.746926    13A1     0.753604  
       6B1     1.068135     6B2     1.090538    14A1     1.301006  
       7B1     1.575159     7B2     1.594638    15A1     1.754272  
       8B1     2.238637     8B2     2.245743     9B1     2.245959  
       3A2     2.249745    16A1     2.249850     9B2     2.268127  
      10B1     2.486689    17A1     2.500208     4A2     2.505296  
      18A1     2.515728    10B2     2.516071    19A1     2.529393  
      11B1     2.867357    11B2     2.893462    20A1     3.001299  
      12B1     3.471148    12B2     3.471292    21A1     3.731060  
       5A2     3.731350    22A1     4.047215     6A2     4.047626  
      23A1     4.134738    13B1     4.152469    13B2     4.190460  
      24A1     4.612887    14B1     4.660380    14B2     4.690472  
      25A1     5.025637    26A1     8.713274  

    Beta Occupied:                                                        

       1A1   -14.842750     2A1   -10.763625     3A1    -1.251453  
       4A1    -0.826985     1B2    -0.718873  

    Beta Virtual:                                                         

       1B1    -0.608282     5A1    -0.606258     2B2    -0.421036  
       2B1    -0.383309     6A1    -0.104440     3B2     0.020590  
       3B1     0.026295     7A1     0.032517     8A1     0.072152  
       9A1     0.178736     4B2     0.219866     4B1     0.231135  
       1A2     0.310725    10A1     0.312709     5B2     0.450514  
       5B1     0.456178    11A1     0.588936     2A2     0.781439  
      12A1     0.784048    13A1     0.797338     6B2     1.115534  
       6B1     1.121541    14A1     1.340760     7B2     1.609142  
       7B1     1.617011    15A1     1.814299     8B2     2.279556  
       8B1     2.280239     3A2     2.291117    16A1     2.293528  
       9B2     2.293752     9B1     2.309828     4A2     2.555143  
      10B2     2.557530    17A1     2.558116    10B1     2.573554  
      18A1     2.575351    19A1     2.595339    11B2     2.942189  
      11B1     2.950466    20A1     3.068817    12B2     3.518004  
      12B1     3.519380     5A2     3.780976    21A1     3.785373  
       6A2     4.107761    22A1     4.113851    23A1     4.190590  
      13B2     4.227428    13B1     4.249394    24A1     4.670824  
      14B2     4.724882    14B1     4.733194    25A1     5.067343  
      26A1     8.751073  

    Final Occupation by Irrep:
             A1    A2    B1    B2 
    DOCC [     4,    0,    0,    1 ]
    SOCC [     1,    0,    1,    0 ]
    NA   [     5,    0,    1,    1 ]
    NB   [     4,    0,    0,    1 ]

  @DF-UKS Final Energy:   -92.21039550627741

   => Energetics <=

    Nuclear Repulsion Energy =             16.1956075969112057
    One-Electron Energy =                -151.4063854745210165
    Two-Electron Energy =                  52.4331874556206685
    DFT Exchange-Correlation Energy =      -9.4328050842882654
    Empirical Dispersion Energy =           0.0000000000000000
    VV10 Nonlocal Energy =                  0.0000000000000000
    Total Energy =                        -92.2103955062774077

  UHF NO Occupations:
  HONO-2 :    4 A1 1.9981665
  HONO-1 :    1 B1 1.0000000
  HONO-0 :    5 A1 1.0000000
  LUNO+0 :    6 A1 0.0018335
  LUNO+1 :    7 A1 0.0003456
  LUNO+2 :    2 B2 0.0002458
  LUNO+3 :    8 A1 0.0000005


Computation Completed


Properties will be evaluated at   0.000000,   0.000000,   0.000000 [a0]

Properties computed using the B3LYP density matrix


 Multipole Moments:

 ------------------------------------------------------------------------------------
     Multipole            Electronic (a.u.)      Nuclear  (a.u.)        Total (a.u.)
 ------------------------------------------------------------------------------------

 L = 1.  Multiply by 2.5417464519 to convert [e a0] to [Debye]
 Dipole X            :          0.0000000            0.0000000            0.0000000
 Dipole Y            :          0.0000000            0.0000000            0.0000000
 Dipole Z            :          0.6496949            0.0018394            0.6515343
 Magnitude           :                                                    0.6515343

 L = 2.  Multiply by 1.3450342976 to convert [e a0^2] to [Debye ang]
 Quadrupole XX       :         -5.9283575            0.0000000           -5.9283575
 Quadrupole XY       :          0.0000000            0.0000000            0.0000000
 Quadrupole XZ       :          0.0000000            0.0000000            0.0000000
 Quadrupole YY       :         -7.0017130            0.0000000           -7.0017130
 Quadrupole YZ       :          0.0000000            0.0000000            0.0000000
 Quadrupole ZZ       :        -25.9277668           21.7275137           -4.2002531
 Traceless XX        :          7.0242550           -7.2425046           -0.2182496
 Traceless YY        :          5.9508994           -7.2425046           -1.2916052
 Traceless ZZ        :        -12.9751544           14.4850091            1.5098548

 ------------------------------------------------------------------------------------
  ==> Computing MBIS Charges <==

  Electron Count from Grid (Expected Number): 12.00000 (12.00000)
  Difference:  0.00000

  MBIS Charges: (a.u.)
   Center  Symbol  Z      Pop.       Charge
      1       N    7    6.741433    0.258567
      2       C    6    5.258567    0.741433

  MBIS Dipoles: [e a0]
   Center  Symbol  Z        X           Y           Z
      1       N    7    0.000000   -0.000000   -0.217664
      2       C    6   -0.000000    0.000000    0.143207

  MBIS Quadrupoles: [e a0^2]
   Center  Symbol  Z      XX        XY        XZ        YY        YZ        ZZ
      1       N    7   -3.2008   -0.0000    0.0000   -3.7717    0.0000   -3.7172
      2       C    6   -2.7276   -0.0000   -0.0000   -3.2300    0.0000   -3.2204

  MBIS Octupoles: [e a0^3]
   Center  Symbol  Z      XXX       XXY       XXZ       XYY       XYZ       XZZ       YYY       YYZ       YZZ       ZZZ
      1       N    7    0.0000   -0.0000   -0.1685    0.0000   -0.0000    0.0000   -0.0000   -0.3279   -0.0000   -0.6928
      2       C    6   -0.0000   -0.0000    0.1115   -0.0000   -0.0000    0.0000    0.0000    0.2860   -0.0000    0.4459

  MBIS Radial Moments:
   Center  Symbol  Z      [a0^2]      [a0^3]      [a0^4]      
      1       N    7   10.689717   21.236179   50.276159
      2       C    6    9.177927   19.800753   50.855431

  MBIS Valence Widths: [a0]
   Center  Symbol  Z     Width
      1       N    7    0.421881
      2       C    6    0.465599

*** tstop() called on Mac.lan at Sun Aug 10 18:34:01 2025
Module time:
	user time   =      12.27 seconds =       0.20 minutes
	system time =       2.26 seconds =       0.04 minutes
	total time  =          1 seconds =       0.02 minutes
Total time:
	user time   =      85.59 seconds =       1.43 minutes
	system time =       6.39 seconds =       0.11 minutes
	total time  =          9 seconds =       0.15 minutes

    Psi4 stopped on: Sunday, 10 August 2025 06:34PM
    Psi4 wall time for execution: 0:00:09.32

*** Psi4 exiting successfully. Buy a developer a beer!
