
    -----------------------------------------------------------------------
          Psi4: An Open-Source Ab Initio Electronic Structure Package
                               Psi4 1.9.1 release

                         Git: Rev {} zzzzzzz 


    D. G. A. Smith, L. A. Burns, A. C. Simmonett, R. M. Parrish,
    M. C. Schieber, R. Galvelis, P. Kraus, H. Kruse, R. Di Remigio,
    A. Alenaizan, A. M. James, S. Lehtola, J. P. Misiewicz, M. Scheurer,
    R. A. Shaw, J. B. Schriber, Y. Xie, Z. L. Glick, D. A. Sirianni,
    J. S. O'Brien, J. M. Waldrop, A. Kumar, E. G. Hohenstein,
    B. P. Pritchard, B. R. Brooks, H. F. Schaefer III, A. Yu. Sokolov,
    K. Patkowski, A. E. DePrince III, U. Bozkaya, R. A. King,
    F. A. Evangelista, J. M. Turney, T. D. Crawford, C. D. Sherrill,
    J. Chem. Phys. 152(18) 184108 (2020). https://doi.org/10.1063/5.0006002

                            Additional Code Authors
    E. T. Seidl, C. L. Janssen, E. F. Valeev, M. L. Leininger,
    J. F. Gonthier, R. M. Richard, H. R. McAlexander, M. Saitow, X. Wang,
    P. Verma, M. H. Lechner, A. Jiang, S. Behnle, A. G. Heide,
    M. F. Herbst, and D. L. Poole

             Previous Authors, Complete List of Code Contributors,
                       and Citations for Specific Modules
    https://github.com/psi4/psi4/blob/master/codemeta.json
    https://github.com/psi4/psi4/graphs/contributors
    http://psicode.org/psi4manual/master/introduction.html#citing-psifour

    -----------------------------------------------------------------------


    Psi4 started on: Sunday, 10 August 2025 06:27PM

    Process ID: 50108
    Host:       Mac.lan
    PSIDATADIR: /Users/joseantoniorodriguesromero/anaconda3/share/psi4
    Memory:     500.0 MiB
    Threads:    1
    
  ==> Input File <==

--------------------------------------------------------------------------
molecule { 
1 1
C           0.000000           0.000000           0.000000
H           0.000000           0.000000           1.266625
}

set { 
basis              cc-pvtz
reference          uks
maxiter            500
DAMPING_PERCENTAGE 1
E_CONVERGENCE      1.0E-8
D_CONVERGENCE      1.0E-8
DIIS_MAX_VECS      400
MBIS_MAXITER       8000
guess              read
}

E, wfn = energy('b3lyp', restart_file='last_wfn', return_wfn=True)
properties('b3lyp','MBIS_CHARGES', wfn=wfn)
wfn.to_file('last_wfn')
--------------------------------------------------------------------------

Scratch directory: /tmp/
 Found user provided orbital data. Setting orbital guess to READ 
 Copying restart file <last_wfn.npy> to </tmp/scan_HC_29.default.50108.180.npy> for internal processing
   => Libint2 <=

    Primary   basis highest AM E, G, H:  6, 6, 3
    Auxiliary basis highest AM E, G, H:  7, 7, 4
    Onebody   basis highest AM E, G, H:  -, -, -
    Solid Harmonics ordering:            Gaussian

*** tstart() called on Mac.lan
*** at Sun Aug 10 18:27:17 2025

   => Loading Basis Set <=

    Name: CC-PVTZ
    Role: ORBITAL
    Keyword: BASIS
    atoms 1 entry C          line   186 file /Users/joseantoniorodriguesromero/anaconda3/share/psi4/basis/cc-pvtz.gbs 
    atoms 2 entry H          line    23 file /Users/joseantoniorodriguesromero/anaconda3/share/psi4/basis/cc-pvtz.gbs 


         ---------------------------------------------------------
                                   SCF
               by Justin Turney, Rob Parrish, Andy Simmonett
                          and Daniel G. A. Smith
                              UKS Reference
                        1 Threads,    500 MiB Core
         ---------------------------------------------------------

  ==> Geometry <==

    Molecular point group: c2v
    Full point group: C_inf_v

    Geometry (in Angstrom), charge = 1, multiplicity = 1:

       Center              X                  Y                   Z               Mass       
    ------------   -----------------  -----------------  -----------------  -----------------
         C            0.000000000000     0.000000000000    -0.098136035677    12.000000000000
         H            0.000000000000     0.000000000000     1.168488964323     1.007825032230

  Running in c2v symmetry.

  Rotational constants: A = ************  B =     11.30157  C =     11.30157 [cm^-1]
  Rotational constants: A = ************  B = 338812.47102  C = 338812.47102 [MHz]
  Nuclear repulsion =    2.506711350257575

  Charge       = 1
  Multiplicity = 1
  Electrons    = 6
  Nalpha       = 3
  Nbeta        = 3

  ==> Algorithm <==

  SCF Algorithm Type is DF.
  DIIS enabled.
  MOM disabled.
  Fractional occupation disabled.
  Guess Type is READ.
  Energy threshold   = 1.00e-08
  Density threshold  = 1.00e-08
  Integral threshold = 1.00e-12

  ==> Primary Basis <==

  Basis Set: CC-PVTZ
    Blend: CC-PVTZ
    Number of shells: 16
    Number of basis functions: 44
    Number of Cartesian functions: 50
    Spherical Harmonics?: true
    Max angular momentum: 3

  ==> DFT Potential <==

   => LibXC <=

    Version 6.2.2
    S. Lehtola, C. Steigemann, M. J.T. Oliveira, and M. A.L. Marques.,  SoftwareX 7, 1–5 (2018) (10.1016/j.softx.2017.11.002)

   => Composite Functional: B3LYP <= 

    B3LYP Hyb-GGA Exchange-Correlation Functional

    P. J. Stephens, F. J. Devlin, C. F. Chabalowski, and M. J. Frisch.,  J. Phys. Chem. 98, 11623 (1994) (10.1021/j100096a001)

    Deriv               =              1
    GGA                 =           TRUE
    Meta                =          FALSE

    Exchange Hybrid     =           TRUE
    MP2 Hybrid          =          FALSE

   => Exchange Functionals <=

    0.0800   Slater exchange
    0.7200         Becke 88

   => Exact (HF) Exchange <=

    0.2000               HF 

   => Correlation Functionals <=

    0.1900   Vosko, Wilk & Nusair (VWN5_RPA)
    0.8100   Lee, Yang & Parr

   => LibXC Density Thresholds  <==

    XC_HYB_GGA_XC_B3LYP:  1.00E-15 

   => Molecular Quadrature <=

    Radial Scheme          =       TREUTLER
    Pruning Scheme         =           NONE
    Nuclear Scheme         =       TREUTLER

    Blocking Scheme        =         OCTREE
    BS radius alpha        =              1
    Pruning alpha          =              1
    Radial Points          =             75
    Spherical Points       =            302
    Total Points           =          43827
    Total Blocks           =            391
    Max Points             =            254
    Max Functions          =             44
    Weights Tolerance      =       1.00E-15

   => Loading Basis Set <=

    Name: (CC-PVTZ AUX)
    Role: JKFIT
    Keyword: DF_BASIS_SCF
    atoms 1 entry C          line   125 file /Users/joseantoniorodriguesromero/anaconda3/share/psi4/basis/cc-pvtz-jkfit.gbs 
    atoms 2 entry H          line    51 file /Users/joseantoniorodriguesromero/anaconda3/share/psi4/basis/cc-pvtz-jkfit.gbs 

   => Loading Basis Set <=

    Name: CC-PVTZ
    Role: ORBITAL
    Keyword: BASIS
    atoms 1 entry C          line   186 file /Users/joseantoniorodriguesromero/anaconda3/share/psi4/basis/cc-pvtz.gbs 
    atoms 2 entry H          line    23 file /Users/joseantoniorodriguesromero/anaconda3/share/psi4/basis/cc-pvtz.gbs 

  Reading orbitals from file /tmp/scan_HC_29.default.50108.180.npy, no projection.

  ==> Integral Setup <==

  DFHelper Memory: AOs need 0.002 GiB; user supplied 0.311 GiB. 
  Using in-core AOs.

  ==> MemDFJK: Density-Fitted J/K Matrices <==

    J tasked:                   Yes
    K tasked:                   Yes
    wK tasked:                   No
    OpenMP threads:               1
    Memory [MiB]:               318
    Algorithm:                 Core
    Schwarz Cutoff:           1E-12
    Mask sparsity (%):       0.0000
    Fitting Condition:        1E-10

   => Auxiliary Basis Set <=

  Basis Set: (CC-PVTZ AUX)
    Blend: CC-PVTZ-JKFIT
    Number of shells: 35
    Number of basis functions: 109
    Number of Cartesian functions: 131
    Spherical Harmonics?: true
    Max angular momentum: 4

  Cached 100.0% of DFT collocation blocks in 0.055 [GiB].

  Minimum eigenvalue in the overlap matrix is 5.1821143292E-03.
  Reciprocal condition number of the overlap matrix is 1.3151285174E-03.
    Using symmetric orthogonalization.

  ==> Pre-Iterations <==

  SCF Guess: Orbitals guess was supplied from a previous computation.

   -------------------------------------------------------
    Irrep   Nso     Nmo     Nalpha   Nbeta   Ndocc  Nsocc
   -------------------------------------------------------
     A1        20      20       3       3       3       0
     A2         4       4       0       0       0       0
     B1        10      10       0       0       0       0
     B2        10      10       0       0       0       0
   -------------------------------------------------------
    Total      44      44       3       3       3       0
   -------------------------------------------------------

  ==> Iterations <==

                           Total Energy        Delta E     RMS |[F,P]|

   @DF-UKS iter   0:   -38.07578632365133   -3.80758e+01   8.32367e-04 
   @DF-UKS iter   1:   -38.08569226609724   -9.90594e-03   1.52133e-04 ADIIS/DIIS
   @DF-UKS iter   2:   -38.08570058049420   -8.31440e-06   3.72471e-05 DIIS/DAMP=1%
   @DF-UKS iter   3:   -38.08570352948703   -2.94899e-06   6.39679e-06 DIIS/DAMP=1%
   @DF-UKS iter   4:   -38.08569863114136    4.89835e-06   6.65834e-07 DIIS/DAMP=1%
   @DF-UKS iter   5:   -38.08570129809117   -2.66695e-06   4.71368e-08 DIIS/DAMP=1%
   @DF-UKS iter   6:   -38.08570108141861    2.16673e-07   5.20309e-09 DIIS/DAMP=1%
   @DF-UKS iter   7:   -38.08570109511316   -1.36945e-08   2.96188e-10 DIIS/DAMP=1%
   @DF-UKS iter   8:   -38.08570109353279    1.58037e-09   1.36581e-11 DIIS/DAMP=1%
  Energy and wave function converged.


  ==> Post-Iterations <==

   Electrons on quadrature grid:
      Nalpha   =    3.0000000303 ; deviation = 3.034e-08
      Nbeta    =    3.0000000303 ; deviation = 3.034e-08
      Ntotal   =    6.0000000607 ; deviation = 6.068e-08 

   @Spin Contamination Metric:  -3.552713679E-15
   @S^2 Expected:                0.000000000E+00
   @S^2 Observed:               -3.552713679E-15
   @S   Expected:                0.000000000E+00
   @S   Observed:                0.000000000E+00

    Orbital Energies [Eh]
    ---------------------

    Alpha Occupied:                                                       

       1A1   -10.804923     2A1    -1.018323     3A1    -0.711190  

    Alpha Virtual:                                                        

       1B1    -0.540599     1B2    -0.540599     4A1    -0.263320  
       5A1    -0.014451     2B1     0.008840     2B2     0.008840  
       6A1     0.032304     7A1     0.162141     3B1     0.219692  
       3B2     0.219692     8A1     0.322469     1A2     0.322469  
       9A1     0.599136     4B1     0.673294     4B2     0.673294  
      10A1     0.930917     5B2     1.528459     5B1     1.528459  
      11A1     1.728429    12A1     1.944159     2A2     2.151166  
      13A1     2.151167     6B1     2.181809     6B2     2.181809  
       7B1     2.252947     7B2     2.252947    14A1     2.391886  
      15A1     2.493440     3A2     2.493440     8B1     2.631868  
       8B2     2.631868    16A1     2.717134     4A2     3.069657  
      17A1     3.069660     9B1     3.376793     9B2     3.376793  
      18A1     3.602098    10B1     3.983173    10B2     3.983173  
      19A1     4.094702    20A1     6.443032  

    Beta Occupied:                                                        

       1A1   -10.804923     2A1    -1.018323     3A1    -0.711190  

    Beta Virtual:                                                         

       1B1    -0.540599     1B2    -0.540599     4A1    -0.263320  
       5A1    -0.014451     2B1     0.008840     2B2     0.008840  
       6A1     0.032304     7A1     0.162141     3B1     0.219692  
       3B2     0.219692     8A1     0.322469     1A2     0.322469  
       9A1     0.599136     4B1     0.673294     4B2     0.673294  
      10A1     0.930917     5B2     1.528459     5B1     1.528459  
      11A1     1.728429    12A1     1.944159     2A2     2.151166  
      13A1     2.151167     6B1     2.181809     6B2     2.181809  
       7B1     2.252947     7B2     2.252947    14A1     2.391886  
      15A1     2.493440     3A2     2.493440     8B1     2.631868  
       8B2     2.631868    16A1     2.717134     4A2     3.069657  
      17A1     3.069660     9B1     3.376793     9B2     3.376793  
      18A1     3.602098    10B1     3.983173    10B2     3.983173  
      19A1     4.094702    20A1     6.443032  

    Final Occupation by Irrep:
             A1    A2    B1    B2 
    DOCC [     3,    0,    0,    0 ]
    SOCC [     0,    0,    0,    0 ]
    NA   [     3,    0,    0,    0 ]
    NB   [     3,    0,    0,    0 ]

  @DF-UKS Final Energy:   -38.08570109353279

   => Energetics <=

    Nuclear Repulsion Energy =              2.5067113502575746
    One-Electron Energy =                 -53.0539631022289768
    Two-Electron Energy =                  16.6963709334808783
    DFT Exchange-Correlation Energy =      -4.2348202750422672
    Empirical Dispersion Energy =           0.0000000000000000
    VV10 Nonlocal Energy =                  0.0000000000000000
    Total Energy =                        -38.0857010935327907

  UHF NO Occupations:
  HONO-2 :    1 A1 2.0000000
  HONO-1 :    2 A1 2.0000000
  HONO-0 :    3 A1 2.0000000
  LUNO+0 :    4 A1 0.0000000
  LUNO+1 :    5 A1 0.0000000
  LUNO+2 :    6 A1 0.0000000
  LUNO+3 :    7 A1 0.0000000


Computation Completed


Properties will be evaluated at   0.000000,   0.000000,   0.000000 [a0]

Properties computed using the SCF density matrix


 Multipole Moments:

 ------------------------------------------------------------------------------------
     Multipole            Electronic (a.u.)      Nuclear  (a.u.)        Total (a.u.)
 ------------------------------------------------------------------------------------

 L = 1.  Multiply by 2.5417464519 to convert [e a0] to [Debye]
 Dipole X            :          0.0000000            0.0000000            0.0000000
 Dipole Y            :          0.0000000            0.0000000            0.0000000
 Dipole Z            :         -0.3685316            1.0954227            0.7268911
 Magnitude           :                                                    0.7268911

 ------------------------------------------------------------------------------------

*** tstop() called on Mac.lan at Sun Aug 10 18:27:18 2025
Module time:
	user time   =       8.19 seconds =       0.14 minutes
	system time =       2.20 seconds =       0.04 minutes
	total time  =          1 seconds =       0.02 minutes
Total time:
	user time   =       8.19 seconds =       0.14 minutes
	system time =       2.20 seconds =       0.04 minutes
	total time  =          1 seconds =       0.02 minutes

*** tstart() called on Mac.lan
*** at Sun Aug 10 18:27:18 2025

   => Libint2 <=

    Primary   basis highest AM E, G, H:  6, 6, 3
    Auxiliary basis highest AM E, G, H:  7, 7, 4
    Onebody   basis highest AM E, G, H:  -, -, -
    Solid Harmonics ordering:            Gaussian
   => Loading Basis Set <=

    Name: CC-PVTZ
    Role: ORBITAL
    Keyword: BASIS
    atoms 1 entry C          line   186 file /Users/joseantoniorodriguesromero/anaconda3/share/psi4/basis/cc-pvtz.gbs 
    atoms 2 entry H          line    23 file /Users/joseantoniorodriguesromero/anaconda3/share/psi4/basis/cc-pvtz.gbs 


         ---------------------------------------------------------
                                   SCF
               by Justin Turney, Rob Parrish, Andy Simmonett
                          and Daniel G. A. Smith
                              UKS Reference
                        1 Threads,    500 MiB Core
         ---------------------------------------------------------

  ==> Geometry <==

    Molecular point group: c2v
    Full point group: C_inf_v

    Geometry (in Angstrom), charge = 1, multiplicity = 1:

       Center              X                  Y                   Z               Mass       
    ------------   -----------------  -----------------  -----------------  -----------------
         C            0.000000000000     0.000000000000    -0.098136035677    12.000000000000
         H            0.000000000000     0.000000000000     1.168488964323     1.007825032230

  Running in c2v symmetry.

  Rotational constants: A = ************  B =     11.30157  C =     11.30157 [cm^-1]
  Rotational constants: A = ************  B = 338812.47102  C = 338812.47102 [MHz]
  Nuclear repulsion =    2.506711350257575

  Charge       = 1
  Multiplicity = 1
  Electrons    = 6
  Nalpha       = 3
  Nbeta        = 3

  ==> Algorithm <==

  SCF Algorithm Type is DF.
  DIIS enabled.
  MOM disabled.
  Fractional occupation disabled.
  Guess Type is READ.
  Energy threshold   = 1.00e-08
  Density threshold  = 1.00e-08
  Integral threshold = 1.00e-12

  ==> Primary Basis <==

  Basis Set: CC-PVTZ
    Blend: CC-PVTZ
    Number of shells: 16
    Number of basis functions: 44
    Number of Cartesian functions: 50
    Spherical Harmonics?: true
    Max angular momentum: 3

  ==> DFT Potential <==

   => LibXC <=

    Version 6.2.2
    S. Lehtola, C. Steigemann, M. J.T. Oliveira, and M. A.L. Marques.,  SoftwareX 7, 1–5 (2018) (10.1016/j.softx.2017.11.002)

   => Composite Functional: B3LYP <= 

    B3LYP Hyb-GGA Exchange-Correlation Functional

    P. J. Stephens, F. J. Devlin, C. F. Chabalowski, and M. J. Frisch.,  J. Phys. Chem. 98, 11623 (1994) (10.1021/j100096a001)

    Deriv               =              1
    GGA                 =           TRUE
    Meta                =          FALSE

    Exchange Hybrid     =           TRUE
    MP2 Hybrid          =          FALSE

   => Exchange Functionals <=

    0.0800   Slater exchange
    0.7200         Becke 88

   => Exact (HF) Exchange <=

    0.2000               HF 

   => Correlation Functionals <=

    0.1900   Vosko, Wilk & Nusair (VWN5_RPA)
    0.8100   Lee, Yang & Parr

   => LibXC Density Thresholds  <==

    XC_HYB_GGA_XC_B3LYP:  1.00E-15 

   => Molecular Quadrature <=

    Radial Scheme          =       TREUTLER
    Pruning Scheme         =           NONE
    Nuclear Scheme         =       TREUTLER

    Blocking Scheme        =         OCTREE
    BS radius alpha        =              1
    Pruning alpha          =              1
    Radial Points          =             75
    Spherical Points       =            302
    Total Points           =          43827
    Total Blocks           =            391
    Max Points             =            254
    Max Functions          =             44
    Weights Tolerance      =       1.00E-15

   => Loading Basis Set <=

    Name: (CC-PVTZ AUX)
    Role: JKFIT
    Keyword: DF_BASIS_SCF
    atoms 1 entry C          line   125 file /Users/joseantoniorodriguesromero/anaconda3/share/psi4/basis/cc-pvtz-jkfit.gbs 
    atoms 2 entry H          line    51 file /Users/joseantoniorodriguesromero/anaconda3/share/psi4/basis/cc-pvtz-jkfit.gbs 

   => Loading Basis Set <=

    Name: CC-PVTZ
    Role: ORBITAL
    Keyword: BASIS
    atoms 1 entry C          line   186 file /Users/joseantoniorodriguesromero/anaconda3/share/psi4/basis/cc-pvtz.gbs 
    atoms 2 entry H          line    23 file /Users/joseantoniorodriguesromero/anaconda3/share/psi4/basis/cc-pvtz.gbs 

  Reading orbitals from file /tmp/scan_HC_29.default.50108.180.npy, no projection.

  ==> Integral Setup <==

  DFHelper Memory: AOs need 0.002 GiB; user supplied 0.311 GiB. 
  Using in-core AOs.

  ==> MemDFJK: Density-Fitted J/K Matrices <==

    J tasked:                   Yes
    K tasked:                   Yes
    wK tasked:                   No
    OpenMP threads:               1
    Memory [MiB]:               318
    Algorithm:                 Core
    Schwarz Cutoff:           1E-12
    Mask sparsity (%):       0.0000
    Fitting Condition:        1E-10

   => Auxiliary Basis Set <=

  Basis Set: (CC-PVTZ AUX)
    Blend: CC-PVTZ-JKFIT
    Number of shells: 35
    Number of basis functions: 109
    Number of Cartesian functions: 131
    Spherical Harmonics?: true
    Max angular momentum: 4

  Cached 100.0% of DFT collocation blocks in 0.055 [GiB].

  Minimum eigenvalue in the overlap matrix is 5.1821143292E-03.
  Reciprocal condition number of the overlap matrix is 1.3151285174E-03.
    Using symmetric orthogonalization.

  ==> Pre-Iterations <==

  SCF Guess: Orbitals guess was supplied from a previous computation.

   -------------------------------------------------------
    Irrep   Nso     Nmo     Nalpha   Nbeta   Ndocc  Nsocc
   -------------------------------------------------------
     A1        20      20       3       3       3       0
     A2         4       4       0       0       0       0
     B1        10      10       0       0       0       0
     B2        10      10       0       0       0       0
   -------------------------------------------------------
    Total      44      44       3       3       3       0
   -------------------------------------------------------

  ==> Iterations <==

                           Total Energy        Delta E     RMS |[F,P]|

   @DF-UKS iter   0:   -38.08570109354644   -3.80857e+01   1.73698e-12 
   @DF-UKS iter   1:   -38.08570109354642    2.13163e-14   1.18483e-12 DIIS
  Energy and wave function converged.


  ==> Post-Iterations <==

   Electrons on quadrature grid:
      Nalpha   =    3.0000000303 ; deviation = 3.034e-08
      Nbeta    =    3.0000000303 ; deviation = 3.034e-08
      Ntotal   =    6.0000000607 ; deviation = 6.068e-08 

   @Spin Contamination Metric:  -4.440892099E-16
   @S^2 Expected:                0.000000000E+00
   @S^2 Observed:               -4.440892099E-16
   @S   Expected:                0.000000000E+00
   @S   Observed:                0.000000000E+00

    Orbital Energies [Eh]
    ---------------------

    Alpha Occupied:                                                       

       1A1   -10.804923     2A1    -1.018323     3A1    -0.711190  

    Alpha Virtual:                                                        

       1B1    -0.540599     1B2    -0.540599     4A1    -0.263320  
       5A1    -0.014451     2B1     0.008840     2B2     0.008840  
       6A1     0.032304     7A1     0.162141     3B1     0.219692  
       3B2     0.219692     8A1     0.322469     1A2     0.322469  
       9A1     0.599136     4B1     0.673294     4B2     0.673294  
      10A1     0.930917     5B2     1.528459     5B1     1.528459  
      11A1     1.728429    12A1     1.944159     2A2     2.151166  
      13A1     2.151167     6B1     2.181809     6B2     2.181809  
       7B1     2.252947     7B2     2.252947    14A1     2.391886  
      15A1     2.493440     3A2     2.493440     8B1     2.631868  
       8B2     2.631868    16A1     2.717134     4A2     3.069657  
      17A1     3.069660     9B1     3.376793     9B2     3.376793  
      18A1     3.602098    10B1     3.983173    10B2     3.983173  
      19A1     4.094702    20A1     6.443032  

    Beta Occupied:                                                        

       1A1   -10.804923     2A1    -1.018323     3A1    -0.711190  

    Beta Virtual:                                                         

       1B1    -0.540599     1B2    -0.540599     4A1    -0.263320  
       5A1    -0.014451     2B1     0.008840     2B2     0.008840  
       6A1     0.032304     7A1     0.162141     3B1     0.219692  
       3B2     0.219692     8A1     0.322469     1A2     0.322469  
       9A1     0.599136     4B1     0.673294     4B2     0.673294  
      10A1     0.930917     5B2     1.528459     5B1     1.528459  
      11A1     1.728429    12A1     1.944159     2A2     2.151166  
      13A1     2.151167     6B1     2.181809     6B2     2.181809  
       7B1     2.252947     7B2     2.252947    14A1     2.391886  
      15A1     2.493440     3A2     2.493440     8B1     2.631868  
       8B2     2.631868    16A1     2.717134     4A2     3.069657  
      17A1     3.069660     9B1     3.376793     9B2     3.376793  
      18A1     3.602098    10B1     3.983173    10B2     3.983173  
      19A1     4.094702    20A1     6.443032  

    Final Occupation by Irrep:
             A1    A2    B1    B2 
    DOCC [     3,    0,    0,    0 ]
    SOCC [     0,    0,    0,    0 ]
    NA   [     3,    0,    0,    0 ]
    NB   [     3,    0,    0,    0 ]

  @DF-UKS Final Energy:   -38.08570109354642

   => Energetics <=

    Nuclear Repulsion Energy =              2.5067113502575746
    One-Electron Energy =                 -53.0539631031427916
    Two-Electron Energy =                  16.6963709345046780
    DFT Exchange-Correlation Energy =      -4.2348202751658830
    Empirical Dispersion Energy =           0.0000000000000000
    VV10 Nonlocal Energy =                  0.0000000000000000
    Total Energy =                        -38.0857010935464189

  UHF NO Occupations:
  HONO-2 :    1 A1 2.0000000
  HONO-1 :    2 A1 2.0000000
  HONO-0 :    3 A1 2.0000000
  LUNO+0 :    4 A1 0.0000000
  LUNO+1 :    5 A1 0.0000000
  LUNO+2 :    6 A1 0.0000000
  LUNO+3 :    7 A1 0.0000000


Computation Completed


Properties will be evaluated at   0.000000,   0.000000,   0.000000 [a0]

Properties computed using the B3LYP density matrix


 Multipole Moments:

 ------------------------------------------------------------------------------------
     Multipole            Electronic (a.u.)      Nuclear  (a.u.)        Total (a.u.)
 ------------------------------------------------------------------------------------

 L = 1.  Multiply by 2.5417464519 to convert [e a0] to [Debye]
 Dipole X            :          0.0000000            0.0000000            0.0000000
 Dipole Y            :          0.0000000            0.0000000            0.0000000
 Dipole Z            :         -0.3685316            1.0954227            0.7268911
 Magnitude           :                                                    0.7268911

 L = 2.  Multiply by 1.3450342976 to convert [e a0^2] to [Debye ang]
 Quadrupole XX       :         -2.9938736            0.0000000           -2.9938736
 Quadrupole XY       :          0.0000000            0.0000000            0.0000000
 Quadrupole XZ       :          0.0000000            0.0000000            0.0000000
 Quadrupole YY       :         -2.9938736            0.0000000           -2.9938736
 Quadrupole YZ       :          0.0000000            0.0000000            0.0000000
 Quadrupole ZZ       :         -7.9095600            5.0821629           -2.8273971
 Traceless XX        :          1.6385621           -1.6940543           -0.0554922
 Traceless YY        :          1.6385621           -1.6940543           -0.0554922
 Traceless ZZ        :         -3.2771242            3.3881086            0.1109843

 ------------------------------------------------------------------------------------
  ==> Computing MBIS Charges <==

  Electron Count from Grid (Expected Number):  6.00000 ( 6.00000)
  Difference:  0.00000

  MBIS Charges: (a.u.)
   Center  Symbol  Z      Pop.       Charge
      1       C    6    5.211824    0.788176
      2       H    1    0.788176    0.211824

  MBIS Dipoles: [e a0]
   Center  Symbol  Z        X           Y           Z
      1       C    6    0.000000    0.000000    0.282464
      2       H    1   -0.000000   -0.000000    0.122859

  MBIS Quadrupoles: [e a0^2]
   Center  Symbol  Z      XX        XY        XZ        YY        YZ        ZZ
      1       C    6   -2.5606    0.0000   -0.0000   -2.5606   -0.0000   -3.8810
      2       H    1   -0.4332    0.0000   -0.0000   -0.4332   -0.0000   -0.4441

  MBIS Octupoles: [e a0^3]
   Center  Symbol  Z      XXX       XXY       XXZ       XYY       XYZ       XZZ       YYY       YYZ       YZZ       ZZZ
      1       C    6    0.0000   -0.0000    0.3221   -0.0000   -0.0000    0.0000    0.0000    0.3221   -0.0000    0.8514
      2       H    1   -0.0000   -0.0000    0.0247   -0.0000    0.0000   -0.0000   -0.0000    0.0247   -0.0000    0.1082

  MBIS Radial Moments:
   Center  Symbol  Z      [a0^2]      [a0^3]      [a0^4]      
      1       C    6    9.002253   19.270084   49.163935
      2       H    1    1.310626    2.338239    4.988938

  MBIS Valence Widths: [a0]
   Center  Symbol  Z     Width
      1       C    6    0.464823
      2       H    1    0.380395

*** tstop() called on Mac.lan at Sun Aug 10 18:27:18 2025
Module time:
	user time   =       2.49 seconds =       0.04 minutes
	system time =       2.03 seconds =       0.03 minutes
	total time  =          0 seconds =       0.00 minutes
Total time:
	user time   =      10.71 seconds =       0.18 minutes
	system time =       4.38 seconds =       0.07 minutes
	total time  =          1 seconds =       0.02 minutes

    Psi4 stopped on: Sunday, 10 August 2025 06:27PM
    Psi4 wall time for execution: 0:00:01.48

*** Psi4 exiting successfully. Buy a developer a beer!
