
    -----------------------------------------------------------------------
          Psi4: An Open-Source Ab Initio Electronic Structure Package
                               Psi4 1.9.1 release

                         Git: Rev {} zzzzzzz 


    D. G. A. Smith, L. A. Burns, A. C. Simmonett, R. M. Parrish,
    M. C. Schieber, R. Galvelis, P. Kraus, H. Kruse, R. Di Remigio,
    A. Alenaizan, A. M. James, S. Lehtola, J. P. Misiewicz, M. Scheurer,
    R. A. Shaw, J. B. Schriber, Y. Xie, Z. L. Glick, D. A. Sirianni,
    J. S. O'Brien, J. M. Waldrop, A. Kumar, E. G. Hohenstein,
    B. P. Pritchard, B. R. Brooks, H. F. Schaefer III, A. Yu. Sokolov,
    K. Patkowski, A. E. DePrince III, U. Bozkaya, R. A. King,
    F. A. Evangelista, J. M. Turney, T. D. Crawford, C. D. Sherrill,
    J. Chem. Phys. 152(18) 184108 (2020). https://doi.org/10.1063/5.0006002

                            Additional Code Authors
    E. T. Seidl, C. L. Janssen, E. F. Valeev, M. L. Leininger,
    J. F. Gonthier, R. M. Richard, H. R. McAlexander, M. Saitow, X. Wang,
    P. Verma, M. H. Lechner, A. Jiang, S. Behnle, A. G. Heide,
    M. F. Herbst, and D. L. Poole

             Previous Authors, Complete List of Code Contributors,
                       and Citations for Specific Modules
    https://github.com/psi4/psi4/blob/master/codemeta.json
    https://github.com/psi4/psi4/graphs/contributors
    http://psicode.org/psi4manual/master/introduction.html#citing-psifour

    -----------------------------------------------------------------------


    Psi4 started on: Sunday, 10 August 2025 06:28PM

    Process ID: 50163
    Host:       Mac.lan
    PSIDATADIR: /Users/joseantoniorodriguesromero/anaconda3/share/psi4
    Memory:     500.0 MiB
    Threads:    1
    
  ==> Input File <==

--------------------------------------------------------------------------
molecule { 
1 3
O           0.000000           0.000000           0.000000
H           0.000000           0.000000           0.985350
}

set { 
basis              cc-pvtz
reference          uks
maxiter            500
DAMPING_PERCENTAGE 1
E_CONVERGENCE      1.0E-8
D_CONVERGENCE      1.0E-8
DIIS_MAX_VECS      400
MBIS_MAXITER       8000
guess              read
}

E, wfn = energy('b3lyp', restart_file='last_wfn', return_wfn=True)
properties('b3lyp','MBIS_CHARGES', wfn=wfn)
wfn.to_file('last_wfn')
--------------------------------------------------------------------------

Scratch directory: /tmp/
 Found user provided orbital data. Setting orbital guess to READ 
 Copying restart file <last_wfn.npy> to </tmp/scan_HO_20.default.50163.180.npy> for internal processing
   => Libint2 <=

    Primary   basis highest AM E, G, H:  6, 6, 3
    Auxiliary basis highest AM E, G, H:  7, 7, 4
    Onebody   basis highest AM E, G, H:  -, -, -
    Solid Harmonics ordering:            Gaussian

*** tstart() called on Mac.lan
*** at Sun Aug 10 18:28:26 2025

   => Loading Basis Set <=

    Name: CC-PVTZ
    Role: ORBITAL
    Keyword: BASIS
    atoms 1 entry O          line   262 file /Users/joseantoniorodriguesromero/anaconda3/share/psi4/basis/cc-pvtz.gbs 
    atoms 2 entry H          line    23 file /Users/joseantoniorodriguesromero/anaconda3/share/psi4/basis/cc-pvtz.gbs 


         ---------------------------------------------------------
                                   SCF
               by Justin Turney, Rob Parrish, Andy Simmonett
                          and Daniel G. A. Smith
                              UKS Reference
                        1 Threads,    500 MiB Core
         ---------------------------------------------------------

  ==> Geometry <==

    Molecular point group: c2v
    Full point group: C_inf_v

    Geometry (in Angstrom), charge = 1, multiplicity = 3:

       Center              X                  Y                   Z               Mass       
    ------------   -----------------  -----------------  -----------------  -----------------
         O            0.000000000000     0.000000000000    -0.058405904921    15.994914619570
         H            0.000000000000     0.000000000000     0.926944095079     1.007825032230

  Running in c2v symmetry.

  Rotational constants: A = ************  B =     18.31333  C =     18.31333 [cm^-1]
  Rotational constants: A = ************  B = 549019.78465  C = 549019.78465 [MHz]
  Nuclear repulsion =    4.296359349835084

  Charge       = 1
  Multiplicity = 3
  Electrons    = 8
  Nalpha       = 5
  Nbeta        = 3

  ==> Algorithm <==

  SCF Algorithm Type is DF.
  DIIS enabled.
  MOM disabled.
  Fractional occupation disabled.
  Guess Type is READ.
  Energy threshold   = 1.00e-08
  Density threshold  = 1.00e-08
  Integral threshold = 1.00e-12

  ==> Primary Basis <==

  Basis Set: CC-PVTZ
    Blend: CC-PVTZ
    Number of shells: 16
    Number of basis functions: 44
    Number of Cartesian functions: 50
    Spherical Harmonics?: true
    Max angular momentum: 3

  ==> DFT Potential <==

   => LibXC <=

    Version 6.2.2
    S. Lehtola, C. Steigemann, M. J.T. Oliveira, and M. A.L. Marques.,  SoftwareX 7, 1–5 (2018) (10.1016/j.softx.2017.11.002)

   => Composite Functional: B3LYP <= 

    B3LYP Hyb-GGA Exchange-Correlation Functional

    P. J. Stephens, F. J. Devlin, C. F. Chabalowski, and M. J. Frisch.,  J. Phys. Chem. 98, 11623 (1994) (10.1021/j100096a001)

    Deriv               =              1
    GGA                 =           TRUE
    Meta                =          FALSE

    Exchange Hybrid     =           TRUE
    MP2 Hybrid          =          FALSE

   => Exchange Functionals <=

    0.0800   Slater exchange
    0.7200         Becke 88

   => Exact (HF) Exchange <=

    0.2000               HF 

   => Correlation Functionals <=

    0.1900   Vosko, Wilk & Nusair (VWN5_RPA)
    0.8100   Lee, Yang & Parr

   => LibXC Density Thresholds  <==

    XC_HYB_GGA_XC_B3LYP:  1.00E-15 

   => Molecular Quadrature <=

    Radial Scheme          =       TREUTLER
    Pruning Scheme         =           NONE
    Nuclear Scheme         =       TREUTLER

    Blocking Scheme        =         OCTREE
    BS radius alpha        =              1
    Pruning alpha          =              1
    Radial Points          =             75
    Spherical Points       =            302
    Total Points           =          44135
    Total Blocks           =            393
    Max Points             =            255
    Max Functions          =             44
    Weights Tolerance      =       1.00E-15

   => Loading Basis Set <=

    Name: (CC-PVTZ AUX)
    Role: JKFIT
    Keyword: DF_BASIS_SCF
    atoms 1 entry O          line   229 file /Users/joseantoniorodriguesromero/anaconda3/share/psi4/basis/cc-pvtz-jkfit.gbs 
    atoms 2 entry H          line    51 file /Users/joseantoniorodriguesromero/anaconda3/share/psi4/basis/cc-pvtz-jkfit.gbs 

   => Loading Basis Set <=

    Name: CC-PVTZ
    Role: ORBITAL
    Keyword: BASIS
    atoms 1 entry O          line   262 file /Users/joseantoniorodriguesromero/anaconda3/share/psi4/basis/cc-pvtz.gbs 
    atoms 2 entry H          line    23 file /Users/joseantoniorodriguesromero/anaconda3/share/psi4/basis/cc-pvtz.gbs 

  Reading orbitals from file /tmp/scan_HO_20.default.50163.180.npy, no projection.

  ==> Integral Setup <==

  DFHelper Memory: AOs need 0.002 GiB; user supplied 0.312 GiB. 
  Using in-core AOs.

  ==> MemDFJK: Density-Fitted J/K Matrices <==

    J tasked:                   Yes
    K tasked:                   Yes
    wK tasked:                   No
    OpenMP threads:               1
    Memory [MiB]:               319
    Algorithm:                 Core
    Schwarz Cutoff:           1E-12
    Mask sparsity (%):       0.0000
    Fitting Condition:        1E-10

   => Auxiliary Basis Set <=

  Basis Set: (CC-PVTZ AUX)
    Blend: CC-PVTZ-JKFIT
    Number of shells: 35
    Number of basis functions: 109
    Number of Cartesian functions: 131
    Spherical Harmonics?: true
    Max angular momentum: 4

  Cached 100.0% of DFT collocation blocks in 0.055 [GiB].

  Minimum eigenvalue in the overlap matrix is 4.2847653243E-03.
  Reciprocal condition number of the overlap matrix is 1.0873155161E-03.
    Using symmetric orthogonalization.

  ==> Pre-Iterations <==

  SCF Guess: Orbitals guess was supplied from a previous computation.

   -------------------------------------------------------
    Irrep   Nso     Nmo     Nalpha   Nbeta   Ndocc  Nsocc
   -------------------------------------------------------
     A1        20      20       3       3       3       0
     A2         4       4       0       0       0       0
     B1        10      10       1       0       0       1
     B2        10      10       1       0       0       1
   -------------------------------------------------------
    Total      44      44       5       3       3       2
   -------------------------------------------------------

  ==> Iterations <==

                           Total Energy        Delta E     RMS |[F,P]|

   @DF-UKS iter   0:   -75.29275403604811   -7.52928e+01   1.56544e-03 
   @DF-UKS iter   1:   -75.27928133961802    1.34727e-02   2.51517e-04 DIIS/ADIIS
   @DF-UKS iter   2:   -75.27929126842241   -9.92880e-06   1.23578e-04 DIIS/ADIIS/DAMP=1%
   @DF-UKS iter   3:   -75.27935550512626   -6.42367e-05   2.69438e-05 DIIS/DAMP=1%
   @DF-UKS iter   4:   -75.27928199184036    7.35133e-05   3.27189e-06 DIIS/DAMP=1%
   @DF-UKS iter   5:   -75.27929549205716   -1.35002e-05   5.55098e-07 DIIS/DAMP=1%
   @DF-UKS iter   6:   -75.27929386282862    1.62923e-06   8.55140e-08 DIIS/DAMP=1%
   @DF-UKS iter   7:   -75.27929406380021   -2.00972e-07   4.42963e-09 DIIS/DAMP=1%
   @DF-UKS iter   8:   -75.27929404009409    2.37061e-08   3.84578e-10 DIIS/DAMP=1%
   @DF-UKS iter   9:   -75.27929403986022    2.33868e-10   3.99523e-11 DIIS/DAMP=1%
  Energy and wave function converged.


  ==> Post-Iterations <==

   Electrons on quadrature grid:
      Nalpha   =    4.9999999811 ; deviation = -1.894e-08
      Nbeta    =    3.0000000099 ; deviation = 9.902e-09
      Ntotal   =    7.9999999910 ; deviation = -9.041e-09 

   @Spin Contamination Metric:   4.530845948E-03
   @S^2 Expected:                2.000000000E+00
   @S^2 Observed:                2.004530846E+00
   @S   Expected:                1.000000000E+00
   @S   Observed:                1.000000000E+00

    Orbital Energies [Eh]
    ---------------------

    Alpha Occupied:                                                       

       1A1   -19.822238     2A1    -1.581074     3A1    -0.993136  
       1B1    -0.954486     1B2    -0.954486  

    Alpha Virtual:                                                        

       4A1    -0.305219     5A1     0.004896     2B1     0.134716  
       2B2     0.134716     6A1     0.165052     3B1     0.322775  
       3B2     0.322775     7A1     0.469826     8A1     0.849296  
       9A1     0.918461     1A2     0.918461     4B1     1.280780  
       4B2     1.280780    10A1     1.468088    11A1     1.976446  
      12A1     2.752587     2A2     2.752587     5B2     2.808027  
       5B1     2.808027     6B1     3.155122     6B2     3.155122  
      13A1     3.214144     7B1     3.575154     7B2     3.575154  
      14A1     3.786132    15A1     4.176262     8B1     4.496493  
       8B2     4.496493    16A1     4.782595     3A2     4.782595  
       4A2     5.525345    17A1     5.525346     9B1     5.689935  
       9B2     5.689935    18A1     5.799420    10B1     6.039158  
      10B2     6.039158    19A1     6.412550    20A1     9.500658  

    Beta Occupied:                                                        

       1A1   -19.766092     2A1    -1.429577     3A1    -0.937944  

    Beta Virtual:                                                         

       1B1    -0.651364     1B2    -0.651364     4A1    -0.288584  
       5A1     0.013404     6A1     0.178363     2B1     0.202782  
       2B2     0.202782     3B1     0.337276     3B2     0.337276  
       7A1     0.521911     8A1     0.867971     9A1     1.030265  
       1A2     1.030265     4B1     1.334433     4B2     1.334433  
      10A1     1.496162    11A1     1.986981    12A1     2.762898  
       2A2     2.762898     5B2     2.887701     5B1     2.887701  
       6B1     3.200187     6B2     3.200187    13A1     3.224443  
       7B1     3.617332     7B2     3.617332    14A1     3.828603  
      15A1     4.235105     8B1     4.648719     8B2     4.648719  
      16A1     4.879494     3A2     4.879495     4A2     5.737719  
      17A1     5.737720     9B1     5.797167     9B2     5.797167  
      18A1     5.850823    10B1     6.102833    10B2     6.102833  
      19A1     6.473221    20A1     9.573644  

    Final Occupation by Irrep:
             A1    A2    B1    B2 
    DOCC [     3,    0,    0,    0 ]
    SOCC [     0,    0,    1,    1 ]
    NA   [     3,    0,    1,    1 ]
    NB   [     3,    0,    0,    0 ]

  @DF-UKS Final Energy:   -75.27929403986022

   => Energetics <=

    Nuclear Repulsion Energy =              4.2963593498350843
    One-Electron Energy =                -107.7669696675896915
    Two-Electron Energy =                  35.0720632039438627
    DFT Exchange-Correlation Energy =      -6.8807469260494676
    Empirical Dispersion Energy =           0.0000000000000000
    VV10 Nonlocal Energy =                  0.0000000000000000
    Total Energy =                        -75.2792940398602042

  UHF NO Occupations:
  HONO-2 :    3 A1 1.9983228
  HONO-1 :    1 B1 1.0000000
  HONO-0 :    1 B2 1.0000000
  LUNO+0 :    4 A1 0.0016772
  LUNO+1 :    5 A1 0.0005884
  LUNO+2 :    6 A1 0.0000015
  LUNO+3 :    7 A1 0.0000000


Computation Completed


Properties will be evaluated at   0.000000,   0.000000,   0.000000 [a0]

Properties computed using the SCF density matrix


 Multipole Moments:

 ------------------------------------------------------------------------------------
     Multipole            Electronic (a.u.)      Nuclear  (a.u.)        Total (a.u.)
 ------------------------------------------------------------------------------------

 L = 1.  Multiply by 2.5417464519 to convert [e a0] to [Debye]
 Dipole X            :          0.0000000            0.0000000            0.0000000
 Dipole Y            :          0.0000000            0.0000000            0.0000000
 Dipole Z            :         -0.0148714            0.8687012            0.8538297
 Magnitude           :                                                    0.8538297

 ------------------------------------------------------------------------------------

*** tstop() called on Mac.lan at Sun Aug 10 18:28:27 2025
Module time:
	user time   =       9.66 seconds =       0.16 minutes
	system time =       2.18 seconds =       0.04 minutes
	total time  =          1 seconds =       0.02 minutes
Total time:
	user time   =       9.66 seconds =       0.16 minutes
	system time =       2.18 seconds =       0.04 minutes
	total time  =          1 seconds =       0.02 minutes

*** tstart() called on Mac.lan
*** at Sun Aug 10 18:28:27 2025

   => Libint2 <=

    Primary   basis highest AM E, G, H:  6, 6, 3
    Auxiliary basis highest AM E, G, H:  7, 7, 4
    Onebody   basis highest AM E, G, H:  -, -, -
    Solid Harmonics ordering:            Gaussian
   => Loading Basis Set <=

    Name: CC-PVTZ
    Role: ORBITAL
    Keyword: BASIS
    atoms 1 entry O          line   262 file /Users/joseantoniorodriguesromero/anaconda3/share/psi4/basis/cc-pvtz.gbs 
    atoms 2 entry H          line    23 file /Users/joseantoniorodriguesromero/anaconda3/share/psi4/basis/cc-pvtz.gbs 


         ---------------------------------------------------------
                                   SCF
               by Justin Turney, Rob Parrish, Andy Simmonett
                          and Daniel G. A. Smith
                              UKS Reference
                        1 Threads,    500 MiB Core
         ---------------------------------------------------------

  ==> Geometry <==

    Molecular point group: c2v
    Full point group: C_inf_v

    Geometry (in Angstrom), charge = 1, multiplicity = 3:

       Center              X                  Y                   Z               Mass       
    ------------   -----------------  -----------------  -----------------  -----------------
         O            0.000000000000     0.000000000000    -0.058405904921    15.994914619570
         H            0.000000000000     0.000000000000     0.926944095079     1.007825032230

  Running in c2v symmetry.

  Rotational constants: A = ************  B =     18.31333  C =     18.31333 [cm^-1]
  Rotational constants: A = ************  B = 549019.78465  C = 549019.78465 [MHz]
  Nuclear repulsion =    4.296359349835084

  Charge       = 1
  Multiplicity = 3
  Electrons    = 8
  Nalpha       = 5
  Nbeta        = 3

  ==> Algorithm <==

  SCF Algorithm Type is DF.
  DIIS enabled.
  MOM disabled.
  Fractional occupation disabled.
  Guess Type is READ.
  Energy threshold   = 1.00e-08
  Density threshold  = 1.00e-08
  Integral threshold = 1.00e-12

  ==> Primary Basis <==

  Basis Set: CC-PVTZ
    Blend: CC-PVTZ
    Number of shells: 16
    Number of basis functions: 44
    Number of Cartesian functions: 50
    Spherical Harmonics?: true
    Max angular momentum: 3

  ==> DFT Potential <==

   => LibXC <=

    Version 6.2.2
    S. Lehtola, C. Steigemann, M. J.T. Oliveira, and M. A.L. Marques.,  SoftwareX 7, 1–5 (2018) (10.1016/j.softx.2017.11.002)

   => Composite Functional: B3LYP <= 

    B3LYP Hyb-GGA Exchange-Correlation Functional

    P. J. Stephens, F. J. Devlin, C. F. Chabalowski, and M. J. Frisch.,  J. Phys. Chem. 98, 11623 (1994) (10.1021/j100096a001)

    Deriv               =              1
    GGA                 =           TRUE
    Meta                =          FALSE

    Exchange Hybrid     =           TRUE
    MP2 Hybrid          =          FALSE

   => Exchange Functionals <=

    0.0800   Slater exchange
    0.7200         Becke 88

   => Exact (HF) Exchange <=

    0.2000               HF 

   => Correlation Functionals <=

    0.1900   Vosko, Wilk & Nusair (VWN5_RPA)
    0.8100   Lee, Yang & Parr

   => LibXC Density Thresholds  <==

    XC_HYB_GGA_XC_B3LYP:  1.00E-15 

   => Molecular Quadrature <=

    Radial Scheme          =       TREUTLER
    Pruning Scheme         =           NONE
    Nuclear Scheme         =       TREUTLER

    Blocking Scheme        =         OCTREE
    BS radius alpha        =              1
    Pruning alpha          =              1
    Radial Points          =             75
    Spherical Points       =            302
    Total Points           =          44135
    Total Blocks           =            393
    Max Points             =            255
    Max Functions          =             44
    Weights Tolerance      =       1.00E-15

   => Loading Basis Set <=

    Name: (CC-PVTZ AUX)
    Role: JKFIT
    Keyword: DF_BASIS_SCF
    atoms 1 entry O          line   229 file /Users/joseantoniorodriguesromero/anaconda3/share/psi4/basis/cc-pvtz-jkfit.gbs 
    atoms 2 entry H          line    51 file /Users/joseantoniorodriguesromero/anaconda3/share/psi4/basis/cc-pvtz-jkfit.gbs 

   => Loading Basis Set <=

    Name: CC-PVTZ
    Role: ORBITAL
    Keyword: BASIS
    atoms 1 entry O          line   262 file /Users/joseantoniorodriguesromero/anaconda3/share/psi4/basis/cc-pvtz.gbs 
    atoms 2 entry H          line    23 file /Users/joseantoniorodriguesromero/anaconda3/share/psi4/basis/cc-pvtz.gbs 

  Reading orbitals from file /tmp/scan_HO_20.default.50163.180.npy, no projection.

  ==> Integral Setup <==

  DFHelper Memory: AOs need 0.002 GiB; user supplied 0.312 GiB. 
  Using in-core AOs.

  ==> MemDFJK: Density-Fitted J/K Matrices <==

    J tasked:                   Yes
    K tasked:                   Yes
    wK tasked:                   No
    OpenMP threads:               1
    Memory [MiB]:               319
    Algorithm:                 Core
    Schwarz Cutoff:           1E-12
    Mask sparsity (%):       0.0000
    Fitting Condition:        1E-10

   => Auxiliary Basis Set <=

  Basis Set: (CC-PVTZ AUX)
    Blend: CC-PVTZ-JKFIT
    Number of shells: 35
    Number of basis functions: 109
    Number of Cartesian functions: 131
    Spherical Harmonics?: true
    Max angular momentum: 4

  Cached 100.0% of DFT collocation blocks in 0.055 [GiB].

  Minimum eigenvalue in the overlap matrix is 4.2847653243E-03.
  Reciprocal condition number of the overlap matrix is 1.0873155161E-03.
    Using symmetric orthogonalization.

  ==> Pre-Iterations <==

  SCF Guess: Orbitals guess was supplied from a previous computation.

   -------------------------------------------------------
    Irrep   Nso     Nmo     Nalpha   Nbeta   Ndocc  Nsocc
   -------------------------------------------------------
     A1        20      20       3       3       3       0
     A2         4       4       0       0       0       0
     B1        10      10       1       0       0       1
     B2        10      10       1       0       0       1
   -------------------------------------------------------
    Total      44      44       5       3       3       2
   -------------------------------------------------------

  ==> Iterations <==

                           Total Energy        Delta E     RMS |[F,P]|

   @DF-UKS iter   0:   -75.27929403982010   -7.52793e+01   2.97919e-12 
   @DF-UKS iter   1:   -75.27929403982006    4.26326e-14   9.15175e-13 DIIS
  Energy and wave function converged.


  ==> Post-Iterations <==

   Electrons on quadrature grid:
      Nalpha   =    4.9999999811 ; deviation = -1.894e-08
      Nbeta    =    3.0000000099 ; deviation = 9.902e-09
      Ntotal   =    7.9999999910 ; deviation = -9.041e-09 

   @Spin Contamination Metric:   4.530845943E-03
   @S^2 Expected:                2.000000000E+00
   @S^2 Observed:                2.004530846E+00
   @S   Expected:                1.000000000E+00
   @S   Observed:                1.000000000E+00

    Orbital Energies [Eh]
    ---------------------

    Alpha Occupied:                                                       

       1A1   -19.822238     2A1    -1.581074     3A1    -0.993136  
       1B1    -0.954486     1B2    -0.954486  

    Alpha Virtual:                                                        

       4A1    -0.305219     5A1     0.004896     2B1     0.134716  
       2B2     0.134716     6A1     0.165052     3B1     0.322775  
       3B2     0.322775     7A1     0.469826     8A1     0.849296  
       9A1     0.918461     1A2     0.918461     4B1     1.280780  
       4B2     1.280780    10A1     1.468088    11A1     1.976446  
      12A1     2.752587     2A2     2.752587     5B2     2.808027  
       5B1     2.808027     6B1     3.155122     6B2     3.155122  
      13A1     3.214144     7B1     3.575154     7B2     3.575154  
      14A1     3.786132    15A1     4.176262     8B1     4.496493  
       8B2     4.496493    16A1     4.782595     3A2     4.782595  
       4A2     5.525345    17A1     5.525346     9B1     5.689935  
       9B2     5.689935    18A1     5.799420    10B1     6.039158  
      10B2     6.039158    19A1     6.412550    20A1     9.500658  

    Beta Occupied:                                                        

       1A1   -19.766092     2A1    -1.429577     3A1    -0.937944  

    Beta Virtual:                                                         

       1B1    -0.651364     1B2    -0.651364     4A1    -0.288584  
       5A1     0.013404     6A1     0.178363     2B1     0.202782  
       2B2     0.202782     3B1     0.337276     3B2     0.337276  
       7A1     0.521911     8A1     0.867971     9A1     1.030265  
       1A2     1.030265     4B1     1.334433     4B2     1.334433  
      10A1     1.496162    11A1     1.986981    12A1     2.762898  
       2A2     2.762898     5B2     2.887701     5B1     2.887701  
       6B1     3.200187     6B2     3.200187    13A1     3.224443  
       7B1     3.617332     7B2     3.617332    14A1     3.828603  
      15A1     4.235105     8B1     4.648719     8B2     4.648719  
      16A1     4.879494     3A2     4.879495     4A2     5.737719  
      17A1     5.737720     9B1     5.797167     9B2     5.797167  
      18A1     5.850823    10B1     6.102833    10B2     6.102833  
      19A1     6.473221    20A1     9.573644  

    Final Occupation by Irrep:
             A1    A2    B1    B2 
    DOCC [     3,    0,    0,    0 ]
    SOCC [     0,    0,    1,    1 ]
    NA   [     3,    0,    1,    1 ]
    NB   [     3,    0,    0,    0 ]

  @DF-UKS Final Energy:   -75.27929403982006

   => Energetics <=

    Nuclear Repulsion Energy =              4.2963593498350843
    One-Electron Energy =                -107.7669696689487182
    Two-Electron Energy =                  35.0720632054665344
    DFT Exchange-Correlation Energy =      -6.8807469261729590
    Empirical Dispersion Energy =           0.0000000000000000
    VV10 Nonlocal Energy =                  0.0000000000000000
    Total Energy =                        -75.2792940398200585

  UHF NO Occupations:
  HONO-2 :    3 A1 1.9983228
  HONO-1 :    1 B1 1.0000000
  HONO-0 :    1 B2 1.0000000
  LUNO+0 :    4 A1 0.0016772
  LUNO+1 :    5 A1 0.0005884
  LUNO+2 :    6 A1 0.0000015
  LUNO+3 :    7 A1 0.0000000


Computation Completed


Properties will be evaluated at   0.000000,   0.000000,   0.000000 [a0]

Properties computed using the B3LYP density matrix


 Multipole Moments:

 ------------------------------------------------------------------------------------
     Multipole            Electronic (a.u.)      Nuclear  (a.u.)        Total (a.u.)
 ------------------------------------------------------------------------------------

 L = 1.  Multiply by 2.5417464519 to convert [e a0] to [Debye]
 Dipole X            :          0.0000000            0.0000000            0.0000000
 Dipole Y            :          0.0000000            0.0000000            0.0000000
 Dipole Z            :         -0.0148714            0.8687012            0.8538297
 Magnitude           :                                                    0.8538297

 L = 2.  Multiply by 1.3450342976 to convert [e a0^2] to [Debye ang]
 Quadrupole XX       :         -3.0152343            0.0000000           -3.0152343
 Quadrupole XY       :          0.0000000            0.0000000            0.0000000
 Quadrupole XZ       :          0.0000000            0.0000000            0.0000000
 Quadrupole YY       :         -3.0152343            0.0000000           -3.0152343
 Quadrupole YZ       :          0.0000000            0.0000000            0.0000000
 Quadrupole ZZ       :         -4.8611476            3.1658038           -1.6953438
 Traceless XX        :          0.6153044           -1.0552679           -0.4399635
 Traceless YY        :          0.6153044           -1.0552679           -0.4399635
 Traceless ZZ        :         -1.2306089            2.1105359            0.8799270

 ------------------------------------------------------------------------------------
  ==> Computing MBIS Charges <==

  Electron Count from Grid (Expected Number):  8.00000 ( 8.00000)
  Difference: -0.00000

  MBIS Charges: (a.u.)
   Center  Symbol  Z      Pop.       Charge
      1       O    8    7.509520    0.490480
      2       H    1    0.490480    0.509520

  MBIS Dipoles: [e a0]
   Center  Symbol  Z        X           Y           Z
      1       O    8   -0.000000   -0.000000   -0.032955
      2       H    1    0.000000    0.000000    0.048408

  MBIS Quadrupoles: [e a0^2]
   Center  Symbol  Z      XX        XY        XZ        YY        YZ        ZZ
      1       O    8   -2.8178   -0.0000    0.0000   -2.8178   -0.0000   -3.2528
      2       H    1   -0.1974    0.0000    0.0000   -0.1974    0.0000   -0.1888

  MBIS Octupoles: [e a0^3]
   Center  Symbol  Z      XXX       XXY       XXZ       XYY       XYZ       XZZ       YYY       YYZ       YZZ       ZZZ
      1       O    8   -0.0000   -0.0000   -0.0129    0.0000   -0.0000    0.0000   -0.0000   -0.0129    0.0000   -0.0945
      2       H    1    0.0000    0.0000    0.0076   -0.0000    0.0000    0.0000    0.0000    0.0076    0.0000    0.0342

  MBIS Radial Moments:
   Center  Symbol  Z      [a0^2]      [a0^3]      [a0^4]      
      1       O    8    8.888348   15.090476   30.676661
      2       H    1    0.583690    0.898970    1.656125

  MBIS Valence Widths: [a0]
   Center  Symbol  Z     Width
      1       O    8    0.356916
      2       H    1    0.318872

*** tstop() called on Mac.lan at Sun Aug 10 18:28:27 2025
Module time:
	user time   =       3.10 seconds =       0.05 minutes
	system time =       1.45 seconds =       0.02 minutes
	total time  =          0 seconds =       0.00 minutes
Total time:
	user time   =      12.79 seconds =       0.21 minutes
	system time =       3.79 seconds =       0.06 minutes
	total time  =          1 seconds =       0.02 minutes

    Psi4 stopped on: Sunday, 10 August 2025 06:28PM
    Psi4 wall time for execution: 0:00:01.64

*** Psi4 exiting successfully. Buy a developer a beer!
