
    -----------------------------------------------------------------------
          Psi4: An Open-Source Ab Initio Electronic Structure Package
                               Psi4 1.9.1 release

                         Git: Rev {} zzzzzzz 


    D. G. A. Smith, L. A. Burns, A. C. Simmonett, R. M. Parrish,
    M. C. Schieber, R. Galvelis, P. Kraus, H. Kruse, R. Di Remigio,
    A. Alenaizan, A. M. James, S. Lehtola, J. P. Misiewicz, M. Scheurer,
    R. A. Shaw, J. B. Schriber, Y. Xie, Z. L. Glick, D. A. Sirianni,
    J. S. O'Brien, J. M. Waldrop, A. Kumar, E. G. Hohenstein,
    B. P. Pritchard, B. R. Brooks, H. F. Schaefer III, A. Yu. Sokolov,
    K. Patkowski, A. E. DePrince III, U. Bozkaya, R. A. King,
    F. A. Evangelista, J. M. Turney, T. D. Crawford, C. D. Sherrill,
    J. Chem. Phys. 152(18) 184108 (2020). https://doi.org/10.1063/5.0006002

                            Additional Code Authors
    E. T. Seidl, C. L. Janssen, E. F. Valeev, M. L. Leininger,
    J. F. Gonthier, R. M. Richard, H. R. McAlexander, M. Saitow, X. Wang,
    P. Verma, M. H. Lechner, A. Jiang, S. Behnle, A. G. Heide,
    M. F. Herbst, and D. L. Poole

             Previous Authors, Complete List of Code Contributors,
                       and Citations for Specific Modules
    https://github.com/psi4/psi4/blob/master/codemeta.json
    https://github.com/psi4/psi4/graphs/contributors
    http://psicode.org/psi4manual/master/introduction.html#citing-psifour

    -----------------------------------------------------------------------


    Psi4 started on: Sunday, 10 August 2025 06:32PM

    Process ID: 50299
    Host:       Mac.lan
    PSIDATADIR: /Users/joseantoniorodriguesromero/anaconda3/share/psi4
    Memory:     500.0 MiB
    Threads:    1
    
  ==> Input File <==

--------------------------------------------------------------------------
molecule { 
1 3
N           0.000000           0.000000           0.000000
C           0.000000           0.000000           1.168728
}

set { 
basis              cc-pvtz
reference          uks
maxiter            500
DAMPING_PERCENTAGE 1
E_CONVERGENCE      1.0E-8
D_CONVERGENCE      1.0E-8
DIIS_MAX_VECS      400
MBIS_MAXITER       8000
guess              read
}

E, wfn = energy('b3lyp', restart_file='last_wfn', return_wfn=True)
properties('b3lyp','MBIS_CHARGES', wfn=wfn)
wfn.to_file('last_wfn')
--------------------------------------------------------------------------

Scratch directory: /tmp/
 Found user provided orbital data. Setting orbital guess to READ 
 Copying restart file <last_wfn.npy> to </tmp/scan_CN_20.default.50299.180.npy> for internal processing
   => Libint2 <=

    Primary   basis highest AM E, G, H:  6, 6, 3
    Auxiliary basis highest AM E, G, H:  7, 7, 4
    Onebody   basis highest AM E, G, H:  -, -, -
    Solid Harmonics ordering:            Gaussian

*** tstart() called on Mac.lan
*** at Sun Aug 10 18:32:35 2025

   => Loading Basis Set <=

    Name: CC-PVTZ
    Role: ORBITAL
    Keyword: BASIS
    atoms 1 entry N          line   224 file /Users/joseantoniorodriguesromero/anaconda3/share/psi4/basis/cc-pvtz.gbs 
    atoms 2 entry C          line   186 file /Users/joseantoniorodriguesromero/anaconda3/share/psi4/basis/cc-pvtz.gbs 


         ---------------------------------------------------------
                                   SCF
               by Justin Turney, Rob Parrish, Andy Simmonett
                          and Daniel G. A. Smith
                              UKS Reference
                        1 Threads,    500 MiB Core
         ---------------------------------------------------------

  ==> Geometry <==

    Molecular point group: c2v
    Full point group: C_inf_v

    Geometry (in Angstrom), charge = 1, multiplicity = 3:

       Center              X                  Y                   Z               Mass       
    ------------   -----------------  -----------------  -----------------  -----------------
         N            0.000000000000     0.000000000000    -0.539349155320    14.003074004430
         C            0.000000000000     0.000000000000     0.629378844680    12.000000000000

  Running in c2v symmetry.

  Rotational constants: A = ************  B =      1.90981  C =      1.90981 [cm^-1]
  Rotational constants: A = ************  B =  57254.59719  C =  57254.59719 [MHz]
  Nuclear repulsion =   19.016779651159212

  Charge       = 1
  Multiplicity = 3
  Electrons    = 12
  Nalpha       = 7
  Nbeta        = 5

  ==> Algorithm <==

  SCF Algorithm Type is DF.
  DIIS enabled.
  MOM disabled.
  Fractional occupation disabled.
  Guess Type is READ.
  Energy threshold   = 1.00e-08
  Density threshold  = 1.00e-08
  Integral threshold = 1.00e-12

  ==> Primary Basis <==

  Basis Set: CC-PVTZ
    Blend: CC-PVTZ
    Number of shells: 20
    Number of basis functions: 60
    Number of Cartesian functions: 70
    Spherical Harmonics?: true
    Max angular momentum: 3

  ==> DFT Potential <==

   => LibXC <=

    Version 6.2.2
    S. Lehtola, C. Steigemann, M. J.T. Oliveira, and M. A.L. Marques.,  SoftwareX 7, 1–5 (2018) (10.1016/j.softx.2017.11.002)

   => Composite Functional: B3LYP <= 

    B3LYP Hyb-GGA Exchange-Correlation Functional

    P. J. Stephens, F. J. Devlin, C. F. Chabalowski, and M. J. Frisch.,  J. Phys. Chem. 98, 11623 (1994) (10.1021/j100096a001)

    Deriv               =              1
    GGA                 =           TRUE
    Meta                =          FALSE

    Exchange Hybrid     =           TRUE
    MP2 Hybrid          =          FALSE

   => Exchange Functionals <=

    0.0800   Slater exchange
    0.7200         Becke 88

   => Exact (HF) Exchange <=

    0.2000               HF 

   => Correlation Functionals <=

    0.1900   Vosko, Wilk & Nusair (VWN5_RPA)
    0.8100   Lee, Yang & Parr

   => LibXC Density Thresholds  <==

    XC_HYB_GGA_XC_B3LYP:  1.00E-15 

   => Molecular Quadrature <=

    Radial Scheme          =       TREUTLER
    Pruning Scheme         =           NONE
    Nuclear Scheme         =       TREUTLER

    Blocking Scheme        =         OCTREE
    BS radius alpha        =              1
    Pruning alpha          =              1
    Radial Points          =             75
    Spherical Points       =            302
    Total Points           =          43234
    Total Blocks           =            392
    Max Points             =            256
    Max Functions          =             60
    Weights Tolerance      =       1.00E-15

   => Loading Basis Set <=

    Name: (CC-PVTZ AUX)
    Role: JKFIT
    Keyword: DF_BASIS_SCF
    atoms 1 entry N          line   177 file /Users/joseantoniorodriguesromero/anaconda3/share/psi4/basis/cc-pvtz-jkfit.gbs 
    atoms 2 entry C          line   125 file /Users/joseantoniorodriguesromero/anaconda3/share/psi4/basis/cc-pvtz-jkfit.gbs 

   => Loading Basis Set <=

    Name: CC-PVTZ
    Role: ORBITAL
    Keyword: BASIS
    atoms 1 entry N          line   224 file /Users/joseantoniorodriguesromero/anaconda3/share/psi4/basis/cc-pvtz.gbs 
    atoms 2 entry C          line   186 file /Users/joseantoniorodriguesromero/anaconda3/share/psi4/basis/cc-pvtz.gbs 

  Reading orbitals from file /tmp/scan_CN_20.default.50299.180.npy, no projection.

  ==> Integral Setup <==

  DFHelper Memory: AOs need 0.005 GiB; user supplied 0.294 GiB. 
  Using in-core AOs.

  ==> MemDFJK: Density-Fitted J/K Matrices <==

    J tasked:                   Yes
    K tasked:                   Yes
    wK tasked:                   No
    OpenMP threads:               1
    Memory [MiB]:               300
    Algorithm:                 Core
    Schwarz Cutoff:           1E-12
    Mask sparsity (%):       0.0000
    Fitting Condition:        1E-10

   => Auxiliary Basis Set <=

  Basis Set: (CC-PVTZ AUX)
    Blend: CC-PVTZ-JKFIT
    Number of shells: 50
    Number of basis functions: 158
    Number of Cartesian functions: 192
    Spherical Harmonics?: true
    Max angular momentum: 4

  Cached 100.0% of DFT collocation blocks in 0.072 [GiB].

  Minimum eigenvalue in the overlap matrix is 1.8868673511E-03.
  Reciprocal condition number of the overlap matrix is 4.5991091275E-04.
    Using symmetric orthogonalization.

  ==> Pre-Iterations <==

  SCF Guess: Orbitals guess was supplied from a previous computation.

   -------------------------------------------------------
    Irrep   Nso     Nmo     Nalpha   Nbeta   Ndocc  Nsocc
   -------------------------------------------------------
     A1        26      26       5       4       4       1
     A2         6       6       0       0       0       0
     B1        14      14       1       0       0       1
     B2        14      14       1       1       1       0
   -------------------------------------------------------
    Total      60      60       7       5       5       2
   -------------------------------------------------------

  ==> Iterations <==

                           Total Energy        Delta E     RMS |[F,P]|

   @DF-UKS iter   0:   -92.25039875306260   -9.22504e+01   2.47613e-03 
   @DF-UKS iter   1:   -92.22387504903662    2.65237e-02   3.01847e-04 DIIS/ADIIS
   @DF-UKS iter   2:   -92.22391825632465   -4.32073e-05   2.19291e-04 DIIS/ADIIS/DAMP=1%
   @DF-UKS iter   3:   -92.22409293748112   -1.74681e-04   1.62531e-04 DIIS/ADIIS/DAMP=1%
   @DF-UKS iter   4:   -92.22389581741500    1.97120e-04   5.33221e-05 DIIS/DAMP=1%
   @DF-UKS iter   5:   -92.22395040974847   -5.45923e-05   1.20952e-05 DIIS/DAMP=1%
   @DF-UKS iter   6:   -92.22394338610918    7.02364e-06   4.09416e-06 DIIS/DAMP=1%
   @DF-UKS iter   7:   -92.22394366416921   -2.78060e-07   1.36296e-06 DIIS/DAMP=1%
   @DF-UKS iter   8:   -92.22394432443838   -6.60269e-07   3.25626e-07 DIIS/DAMP=1%
   @DF-UKS iter   9:   -92.22394409467935    2.29759e-07   2.22533e-08 DIIS/DAMP=1%
   @DF-UKS iter  10:   -92.22394419676672   -1.02087e-07   9.58133e-09 DIIS/DAMP=1%
   @DF-UKS iter  11:   -92.22394419927505   -2.50833e-09   8.00518e-10 DIIS/DAMP=1%
  Energy and wave function converged.


  ==> Post-Iterations <==

   Electrons on quadrature grid:
      Nalpha   =    7.0000000505 ; deviation = 5.048e-08
      Nbeta    =    5.0000000653 ; deviation = 6.531e-08
      Ntotal   =   12.0000001158 ; deviation = 1.158e-07 

   @Spin Contamination Metric:   5.078219394E-03
   @S^2 Expected:                2.000000000E+00
   @S^2 Observed:                2.005078219E+00
   @S   Expected:                1.000000000E+00
   @S   Observed:                1.000000000E+00

    Orbital Energies [Eh]
    ---------------------

    Alpha Occupied:                                                       

       1A1   -14.840682     2A1   -10.758459     3A1    -1.420757  
       4A1    -0.895398     1B1    -0.843191     5A1    -0.799538  
       1B2    -0.799259  

    Alpha Virtual:                                                        

       2B1    -0.430077     2B2    -0.396653     6A1    -0.101260  
       3B1    -0.013015     7A1    -0.003974     3B2    -0.002514  
       8A1     0.147221     4B1     0.204126     9A1     0.206247  
       4B2     0.221413     1A2     0.261341    10A1     0.261948  
       5B1     0.458112     5B2     0.480484    11A1     0.563697  
       2A2     0.788269    12A1     0.789000    13A1     0.903398  
       6B1     1.148321     6B2     1.170948    14A1     1.394019  
       7B1     1.551696     7B2     1.574223    15A1     1.800151  
       8B1     2.211856     8B2     2.212022    16A1     2.287377  
       3A2     2.288791     9B1     2.348215    17A1     2.352678  
       9B2     2.377891    10B1     2.481492    18A1     2.496757  
       4A2     2.496921    10B2     2.514344    19A1     2.688525  
      11B1     2.985117    11B2     3.013616    20A1     3.466949  
      12B1     3.498722    12B2     3.498875    21A1     3.942308  
       5A2     3.942455     6A2     4.125451    22A1     4.125824  
      13B1     4.362394    13B2     4.398632    23A1     4.530575  
      24A1     4.938219    14B1     5.084925    14B2     5.118008  
      25A1     5.493599    26A1    12.028305  

    Beta Occupied:                                                        

       1A1   -14.824613     2A1   -10.732278     3A1    -1.353058  
       4A1    -0.806898     1B2    -0.776469  

    Beta Virtual:                                                         

       1B1    -0.659510     5A1    -0.610143     2B2    -0.359106  
       2B1    -0.325557     6A1    -0.082783     3B2     0.006101  
       3B1     0.012968     7A1     0.035667     8A1     0.161385  
       4B2     0.225358     4B1     0.234640     9A1     0.274087  
       1A2     0.295062    10A1     0.297712     5B2     0.515748  
       5B1     0.520980    11A1     0.585455     2A2     0.818607  
      12A1     0.821344    13A1     0.956282     6B2     1.188505  
       6B1     1.193107    14A1     1.431130     7B2     1.596151  
       7B1     1.605115    15A1     1.864698     8B2     2.260703  
       8B1     2.262049     3A2     2.333508    16A1     2.336664  
      17A1     2.408629     9B2     2.417915     9B1     2.435351  
      10B2     2.562238     4A2     2.575420    10B1     2.577763  
      18A1     2.581178    19A1     2.787158    11B2     3.058529  
      11B1     3.067813    20A1     3.521900    12B2     3.538733  
      12B1     3.540040     5A2     3.992500    21A1     3.999139  
       6A2     4.166129    22A1     4.169987    13B2     4.419854  
      13B1     4.433212    23A1     4.579983    24A1     4.975973  
      14B2     5.146050    14B1     5.155664    25A1     5.527989  
      26A1    12.066428  

    Final Occupation by Irrep:
             A1    A2    B1    B2 
    DOCC [     4,    0,    0,    1 ]
    SOCC [     1,    0,    1,    0 ]
    NA   [     5,    0,    1,    1 ]
    NB   [     4,    0,    0,    1 ]

  @DF-UKS Final Energy:   -92.22394419927505

   => Energetics <=

    Nuclear Repulsion Energy =             19.0167796511592115
    One-Electron Energy =                -156.7397438920012860
    Two-Electron Energy =                  55.0645451177209608
    DFT Exchange-Correlation Energy =      -9.5655250761539339
    Empirical Dispersion Energy =           0.0000000000000000
    VV10 Nonlocal Energy =                  0.0000000000000000
    Total Energy =                        -92.2239441992750528

  UHF NO Occupations:
  HONO-2 :    1 B2 1.9984179
  HONO-1 :    5 A1 1.0000000
  HONO-0 :    1 B1 1.0000000
  LUNO+0 :    2 B2 0.0015821
  LUNO+1 :    6 A1 0.0006801
  LUNO+2 :    7 A1 0.0002775
  LUNO+3 :    8 A1 0.0000005


Computation Completed


Properties will be evaluated at   0.000000,   0.000000,   0.000000 [a0]

Properties computed using the SCF density matrix


 Multipole Moments:

 ------------------------------------------------------------------------------------
     Multipole            Electronic (a.u.)      Nuclear  (a.u.)        Total (a.u.)
 ------------------------------------------------------------------------------------

 L = 1.  Multiply by 2.5417464519 to convert [e a0] to [Debye]
 Dipole X            :          0.0000000            0.0000000            0.0000000
 Dipole Y            :          0.0000000            0.0000000            0.0000000
 Dipole Z            :          0.7571427            0.0015665            0.7587093
 Magnitude           :                                                    0.7587093

 ------------------------------------------------------------------------------------

*** tstop() called on Mac.lan at Sun Aug 10 18:32:37 2025
Module time:
	user time   =      18.20 seconds =       0.30 minutes
	system time =       2.73 seconds =       0.05 minutes
	total time  =          2 seconds =       0.03 minutes
Total time:
	user time   =      18.20 seconds =       0.30 minutes
	system time =       2.73 seconds =       0.05 minutes
	total time  =          2 seconds =       0.03 minutes

*** tstart() called on Mac.lan
*** at Sun Aug 10 18:32:37 2025

   => Libint2 <=

    Primary   basis highest AM E, G, H:  6, 6, 3
    Auxiliary basis highest AM E, G, H:  7, 7, 4
    Onebody   basis highest AM E, G, H:  -, -, -
    Solid Harmonics ordering:            Gaussian
   => Loading Basis Set <=

    Name: CC-PVTZ
    Role: ORBITAL
    Keyword: BASIS
    atoms 1 entry N          line   224 file /Users/joseantoniorodriguesromero/anaconda3/share/psi4/basis/cc-pvtz.gbs 
    atoms 2 entry C          line   186 file /Users/joseantoniorodriguesromero/anaconda3/share/psi4/basis/cc-pvtz.gbs 


         ---------------------------------------------------------
                                   SCF
               by Justin Turney, Rob Parrish, Andy Simmonett
                          and Daniel G. A. Smith
                              UKS Reference
                        1 Threads,    500 MiB Core
         ---------------------------------------------------------

  ==> Geometry <==

    Molecular point group: c2v
    Full point group: C_inf_v

    Geometry (in Angstrom), charge = 1, multiplicity = 3:

       Center              X                  Y                   Z               Mass       
    ------------   -----------------  -----------------  -----------------  -----------------
         N            0.000000000000     0.000000000000    -0.539349155320    14.003074004430
         C            0.000000000000     0.000000000000     0.629378844680    12.000000000000

  Running in c2v symmetry.

  Rotational constants: A = ************  B =      1.90981  C =      1.90981 [cm^-1]
  Rotational constants: A = ************  B =  57254.59719  C =  57254.59719 [MHz]
  Nuclear repulsion =   19.016779651159212

  Charge       = 1
  Multiplicity = 3
  Electrons    = 12
  Nalpha       = 7
  Nbeta        = 5

  ==> Algorithm <==

  SCF Algorithm Type is DF.
  DIIS enabled.
  MOM disabled.
  Fractional occupation disabled.
  Guess Type is READ.
  Energy threshold   = 1.00e-08
  Density threshold  = 1.00e-08
  Integral threshold = 1.00e-12

  ==> Primary Basis <==

  Basis Set: CC-PVTZ
    Blend: CC-PVTZ
    Number of shells: 20
    Number of basis functions: 60
    Number of Cartesian functions: 70
    Spherical Harmonics?: true
    Max angular momentum: 3

  ==> DFT Potential <==

   => LibXC <=

    Version 6.2.2
    S. Lehtola, C. Steigemann, M. J.T. Oliveira, and M. A.L. Marques.,  SoftwareX 7, 1–5 (2018) (10.1016/j.softx.2017.11.002)

   => Composite Functional: B3LYP <= 

    B3LYP Hyb-GGA Exchange-Correlation Functional

    P. J. Stephens, F. J. Devlin, C. F. Chabalowski, and M. J. Frisch.,  J. Phys. Chem. 98, 11623 (1994) (10.1021/j100096a001)

    Deriv               =              1
    GGA                 =           TRUE
    Meta                =          FALSE

    Exchange Hybrid     =           TRUE
    MP2 Hybrid          =          FALSE

   => Exchange Functionals <=

    0.0800   Slater exchange
    0.7200         Becke 88

   => Exact (HF) Exchange <=

    0.2000               HF 

   => Correlation Functionals <=

    0.1900   Vosko, Wilk & Nusair (VWN5_RPA)
    0.8100   Lee, Yang & Parr

   => LibXC Density Thresholds  <==

    XC_HYB_GGA_XC_B3LYP:  1.00E-15 

   => Molecular Quadrature <=

    Radial Scheme          =       TREUTLER
    Pruning Scheme         =           NONE
    Nuclear Scheme         =       TREUTLER

    Blocking Scheme        =         OCTREE
    BS radius alpha        =              1
    Pruning alpha          =              1
    Radial Points          =             75
    Spherical Points       =            302
    Total Points           =          43234
    Total Blocks           =            392
    Max Points             =            256
    Max Functions          =             60
    Weights Tolerance      =       1.00E-15

   => Loading Basis Set <=

    Name: (CC-PVTZ AUX)
    Role: JKFIT
    Keyword: DF_BASIS_SCF
    atoms 1 entry N          line   177 file /Users/joseantoniorodriguesromero/anaconda3/share/psi4/basis/cc-pvtz-jkfit.gbs 
    atoms 2 entry C          line   125 file /Users/joseantoniorodriguesromero/anaconda3/share/psi4/basis/cc-pvtz-jkfit.gbs 

   => Loading Basis Set <=

    Name: CC-PVTZ
    Role: ORBITAL
    Keyword: BASIS
    atoms 1 entry N          line   224 file /Users/joseantoniorodriguesromero/anaconda3/share/psi4/basis/cc-pvtz.gbs 
    atoms 2 entry C          line   186 file /Users/joseantoniorodriguesromero/anaconda3/share/psi4/basis/cc-pvtz.gbs 

  Reading orbitals from file /tmp/scan_CN_20.default.50299.180.npy, no projection.

  ==> Integral Setup <==

  DFHelper Memory: AOs need 0.005 GiB; user supplied 0.294 GiB. 
  Using in-core AOs.

  ==> MemDFJK: Density-Fitted J/K Matrices <==

    J tasked:                   Yes
    K tasked:                   Yes
    wK tasked:                   No
    OpenMP threads:               1
    Memory [MiB]:               300
    Algorithm:                 Core
    Schwarz Cutoff:           1E-12
    Mask sparsity (%):       0.0000
    Fitting Condition:        1E-10

   => Auxiliary Basis Set <=

  Basis Set: (CC-PVTZ AUX)
    Blend: CC-PVTZ-JKFIT
    Number of shells: 50
    Number of basis functions: 158
    Number of Cartesian functions: 192
    Spherical Harmonics?: true
    Max angular momentum: 4

  Cached 100.0% of DFT collocation blocks in 0.072 [GiB].

  Minimum eigenvalue in the overlap matrix is 1.8868673511E-03.
  Reciprocal condition number of the overlap matrix is 4.5991091275E-04.
    Using symmetric orthogonalization.

  ==> Pre-Iterations <==

  SCF Guess: Orbitals guess was supplied from a previous computation.

   -------------------------------------------------------
    Irrep   Nso     Nmo     Nalpha   Nbeta   Ndocc  Nsocc
   -------------------------------------------------------
     A1        26      26       5       4       4       1
     A2         6       6       0       0       0       0
     B1        14      14       1       0       0       1
     B2        14      14       1       1       1       0
   -------------------------------------------------------
    Total      60      60       7       5       5       2
   -------------------------------------------------------

  ==> Iterations <==

                           Total Energy        Delta E     RMS |[F,P]|

   @DF-UKS iter   0:   -92.22394419752634   -9.22239e+01   2.85308e-10 
   @DF-UKS iter   1:   -92.22394419752629    4.26326e-14   6.86930e-10 DIIS
  Energy and wave function converged.


  ==> Post-Iterations <==

   Electrons on quadrature grid:
      Nalpha   =    7.0000000505 ; deviation = 5.048e-08
      Nbeta    =    5.0000000653 ; deviation = 6.531e-08
      Ntotal   =   12.0000001158 ; deviation = 1.158e-07 

   @Spin Contamination Metric:   5.078219611E-03
   @S^2 Expected:                2.000000000E+00
   @S^2 Observed:                2.005078220E+00
   @S   Expected:                1.000000000E+00
   @S   Observed:                1.000000000E+00

    Orbital Energies [Eh]
    ---------------------

    Alpha Occupied:                                                       

       1A1   -14.840682     2A1   -10.758459     3A1    -1.420757  
       4A1    -0.895398     1B1    -0.843191     5A1    -0.799538  
       1B2    -0.799259  

    Alpha Virtual:                                                        

       2B1    -0.430077     2B2    -0.396653     6A1    -0.101260  
       3B1    -0.013015     7A1    -0.003974     3B2    -0.002514  
       8A1     0.147221     4B1     0.204126     9A1     0.206247  
       4B2     0.221413     1A2     0.261341    10A1     0.261948  
       5B1     0.458112     5B2     0.480484    11A1     0.563697  
       2A2     0.788269    12A1     0.789000    13A1     0.903398  
       6B1     1.148321     6B2     1.170948    14A1     1.394019  
       7B1     1.551696     7B2     1.574223    15A1     1.800151  
       8B1     2.211856     8B2     2.212022    16A1     2.287377  
       3A2     2.288791     9B1     2.348215    17A1     2.352678  
       9B2     2.377891    10B1     2.481492    18A1     2.496757  
       4A2     2.496921    10B2     2.514344    19A1     2.688525  
      11B1     2.985117    11B2     3.013616    20A1     3.466949  
      12B1     3.498722    12B2     3.498875    21A1     3.942308  
       5A2     3.942455     6A2     4.125451    22A1     4.125824  
      13B1     4.362394    13B2     4.398632    23A1     4.530575  
      24A1     4.938219    14B1     5.084925    14B2     5.118008  
      25A1     5.493599    26A1    12.028305  

    Beta Occupied:                                                        

       1A1   -14.824613     2A1   -10.732278     3A1    -1.353058  
       4A1    -0.806898     1B2    -0.776469  

    Beta Virtual:                                                         

       1B1    -0.659510     5A1    -0.610143     2B2    -0.359106  
       2B1    -0.325557     6A1    -0.082783     3B2     0.006101  
       3B1     0.012968     7A1     0.035667     8A1     0.161385  
       4B2     0.225358     4B1     0.234640     9A1     0.274087  
       1A2     0.295062    10A1     0.297712     5B2     0.515748  
       5B1     0.520980    11A1     0.585455     2A2     0.818607  
      12A1     0.821344    13A1     0.956282     6B2     1.188505  
       6B1     1.193107    14A1     1.431130     7B2     1.596151  
       7B1     1.605115    15A1     1.864698     8B2     2.260703  
       8B1     2.262049     3A2     2.333508    16A1     2.336664  
      17A1     2.408629     9B2     2.417915     9B1     2.435351  
      10B2     2.562238     4A2     2.575420    10B1     2.577763  
      18A1     2.581178    19A1     2.787158    11B2     3.058529  
      11B1     3.067813    20A1     3.521900    12B2     3.538733  
      12B1     3.540040     5A2     3.992500    21A1     3.999139  
       6A2     4.166129    22A1     4.169987    13B2     4.419854  
      13B1     4.433212    23A1     4.579983    24A1     4.975973  
      14B2     5.146050    14B1     5.155664    25A1     5.527989  
      26A1    12.066428  

    Final Occupation by Irrep:
             A1    A2    B1    B2 
    DOCC [     4,    0,    0,    1 ]
    SOCC [     1,    0,    1,    0 ]
    NA   [     5,    0,    1,    1 ]
    NB   [     4,    0,    0,    1 ]

  @DF-UKS Final Energy:   -92.22394419752629

   => Energetics <=

    Nuclear Repulsion Energy =             19.0167796511592115
    One-Electron Energy =                -156.7397438592586525
    Two-Electron Energy =                  55.0645450830659584
    DFT Exchange-Correlation Energy =      -9.5655250724928251
    Empirical Dispersion Energy =           0.0000000000000000
    VV10 Nonlocal Energy =                  0.0000000000000000
    Total Energy =                        -92.2239441975262935

  UHF NO Occupations:
  HONO-2 :    1 B2 1.9984179
  HONO-1 :    5 A1 1.0000000
  HONO-0 :    1 B1 1.0000000
  LUNO+0 :    2 B2 0.0015821
  LUNO+1 :    6 A1 0.0006801
  LUNO+2 :    7 A1 0.0002775
  LUNO+3 :    8 A1 0.0000005


Computation Completed


Properties will be evaluated at   0.000000,   0.000000,   0.000000 [a0]

Properties computed using the B3LYP density matrix


 Multipole Moments:

 ------------------------------------------------------------------------------------
     Multipole            Electronic (a.u.)      Nuclear  (a.u.)        Total (a.u.)
 ------------------------------------------------------------------------------------

 L = 1.  Multiply by 2.5417464519 to convert [e a0] to [Debye]
 Dipole X            :          0.0000000            0.0000000            0.0000000
 Dipole Y            :          0.0000000            0.0000000            0.0000000
 Dipole Z            :          0.7571429            0.0015665            0.7587094
 Magnitude           :                                                    0.7587094

 L = 2.  Multiply by 1.3450342976 to convert [e a0^2] to [Debye ang]
 Quadrupole XX       :         -5.6036713            0.0000000           -5.6036713
 Quadrupole XY       :          0.0000000            0.0000000            0.0000000
 Quadrupole XZ       :          0.0000000            0.0000000            0.0000000
 Quadrupole YY       :         -6.5756410            0.0000000           -6.5756410
 Quadrupole YZ       :          0.0000000            0.0000000            0.0000000
 Quadrupole ZZ       :        -20.5910896           15.7590697           -4.8320200
 Traceless XX        :          5.3197960           -5.2530232            0.0667728
 Traceless YY        :          4.3478263           -5.2530232           -0.9051969
 Traceless ZZ        :         -9.6676223           10.5060464            0.8384241

 ------------------------------------------------------------------------------------
  ==> Computing MBIS Charges <==

  Electron Count from Grid (Expected Number): 12.00000 (12.00000)
  Difference:  0.00000

  MBIS Charges: (a.u.)
   Center  Symbol  Z      Pop.       Charge
      1       N    7    6.806187    0.193813
      2       C    6    5.193813    0.806187

  MBIS Dipoles: [e a0]
   Center  Symbol  Z        X           Y           Z
      1       N    7   -0.000000    0.000000   -0.133101
      2       C    6    0.000000    0.000000    0.130507

  MBIS Quadrupoles: [e a0^2]
   Center  Symbol  Z      XX        XY        XZ        YY        YZ        ZZ
      1       N    7   -3.0963   -0.0000   -0.0000   -3.6342    0.0000   -3.7924
      2       C    6   -2.5074    0.0000   -0.0000   -2.9415    0.0000   -2.9631

  MBIS Octupoles: [e a0^3]
   Center  Symbol  Z      XXX       XXY       XXZ       XYY       XYZ       XZZ       YYY       YYZ       YZZ       ZZZ
      1       N    7   -0.0000   -0.0000   -0.0732   -0.0000    0.0000    0.0000    0.0000   -0.2267    0.0000   -0.2979
      2       C    6   -0.0000   -0.0000    0.0194   -0.0000    0.0000    0.0000    0.0000    0.1600    0.0000    0.1697

  MBIS Radial Moments:
   Center  Symbol  Z      [a0^2]      [a0^3]      [a0^4]      
      1       N    7   10.522838   20.583489   48.023066
      2       C    6    8.411988   17.543864   43.674370

  MBIS Valence Widths: [a0]
   Center  Symbol  Z     Width
      1       N    7    0.415291
      2       C    6    0.447821

*** tstop() called on Mac.lan at Sun Aug 10 18:32:38 2025
Module time:
	user time   =       4.72 seconds =       0.08 minutes
	system time =       2.38 seconds =       0.04 minutes
	total time  =          1 seconds =       0.02 minutes
Total time:
	user time   =      22.95 seconds =       0.38 minutes
	system time =       5.27 seconds =       0.09 minutes
	total time  =          3 seconds =       0.05 minutes

    Psi4 stopped on: Sunday, 10 August 2025 06:32PM
    Psi4 wall time for execution: 0:00:02.82

*** Psi4 exiting successfully. Buy a developer a beer!
