
    -----------------------------------------------------------------------
          Psi4: An Open-Source Ab Initio Electronic Structure Package
                               Psi4 1.9.1 release

                         Git: Rev {} zzzzzzz 


    D. G. A. Smith, L. A. Burns, A. C. Simmonett, R. M. Parrish,
    M. C. Schieber, R. Galvelis, P. Kraus, H. Kruse, R. Di Remigio,
    A. Alenaizan, A. M. James, S. Lehtola, J. P. Misiewicz, M. Scheurer,
    R. A. Shaw, J. B. Schriber, Y. Xie, Z. L. Glick, D. A. Sirianni,
    J. S. O'Brien, J. M. Waldrop, A. Kumar, E. G. Hohenstein,
    B. P. Pritchard, B. R. Brooks, H. F. Schaefer III, A. Yu. Sokolov,
    K. Patkowski, A. E. DePrince III, U. Bozkaya, R. A. King,
    F. A. Evangelista, J. M. Turney, T. D. Crawford, C. D. Sherrill,
    J. Chem. Phys. 152(18) 184108 (2020). https://doi.org/10.1063/5.0006002

                            Additional Code Authors
    E. T. Seidl, C. L. Janssen, E. F. Valeev, M. L. Leininger,
    J. F. Gonthier, R. M. Richard, H. R. McAlexander, M. Saitow, X. Wang,
    P. Verma, M. H. Lechner, A. Jiang, S. Behnle, A. G. Heide,
    M. F. Herbst, and D. L. Poole

             Previous Authors, Complete List of Code Contributors,
                       and Citations for Specific Modules
    https://github.com/psi4/psi4/blob/master/codemeta.json
    https://github.com/psi4/psi4/graphs/contributors
    http://psicode.org/psi4manual/master/introduction.html#citing-psifour

    -----------------------------------------------------------------------


    Psi4 started on: Sunday, 10 August 2025 06:30PM

    Process ID: 50236
    Host:       Mac.lan
    PSIDATADIR: /Users/joseantoniorodriguesromero/anaconda3/share/psi4
    Memory:     500.0 MiB
    Threads:    1
    
  ==> Input File <==

--------------------------------------------------------------------------
molecule { 
1 3
O           0.000000           0.000000           0.000000
H           0.000000           0.000000           1.404918
}

set { 
basis              cc-pvtz
reference          uks
maxiter            500
DAMPING_PERCENTAGE 1
E_CONVERGENCE      1.0E-8
D_CONVERGENCE      1.0E-8
DIIS_MAX_VECS      400
MBIS_MAXITER       8000
guess              read
}

E, wfn = energy('b3lyp', restart_file='last_wfn', return_wfn=True)
properties('b3lyp','MBIS_CHARGES', wfn=wfn)
wfn.to_file('last_wfn')
--------------------------------------------------------------------------

Scratch directory: /tmp/
 Found user provided orbital data. Setting orbital guess to READ 
 Copying restart file <last_wfn.npy> to </tmp/scan_HO_42.default.50236.180.npy> for internal processing
   => Libint2 <=

    Primary   basis highest AM E, G, H:  6, 6, 3
    Auxiliary basis highest AM E, G, H:  7, 7, 4
    Onebody   basis highest AM E, G, H:  -, -, -
    Solid Harmonics ordering:            Gaussian

*** tstart() called on Mac.lan
*** at Sun Aug 10 18:30:26 2025

   => Loading Basis Set <=

    Name: CC-PVTZ
    Role: ORBITAL
    Keyword: BASIS
    atoms 1 entry O          line   262 file /Users/joseantoniorodriguesromero/anaconda3/share/psi4/basis/cc-pvtz.gbs 
    atoms 2 entry H          line    23 file /Users/joseantoniorodriguesromero/anaconda3/share/psi4/basis/cc-pvtz.gbs 


         ---------------------------------------------------------
                                   SCF
               by Justin Turney, Rob Parrish, Andy Simmonett
                          and Daniel G. A. Smith
                              UKS Reference
                        1 Threads,    500 MiB Core
         ---------------------------------------------------------

  ==> Geometry <==

    Molecular point group: c2v
    Full point group: C_inf_v

    Geometry (in Angstrom), charge = 1, multiplicity = 3:

       Center              X                  Y                   Z               Mass       
    ------------   -----------------  -----------------  -----------------  -----------------
         O            0.000000000000     0.000000000000    -0.083275493104    15.994914619570
         H            0.000000000000     0.000000000000     1.321642506896     1.007825032230

  Running in c2v symmetry.

  Rotational constants: A = ************  B =      9.00837  C =      9.00837 [cm^-1]
  Rotational constants: A = ************  B = 270064.24100  C = 270064.24100 [MHz]
  Nuclear repulsion =    3.013284537147364

  Charge       = 1
  Multiplicity = 3
  Electrons    = 8
  Nalpha       = 5
  Nbeta        = 3

  ==> Algorithm <==

  SCF Algorithm Type is DF.
  DIIS enabled.
  MOM disabled.
  Fractional occupation disabled.
  Guess Type is READ.
  Energy threshold   = 1.00e-08
  Density threshold  = 1.00e-08
  Integral threshold = 1.00e-12

  ==> Primary Basis <==

  Basis Set: CC-PVTZ
    Blend: CC-PVTZ
    Number of shells: 16
    Number of basis functions: 44
    Number of Cartesian functions: 50
    Spherical Harmonics?: true
    Max angular momentum: 3

  ==> DFT Potential <==

   => LibXC <=

    Version 6.2.2
    S. Lehtola, C. Steigemann, M. J.T. Oliveira, and M. A.L. Marques.,  SoftwareX 7, 1–5 (2018) (10.1016/j.softx.2017.11.002)

   => Composite Functional: B3LYP <= 

    B3LYP Hyb-GGA Exchange-Correlation Functional

    P. J. Stephens, F. J. Devlin, C. F. Chabalowski, and M. J. Frisch.,  J. Phys. Chem. 98, 11623 (1994) (10.1021/j100096a001)

    Deriv               =              1
    GGA                 =           TRUE
    Meta                =          FALSE

    Exchange Hybrid     =           TRUE
    MP2 Hybrid          =          FALSE

   => Exchange Functionals <=

    0.0800   Slater exchange
    0.7200         Becke 88

   => Exact (HF) Exchange <=

    0.2000               HF 

   => Correlation Functionals <=

    0.1900   Vosko, Wilk & Nusair (VWN5_RPA)
    0.8100   Lee, Yang & Parr

   => LibXC Density Thresholds  <==

    XC_HYB_GGA_XC_B3LYP:  1.00E-15 

   => Molecular Quadrature <=

    Radial Scheme          =       TREUTLER
    Pruning Scheme         =           NONE
    Nuclear Scheme         =       TREUTLER

    Blocking Scheme        =         OCTREE
    BS radius alpha        =              1
    Pruning alpha          =              1
    Radial Points          =             75
    Spherical Points       =            302
    Total Points           =          44190
    Total Blocks           =            393
    Max Points             =            256
    Max Functions          =             44
    Weights Tolerance      =       1.00E-15

   => Loading Basis Set <=

    Name: (CC-PVTZ AUX)
    Role: JKFIT
    Keyword: DF_BASIS_SCF
    atoms 1 entry O          line   229 file /Users/joseantoniorodriguesromero/anaconda3/share/psi4/basis/cc-pvtz-jkfit.gbs 
    atoms 2 entry H          line    51 file /Users/joseantoniorodriguesromero/anaconda3/share/psi4/basis/cc-pvtz-jkfit.gbs 

   => Loading Basis Set <=

    Name: CC-PVTZ
    Role: ORBITAL
    Keyword: BASIS
    atoms 1 entry O          line   262 file /Users/joseantoniorodriguesromero/anaconda3/share/psi4/basis/cc-pvtz.gbs 
    atoms 2 entry H          line    23 file /Users/joseantoniorodriguesromero/anaconda3/share/psi4/basis/cc-pvtz.gbs 

  Reading orbitals from file /tmp/scan_HO_42.default.50236.180.npy, no projection.

  ==> Integral Setup <==

  DFHelper Memory: AOs need 0.002 GiB; user supplied 0.312 GiB. 
  Using in-core AOs.

  ==> MemDFJK: Density-Fitted J/K Matrices <==

    J tasked:                   Yes
    K tasked:                   Yes
    wK tasked:                   No
    OpenMP threads:               1
    Memory [MiB]:               319
    Algorithm:                 Core
    Schwarz Cutoff:           1E-12
    Mask sparsity (%):       0.0000
    Fitting Condition:        1E-10

   => Auxiliary Basis Set <=

  Basis Set: (CC-PVTZ AUX)
    Blend: CC-PVTZ-JKFIT
    Number of shells: 35
    Number of basis functions: 109
    Number of Cartesian functions: 131
    Spherical Harmonics?: true
    Max angular momentum: 4

  Cached 100.0% of DFT collocation blocks in 0.054 [GiB].

  Minimum eigenvalue in the overlap matrix is 2.0223385093E-02.
  Reciprocal condition number of the overlap matrix is 5.9030057814E-03.
    Using symmetric orthogonalization.

  ==> Pre-Iterations <==

  SCF Guess: Orbitals guess was supplied from a previous computation.

   -------------------------------------------------------
    Irrep   Nso     Nmo     Nalpha   Nbeta   Ndocc  Nsocc
   -------------------------------------------------------
     A1        20      20       3       3       3       0
     A2         4       4       0       0       0       0
     B1        10      10       1       0       0       1
     B2        10      10       1       0       0       1
   -------------------------------------------------------
    Total      44      44       5       3       3       2
   -------------------------------------------------------

  ==> Iterations <==

                           Total Energy        Delta E     RMS |[F,P]|

   @DF-UKS iter   0:   -75.23396647732322   -7.52340e+01   6.10670e-04 
   @DF-UKS iter   1:   -75.24329832277773   -9.33185e-03   2.29101e-04 ADIIS/DIIS
   @DF-UKS iter   2:   -75.24330050490484   -2.18213e-06   2.16954e-04 ADIIS/DIIS/DAMP=1%
   @DF-UKS iter   3:   -75.24317928006386    1.21225e-04   3.74211e-05 DIIS/DAMP=1%
   @DF-UKS iter   4:   -75.24333134549141   -1.52065e-04   1.03365e-05 DIIS/DAMP=1%
   @DF-UKS iter   5:   -75.24330774497251    2.36005e-05   4.12615e-06 DIIS/DAMP=1%
   @DF-UKS iter   6:   -75.24331380722465   -6.06225e-06   2.18556e-07 DIIS/DAMP=1%
   @DF-UKS iter   7:   -75.24331201512123    1.79210e-06   5.13451e-08 DIIS/DAMP=1%
   @DF-UKS iter   8:   -75.24331208676311   -7.16419e-08   7.09518e-09 DIIS/DAMP=1%
   @DF-UKS iter   9:   -75.24331206150606    2.52571e-08   6.58900e-10 DIIS/DAMP=1%
   @DF-UKS iter  10:   -75.24331206525952   -3.75346e-09   4.80663e-11 DIIS/DAMP=1%
  Energy and wave function converged.


  ==> Post-Iterations <==

   Electrons on quadrature grid:
      Nalpha   =    4.9999999565 ; deviation = -4.350e-08
      Nbeta    =    2.9999999995 ; deviation = -4.991e-10
      Ntotal   =    7.9999999560 ; deviation = -4.400e-08 

   @Spin Contamination Metric:   1.999561823E-02
   @S^2 Expected:                2.000000000E+00
   @S^2 Observed:                2.019995618E+00
   @S   Expected:                1.000000000E+00
   @S   Observed:                1.000000000E+00

    Orbital Energies [Eh]
    ---------------------

    Alpha Occupied:                                                       

       1A1   -19.774435     2A1    -1.478603     1B2    -0.897115  
       1B1    -0.897115     3A1    -0.883898  

    Alpha Virtual:                                                        

       4A1    -0.444365     5A1    -0.030168     2B2     0.133456  
       2B1     0.133456     6A1     0.228261     3B2     0.335123  
       3B1     0.335123     7A1     0.418821     8A1     0.679226  
       9A1     0.971072     1A2     0.971072     4B2     1.113595  
       4B1     1.113595    10A1     1.552830    11A1     1.982337  
      12A1     2.687406     2A2     2.782040    13A1     2.782043  
       5B1     2.799249     5B2     2.799249     6B1     3.123325  
       6B2     3.123325     7B2     3.258768     7B1     3.258768  
      14A1     3.381034    15A1     4.150871     8B2     4.550708  
       8B1     4.550708     3A2     4.592813    16A1     4.592813  
       9B1     4.858246     9B2     4.858246    17A1     5.264735  
       4A2     5.557366    18A1     5.557367    10B2     5.800490  
      10B1     5.800490    19A1     6.445047    20A1     7.013570  

    Beta Occupied:                                                        

       1A1   -19.716268     2A1    -1.310612     3A1    -0.832112  

    Beta Virtual:                                                         

       1B2    -0.594887     1B1    -0.594887     4A1    -0.443754  
       5A1    -0.037395     2B2     0.179832     2B1     0.179832  
       6A1     0.251220     3B2     0.354731     3B1     0.354731  
       7A1     0.453765     8A1     0.707528     1A2     1.084304  
       9A1     1.084304     4B2     1.169680     4B1     1.169680  
      10A1     1.583044    11A1     1.954775    12A1     2.702339  
       2A2     2.758416    13A1     2.758420     5B1     2.820165  
       5B2     2.820165     6B1     3.213108     6B2     3.213108  
       7B1     3.252884     7B2     3.252884    14A1     3.376804  
      15A1     4.180445    16A1     4.694751     3A2     4.694751  
       8B1     4.702059     8B2     4.702059     9B1     4.934985  
       9B2     4.934985    17A1     5.322534    18A1     5.772228  
       4A2     5.772228    10B1     5.915949    10B2     5.915949  
      19A1     6.517769    20A1     7.118995  

    Final Occupation by Irrep:
             A1    A2    B1    B2 
    DOCC [     3,    0,    0,    0 ]
    SOCC [     0,    0,    1,    1 ]
    NA   [     3,    0,    1,    1 ]
    NB   [     3,    0,    0,    0 ]

  @DF-UKS Final Energy:   -75.24331206525952

   => Energetics <=

    Nuclear Repulsion Energy =              3.0132845371473640
    One-Electron Energy =                -105.8315719346558694
    Two-Electron Energy =                  34.3780420176007198
    DFT Exchange-Correlation Energy =      -6.8030666853517321
    Empirical Dispersion Energy =           0.0000000000000000
    VV10 Nonlocal Energy =                  0.0000000000000000
    Total Energy =                        -75.2433120652595164

  UHF NO Occupations:
  HONO-2 :    3 A1 1.9908560
  HONO-1 :    1 B1 1.0000000
  HONO-0 :    1 B2 1.0000000
  LUNO+0 :    4 A1 0.0091440
  LUNO+1 :    5 A1 0.0008946
  LUNO+2 :    6 A1 0.0000014
  LUNO+3 :    2 B2 0.0000000


Computation Completed


Properties will be evaluated at   0.000000,   0.000000,   0.000000 [a0]

Properties computed using the SCF density matrix


 Multipole Moments:

 ------------------------------------------------------------------------------------
     Multipole            Electronic (a.u.)      Nuclear  (a.u.)        Total (a.u.)
 ------------------------------------------------------------------------------------

 L = 1.  Multiply by 2.5417464519 to convert [e a0] to [Debye]
 Dipole X            :          0.0000000            0.0000000            0.0000000
 Dipole Y            :          0.0000000            0.0000000            0.0000000
 Dipole Z            :          0.0743527            1.2385994            1.3129521
 Magnitude           :                                                    1.3129521

 ------------------------------------------------------------------------------------

*** tstop() called on Mac.lan at Sun Aug 10 18:30:28 2025
Module time:
	user time   =      11.55 seconds =       0.19 minutes
	system time =       2.24 seconds =       0.04 minutes
	total time  =          2 seconds =       0.03 minutes
Total time:
	user time   =      11.55 seconds =       0.19 minutes
	system time =       2.24 seconds =       0.04 minutes
	total time  =          2 seconds =       0.03 minutes

*** tstart() called on Mac.lan
*** at Sun Aug 10 18:30:28 2025

   => Libint2 <=

    Primary   basis highest AM E, G, H:  6, 6, 3
    Auxiliary basis highest AM E, G, H:  7, 7, 4
    Onebody   basis highest AM E, G, H:  -, -, -
    Solid Harmonics ordering:            Gaussian
   => Loading Basis Set <=

    Name: CC-PVTZ
    Role: ORBITAL
    Keyword: BASIS
    atoms 1 entry O          line   262 file /Users/joseantoniorodriguesromero/anaconda3/share/psi4/basis/cc-pvtz.gbs 
    atoms 2 entry H          line    23 file /Users/joseantoniorodriguesromero/anaconda3/share/psi4/basis/cc-pvtz.gbs 


         ---------------------------------------------------------
                                   SCF
               by Justin Turney, Rob Parrish, Andy Simmonett
                          and Daniel G. A. Smith
                              UKS Reference
                        1 Threads,    500 MiB Core
         ---------------------------------------------------------

  ==> Geometry <==

    Molecular point group: c2v
    Full point group: C_inf_v

    Geometry (in Angstrom), charge = 1, multiplicity = 3:

       Center              X                  Y                   Z               Mass       
    ------------   -----------------  -----------------  -----------------  -----------------
         O            0.000000000000     0.000000000000    -0.083275493104    15.994914619570
         H            0.000000000000     0.000000000000     1.321642506896     1.007825032230

  Running in c2v symmetry.

  Rotational constants: A = ************  B =      9.00837  C =      9.00837 [cm^-1]
  Rotational constants: A = ************  B = 270064.24100  C = 270064.24100 [MHz]
  Nuclear repulsion =    3.013284537147364

  Charge       = 1
  Multiplicity = 3
  Electrons    = 8
  Nalpha       = 5
  Nbeta        = 3

  ==> Algorithm <==

  SCF Algorithm Type is DF.
  DIIS enabled.
  MOM disabled.
  Fractional occupation disabled.
  Guess Type is READ.
  Energy threshold   = 1.00e-08
  Density threshold  = 1.00e-08
  Integral threshold = 1.00e-12

  ==> Primary Basis <==

  Basis Set: CC-PVTZ
    Blend: CC-PVTZ
    Number of shells: 16
    Number of basis functions: 44
    Number of Cartesian functions: 50
    Spherical Harmonics?: true
    Max angular momentum: 3

  ==> DFT Potential <==

   => LibXC <=

    Version 6.2.2
    S. Lehtola, C. Steigemann, M. J.T. Oliveira, and M. A.L. Marques.,  SoftwareX 7, 1–5 (2018) (10.1016/j.softx.2017.11.002)

   => Composite Functional: B3LYP <= 

    B3LYP Hyb-GGA Exchange-Correlation Functional

    P. J. Stephens, F. J. Devlin, C. F. Chabalowski, and M. J. Frisch.,  J. Phys. Chem. 98, 11623 (1994) (10.1021/j100096a001)

    Deriv               =              1
    GGA                 =           TRUE
    Meta                =          FALSE

    Exchange Hybrid     =           TRUE
    MP2 Hybrid          =          FALSE

   => Exchange Functionals <=

    0.0800   Slater exchange
    0.7200         Becke 88

   => Exact (HF) Exchange <=

    0.2000               HF 

   => Correlation Functionals <=

    0.1900   Vosko, Wilk & Nusair (VWN5_RPA)
    0.8100   Lee, Yang & Parr

   => LibXC Density Thresholds  <==

    XC_HYB_GGA_XC_B3LYP:  1.00E-15 

   => Molecular Quadrature <=

    Radial Scheme          =       TREUTLER
    Pruning Scheme         =           NONE
    Nuclear Scheme         =       TREUTLER

    Blocking Scheme        =         OCTREE
    BS radius alpha        =              1
    Pruning alpha          =              1
    Radial Points          =             75
    Spherical Points       =            302
    Total Points           =          44190
    Total Blocks           =            393
    Max Points             =            256
    Max Functions          =             44
    Weights Tolerance      =       1.00E-15

   => Loading Basis Set <=

    Name: (CC-PVTZ AUX)
    Role: JKFIT
    Keyword: DF_BASIS_SCF
    atoms 1 entry O          line   229 file /Users/joseantoniorodriguesromero/anaconda3/share/psi4/basis/cc-pvtz-jkfit.gbs 
    atoms 2 entry H          line    51 file /Users/joseantoniorodriguesromero/anaconda3/share/psi4/basis/cc-pvtz-jkfit.gbs 

   => Loading Basis Set <=

    Name: CC-PVTZ
    Role: ORBITAL
    Keyword: BASIS
    atoms 1 entry O          line   262 file /Users/joseantoniorodriguesromero/anaconda3/share/psi4/basis/cc-pvtz.gbs 
    atoms 2 entry H          line    23 file /Users/joseantoniorodriguesromero/anaconda3/share/psi4/basis/cc-pvtz.gbs 

  Reading orbitals from file /tmp/scan_HO_42.default.50236.180.npy, no projection.

  ==> Integral Setup <==

  DFHelper Memory: AOs need 0.002 GiB; user supplied 0.312 GiB. 
  Using in-core AOs.

  ==> MemDFJK: Density-Fitted J/K Matrices <==

    J tasked:                   Yes
    K tasked:                   Yes
    wK tasked:                   No
    OpenMP threads:               1
    Memory [MiB]:               319
    Algorithm:                 Core
    Schwarz Cutoff:           1E-12
    Mask sparsity (%):       0.0000
    Fitting Condition:        1E-10

   => Auxiliary Basis Set <=

  Basis Set: (CC-PVTZ AUX)
    Blend: CC-PVTZ-JKFIT
    Number of shells: 35
    Number of basis functions: 109
    Number of Cartesian functions: 131
    Spherical Harmonics?: true
    Max angular momentum: 4

  Cached 100.0% of DFT collocation blocks in 0.054 [GiB].

  Minimum eigenvalue in the overlap matrix is 2.0223385093E-02.
  Reciprocal condition number of the overlap matrix is 5.9030057814E-03.
    Using symmetric orthogonalization.

  ==> Pre-Iterations <==

  SCF Guess: Orbitals guess was supplied from a previous computation.

   -------------------------------------------------------
    Irrep   Nso     Nmo     Nalpha   Nbeta   Ndocc  Nsocc
   -------------------------------------------------------
     A1        20      20       3       3       3       0
     A2         4       4       0       0       0       0
     B1        10      10       1       0       0       1
     B2        10      10       1       0       0       1
   -------------------------------------------------------
    Total      44      44       5       3       3       2
   -------------------------------------------------------

  ==> Iterations <==

                           Total Energy        Delta E     RMS |[F,P]|

   @DF-UKS iter   0:   -75.24331206519767   -7.52433e+01   5.31956e-12 
   @DF-UKS iter   1:   -75.24331206519773   -5.68434e-14   3.58376e-12 DIIS
  Energy and wave function converged.


  ==> Post-Iterations <==

   Electrons on quadrature grid:
      Nalpha   =    4.9999999565 ; deviation = -4.350e-08
      Nbeta    =    2.9999999995 ; deviation = -4.991e-10
      Ntotal   =    7.9999999560 ; deviation = -4.400e-08 

   @Spin Contamination Metric:   1.999561809E-02
   @S^2 Expected:                2.000000000E+00
   @S^2 Observed:                2.019995618E+00
   @S   Expected:                1.000000000E+00
   @S   Observed:                1.000000000E+00

    Orbital Energies [Eh]
    ---------------------

    Alpha Occupied:                                                       

       1A1   -19.774435     2A1    -1.478603     1B2    -0.897115  
       1B1    -0.897115     3A1    -0.883898  

    Alpha Virtual:                                                        

       4A1    -0.444365     5A1    -0.030168     2B2     0.133456  
       2B1     0.133456     6A1     0.228261     3B2     0.335123  
       3B1     0.335123     7A1     0.418821     8A1     0.679226  
       9A1     0.971072     1A2     0.971072     4B2     1.113595  
       4B1     1.113595    10A1     1.552830    11A1     1.982337  
      12A1     2.687406     2A2     2.782040    13A1     2.782043  
       5B1     2.799249     5B2     2.799249     6B1     3.123325  
       6B2     3.123325     7B2     3.258768     7B1     3.258768  
      14A1     3.381034    15A1     4.150871     8B2     4.550708  
       8B1     4.550708     3A2     4.592813    16A1     4.592813  
       9B1     4.858246     9B2     4.858246    17A1     5.264735  
       4A2     5.557366    18A1     5.557367    10B2     5.800490  
      10B1     5.800490    19A1     6.445047    20A1     7.013570  

    Beta Occupied:                                                        

       1A1   -19.716268     2A1    -1.310612     3A1    -0.832112  

    Beta Virtual:                                                         

       1B2    -0.594887     1B1    -0.594887     4A1    -0.443754  
       5A1    -0.037395     2B2     0.179832     2B1     0.179832  
       6A1     0.251220     3B2     0.354731     3B1     0.354731  
       7A1     0.453765     8A1     0.707528     1A2     1.084304  
       9A1     1.084304     4B2     1.169680     4B1     1.169680  
      10A1     1.583044    11A1     1.954775    12A1     2.702339  
       2A2     2.758416    13A1     2.758420     5B1     2.820165  
       5B2     2.820165     6B1     3.213108     6B2     3.213108  
       7B1     3.252884     7B2     3.252884    14A1     3.376804  
      15A1     4.180445    16A1     4.694751     3A2     4.694751  
       8B1     4.702059     8B2     4.702059     9B1     4.934985  
       9B2     4.934985    17A1     5.322534    18A1     5.772228  
       4A2     5.772228    10B2     5.915949    10B1     5.915949  
      19A1     6.517769    20A1     7.118995  

    Final Occupation by Irrep:
             A1    A2    B1    B2 
    DOCC [     3,    0,    0,    0 ]
    SOCC [     0,    0,    1,    1 ]
    NA   [     3,    0,    1,    1 ]
    NB   [     3,    0,    0,    0 ]

  @DF-UKS Final Energy:   -75.24331206519773

   => Energetics <=

    Nuclear Repulsion Energy =              3.0132845371473640
    One-Electron Energy =                -105.8315719382270430
    Two-Electron Energy =                  34.3780420216770395
    DFT Exchange-Correlation Energy =      -6.8030666857950939
    Empirical Dispersion Energy =           0.0000000000000000
    VV10 Nonlocal Energy =                  0.0000000000000000
    Total Energy =                        -75.2433120651977134

  UHF NO Occupations:
  HONO-2 :    3 A1 1.9908560
  HONO-1 :    1 B1 1.0000000
  HONO-0 :    1 B2 1.0000000
  LUNO+0 :    4 A1 0.0091440
  LUNO+1 :    5 A1 0.0008946
  LUNO+2 :    6 A1 0.0000014
  LUNO+3 :    7 A1 0.0000000


Computation Completed


Properties will be evaluated at   0.000000,   0.000000,   0.000000 [a0]

Properties computed using the B3LYP density matrix


 Multipole Moments:

 ------------------------------------------------------------------------------------
     Multipole            Electronic (a.u.)      Nuclear  (a.u.)        Total (a.u.)
 ------------------------------------------------------------------------------------

 L = 1.  Multiply by 2.5417464519 to convert [e a0] to [Debye]
 Dipole X            :          0.0000000            0.0000000            0.0000000
 Dipole Y            :          0.0000000            0.0000000            0.0000000
 Dipole Z            :          0.0743527            1.2385994            1.3129521
 Magnitude           :                                                    1.3129521

 L = 2.  Multiply by 1.3450342976 to convert [e a0^2] to [Debye ang]
 Quadrupole XX       :         -3.2144040            0.0000000           -3.2144040
 Quadrupole XY       :          0.0000000            0.0000000            0.0000000
 Quadrupole XZ       :          0.0000000            0.0000000            0.0000000
 Quadrupole YY       :         -3.2144040            0.0000000           -3.2144040
 Quadrupole YZ       :          0.0000000            0.0000000            0.0000000
 Quadrupole ZZ       :         -6.1454848            6.4358351            0.2903503
 Traceless XX        :          0.9770269           -2.1452784           -1.1682514
 Traceless YY        :          0.9770269           -2.1452784           -1.1682514
 Traceless ZZ        :         -1.9540539            4.2905567            2.3365029

 ------------------------------------------------------------------------------------
  ==> Computing MBIS Charges <==

  Electron Count from Grid (Expected Number):  8.00000 ( 8.00000)
  Difference: -0.00000

  MBIS Charges: (a.u.)
   Center  Symbol  Z      Pop.       Charge
      1       O    8    7.581594    0.418406
      2       H    1    0.418406    0.581594

  MBIS Dipoles: [e a0]
   Center  Symbol  Z        X           Y           Z
      1       O    8   -0.000000   -0.000000   -0.151389
      2       H    1    0.000000   -0.000000    0.077628

  MBIS Quadrupoles: [e a0^2]
   Center  Symbol  Z      XX        XY        XZ        YY        YZ        ZZ
      1       O    8   -2.9583    0.0000   -0.0000   -2.9583    0.0000   -3.5490
      2       H    1   -0.2561    0.0000    0.0000   -0.2561   -0.0000   -0.2342

  MBIS Octupoles: [e a0^3]
   Center  Symbol  Z      XXX       XXY       XXZ       XYY       XYZ       XZZ       YYY       YYZ       YZZ       ZZZ
      1       O    8   -0.0000   -0.0000   -0.1269    0.0000   -0.0000   -0.0000    0.0000   -0.1269   -0.0000   -0.5009
      2       H    1    0.0000    0.0000    0.0376    0.0000    0.0000    0.0000   -0.0000    0.0376   -0.0000    0.1078

  MBIS Radial Moments:
   Center  Symbol  Z      [a0^2]      [a0^3]      [a0^4]      
      1       O    8    9.465655   16.587656   34.751479
      2       H    1    0.746394    1.385361    3.055395

  MBIS Valence Widths: [a0]
   Center  Symbol  Z     Width
      1       O    8    0.366163
      2       H    1    0.392423

*** tstop() called on Mac.lan at Sun Aug 10 18:30:28 2025
Module time:
	user time   =       2.48 seconds =       0.04 minutes
	system time =       2.10 seconds =       0.04 minutes
	total time  =          0 seconds =       0.00 minutes
Total time:
	user time   =      14.11 seconds =       0.24 minutes
	system time =       4.47 seconds =       0.07 minutes
	total time  =          2 seconds =       0.03 minutes

    Psi4 stopped on: Sunday, 10 August 2025 06:30PM
    Psi4 wall time for execution: 0:00:01.82

*** Psi4 exiting successfully. Buy a developer a beer!
