
    -----------------------------------------------------------------------
          Psi4: An Open-Source Ab Initio Electronic Structure Package
                               Psi4 1.9.1 release

                         Git: Rev {} zzzzzzz 


    D. G. A. Smith, L. A. Burns, A. C. Simmonett, R. M. Parrish,
    M. C. Schieber, R. Galvelis, P. Kraus, H. Kruse, R. Di Remigio,
    A. Alenaizan, A. M. James, S. Lehtola, J. P. Misiewicz, M. Scheurer,
    R. A. Shaw, J. B. Schriber, Y. Xie, Z. L. Glick, D. A. Sirianni,
    J. S. O'Brien, J. M. Waldrop, A. Kumar, E. G. Hohenstein,
    B. P. Pritchard, B. R. Brooks, H. F. Schaefer III, A. Yu. Sokolov,
    K. Patkowski, A. E. DePrince III, U. Bozkaya, R. A. King,
    F. A. Evangelista, J. M. Turney, T. D. Crawford, C. D. Sherrill,
    J. Chem. Phys. 152(18) 184108 (2020). https://doi.org/10.1063/5.0006002

                            Additional Code Authors
    E. T. Seidl, C. L. Janssen, E. F. Valeev, M. L. Leininger,
    J. F. Gonthier, R. M. Richard, H. R. McAlexander, M. Saitow, X. Wang,
    P. Verma, M. H. Lechner, A. Jiang, S. Behnle, A. G. Heide,
    M. F. Herbst, and D. L. Poole

             Previous Authors, Complete List of Code Contributors,
                       and Citations for Specific Modules
    https://github.com/psi4/psi4/blob/master/codemeta.json
    https://github.com/psi4/psi4/graphs/contributors
    http://psicode.org/psi4manual/master/introduction.html#citing-psifour

    -----------------------------------------------------------------------


    Psi4 started on: Sunday, 10 August 2025 06:28PM

    Process ID: 50167
    Host:       Mac.lan
    PSIDATADIR: /Users/joseantoniorodriguesromero/anaconda3/share/psi4
    Memory:     500.0 MiB
    Threads:    1
    
  ==> Input File <==

--------------------------------------------------------------------------
molecule { 
1 3
O           0.000000           0.000000           0.000000
H           0.000000           0.000000           0.928136
}

set { 
basis              cc-pvtz
reference          uks
maxiter            500
DAMPING_PERCENTAGE 1
E_CONVERGENCE      1.0E-8
D_CONVERGENCE      1.0E-8
DIIS_MAX_VECS      400
MBIS_MAXITER       8000
guess              read
}

E, wfn = energy('b3lyp', restart_file='last_wfn', return_wfn=True)
properties('b3lyp','MBIS_CHARGES', wfn=wfn)
wfn.to_file('last_wfn')
--------------------------------------------------------------------------

Scratch directory: /tmp/
 Found user provided orbital data. Setting orbital guess to READ 
 Copying restart file <last_wfn.npy> to </tmp/scan_HO_17.default.50167.180.npy> for internal processing
   => Libint2 <=

    Primary   basis highest AM E, G, H:  6, 6, 3
    Auxiliary basis highest AM E, G, H:  7, 7, 4
    Onebody   basis highest AM E, G, H:  -, -, -
    Solid Harmonics ordering:            Gaussian

*** tstart() called on Mac.lan
*** at Sun Aug 10 18:28:36 2025

   => Loading Basis Set <=

    Name: CC-PVTZ
    Role: ORBITAL
    Keyword: BASIS
    atoms 1 entry O          line   262 file /Users/joseantoniorodriguesromero/anaconda3/share/psi4/basis/cc-pvtz.gbs 
    atoms 2 entry H          line    23 file /Users/joseantoniorodriguesromero/anaconda3/share/psi4/basis/cc-pvtz.gbs 


         ---------------------------------------------------------
                                   SCF
               by Justin Turney, Rob Parrish, Andy Simmonett
                          and Daniel G. A. Smith
                              UKS Reference
                        1 Threads,    500 MiB Core
         ---------------------------------------------------------

  ==> Geometry <==

    Molecular point group: c2v
    Full point group: C_inf_v

    Geometry (in Angstrom), charge = 1, multiplicity = 3:

       Center              X                  Y                   Z               Mass       
    ------------   -----------------  -----------------  -----------------  -----------------
         O            0.000000000000     0.000000000000    -0.055014586665    15.994914619570
         H            0.000000000000     0.000000000000     0.873121413335     1.007825032230

  Running in c2v symmetry.

  Rotational constants: A = ************  B =     20.64073  C =     20.64073 [cm^-1]
  Rotational constants: A = ************  B = 618793.58199  C = 618793.58199 [MHz]
  Nuclear repulsion =    4.561204053457684

  Charge       = 1
  Multiplicity = 3
  Electrons    = 8
  Nalpha       = 5
  Nbeta        = 3

  ==> Algorithm <==

  SCF Algorithm Type is DF.
  DIIS enabled.
  MOM disabled.
  Fractional occupation disabled.
  Guess Type is READ.
  Energy threshold   = 1.00e-08
  Density threshold  = 1.00e-08
  Integral threshold = 1.00e-12

  ==> Primary Basis <==

  Basis Set: CC-PVTZ
    Blend: CC-PVTZ
    Number of shells: 16
    Number of basis functions: 44
    Number of Cartesian functions: 50
    Spherical Harmonics?: true
    Max angular momentum: 3

  ==> DFT Potential <==

   => LibXC <=

    Version 6.2.2
    S. Lehtola, C. Steigemann, M. J.T. Oliveira, and M. A.L. Marques.,  SoftwareX 7, 1–5 (2018) (10.1016/j.softx.2017.11.002)

   => Composite Functional: B3LYP <= 

    B3LYP Hyb-GGA Exchange-Correlation Functional

    P. J. Stephens, F. J. Devlin, C. F. Chabalowski, and M. J. Frisch.,  J. Phys. Chem. 98, 11623 (1994) (10.1021/j100096a001)

    Deriv               =              1
    GGA                 =           TRUE
    Meta                =          FALSE

    Exchange Hybrid     =           TRUE
    MP2 Hybrid          =          FALSE

   => Exchange Functionals <=

    0.0800   Slater exchange
    0.7200         Becke 88

   => Exact (HF) Exchange <=

    0.2000               HF 

   => Correlation Functionals <=

    0.1900   Vosko, Wilk & Nusair (VWN5_RPA)
    0.8100   Lee, Yang & Parr

   => LibXC Density Thresholds  <==

    XC_HYB_GGA_XC_B3LYP:  1.00E-15 

   => Molecular Quadrature <=

    Radial Scheme          =       TREUTLER
    Pruning Scheme         =           NONE
    Nuclear Scheme         =       TREUTLER

    Blocking Scheme        =         OCTREE
    BS radius alpha        =              1
    Pruning alpha          =              1
    Radial Points          =             75
    Spherical Points       =            302
    Total Points           =          44126
    Total Blocks           =            392
    Max Points             =            256
    Max Functions          =             44
    Weights Tolerance      =       1.00E-15

   => Loading Basis Set <=

    Name: (CC-PVTZ AUX)
    Role: JKFIT
    Keyword: DF_BASIS_SCF
    atoms 1 entry O          line   229 file /Users/joseantoniorodriguesromero/anaconda3/share/psi4/basis/cc-pvtz-jkfit.gbs 
    atoms 2 entry H          line    51 file /Users/joseantoniorodriguesromero/anaconda3/share/psi4/basis/cc-pvtz-jkfit.gbs 

   => Loading Basis Set <=

    Name: CC-PVTZ
    Role: ORBITAL
    Keyword: BASIS
    atoms 1 entry O          line   262 file /Users/joseantoniorodriguesromero/anaconda3/share/psi4/basis/cc-pvtz.gbs 
    atoms 2 entry H          line    23 file /Users/joseantoniorodriguesromero/anaconda3/share/psi4/basis/cc-pvtz.gbs 

  Reading orbitals from file /tmp/scan_HO_17.default.50167.180.npy, no projection.

  ==> Integral Setup <==

  DFHelper Memory: AOs need 0.002 GiB; user supplied 0.312 GiB. 
  Using in-core AOs.

  ==> MemDFJK: Density-Fitted J/K Matrices <==

    J tasked:                   Yes
    K tasked:                   Yes
    wK tasked:                   No
    OpenMP threads:               1
    Memory [MiB]:               319
    Algorithm:                 Core
    Schwarz Cutoff:           1E-12
    Mask sparsity (%):       0.0000
    Fitting Condition:        1E-10

   => Auxiliary Basis Set <=

  Basis Set: (CC-PVTZ AUX)
    Blend: CC-PVTZ-JKFIT
    Number of shells: 35
    Number of basis functions: 109
    Number of Cartesian functions: 131
    Spherical Harmonics?: true
    Max angular momentum: 4

  Cached 100.0% of DFT collocation blocks in 0.055 [GiB].

  Minimum eigenvalue in the overlap matrix is 3.4818732862E-03.
  Reciprocal condition number of the overlap matrix is 8.7028181467E-04.
    Using symmetric orthogonalization.

  ==> Pre-Iterations <==

  SCF Guess: Orbitals guess was supplied from a previous computation.

   -------------------------------------------------------
    Irrep   Nso     Nmo     Nalpha   Nbeta   Ndocc  Nsocc
   -------------------------------------------------------
     A1        20      20       3       3       3       0
     A2         4       4       0       0       0       0
     B1        10      10       1       0       0       1
     B2        10      10       1       0       0       1
   -------------------------------------------------------
    Total      44      44       5       3       3       2
   -------------------------------------------------------

  ==> Iterations <==

                           Total Energy        Delta E     RMS |[F,P]|

   @DF-UKS iter   0:   -75.28506238692938   -7.52851e+01   1.86827e-03 
   @DF-UKS iter   1:   -75.27180579153915    1.32566e-02   2.50168e-04 ADIIS/DIIS
   @DF-UKS iter   2:   -75.27181565514138   -9.86360e-06   1.16443e-04 ADIIS/DIIS/DAMP=1%
   @DF-UKS iter   3:   -75.27187398607337   -5.83309e-05   2.43878e-05 DIIS/DAMP=1%
   @DF-UKS iter   4:   -75.27180736935387    6.66167e-05   2.95215e-06 DIIS/DAMP=1%
   @DF-UKS iter   5:   -75.27181934437638   -1.19750e-05   3.91347e-07 DIIS/DAMP=1%
   @DF-UKS iter   6:   -75.27181793125510    1.41312e-06   6.45043e-08 DIIS/DAMP=1%
   @DF-UKS iter   7:   -75.27181807055392   -1.39299e-07   3.35585e-09 DIIS/DAMP=1%
   @DF-UKS iter   8:   -75.27181805491519    1.56387e-08   2.79535e-10 DIIS/DAMP=1%
   @DF-UKS iter   9:   -75.27181805473251    1.82681e-10   2.71435e-11 DIIS/DAMP=1%
  Energy and wave function converged.


  ==> Post-Iterations <==

   Electrons on quadrature grid:
      Nalpha   =    4.9999999732 ; deviation = -2.683e-08
      Nbeta    =    2.9999999965 ; deviation = -3.482e-09
      Ntotal   =    7.9999999697 ; deviation = -3.031e-08 

   @Spin Contamination Metric:   4.088865852E-03
   @S^2 Expected:                2.000000000E+00
   @S^2 Observed:                2.004088866E+00
   @S   Expected:                1.000000000E+00
   @S   Observed:                1.000000000E+00

    Orbital Energies [Eh]
    ---------------------

    Alpha Occupied:                                                       

       1A1   -19.826960     2A1    -1.603019     3A1    -1.009822  
       1B1    -0.963103     1B2    -0.963103  

    Alpha Virtual:                                                        

       4A1    -0.285026     5A1     0.024064     2B1     0.135169  
       2B2     0.135169     6A1     0.157410     3B2     0.324196  
       3B1     0.324196     7A1     0.455227     8A1     0.906946  
       9A1     0.912109     1A2     0.912109     4B1     1.304361  
       4B2     1.304361    10A1     1.425693    11A1     2.012970  
      12A1     2.761228     2A2     2.761228     5B2     2.829864  
       5B1     2.829864     6B2     3.138514     6B1     3.138514  
      13A1     3.280036     7B2     3.634367     7B1     3.634367  
      14A1     3.908547    15A1     4.186448     8B1     4.488581  
       8B2     4.488581    16A1     4.845602     3A2     4.845602  
       4A2     5.518510    17A1     5.518510     9B1     5.760699  
       9B2     5.760699    18A1     5.938369    10B2     6.179568  
      10B1     6.179568    19A1     6.512016    20A1    10.023667  

    Beta Occupied:                                                        

       1A1   -19.770936     2A1    -1.454235     3A1    -0.952426  

    Beta Virtual:                                                         

       1B1    -0.659550     1B2    -0.659550     4A1    -0.269142  
       5A1     0.035555     6A1     0.169904     2B1     0.204544  
       2B2     0.204544     3B2     0.339034     3B1     0.339034  
       7A1     0.503932     8A1     0.929671     9A1     1.023982  
       1A2     1.023982     4B1     1.357696     4B2     1.357696  
      10A1     1.454802    11A1     2.026898     2A2     2.775986  
      12A1     2.775986     5B2     2.912748     5B1     2.912748  
       6B2     3.188441     6B1     3.188441    13A1     3.290320  
       7B2     3.674659     7B1     3.674659    14A1     3.960838  
      15A1     4.245253     8B1     4.640929     8B2     4.640929  
      16A1     4.942440     3A2     4.942441     4A2     5.730233  
      17A1     5.730234     9B1     5.872215     9B2     5.872215  
      18A1     5.988969    10B2     6.236880    10B1     6.236880  
      19A1     6.566687    20A1    10.094992  

    Final Occupation by Irrep:
             A1    A2    B1    B2 
    DOCC [     3,    0,    0,    0 ]
    SOCC [     0,    0,    1,    1 ]
    NA   [     3,    0,    1,    1 ]
    NB   [     3,    0,    0,    0 ]

  @DF-UKS Final Energy:   -75.27181805473251

   => Energetics <=

    Nuclear Repulsion Energy =              4.5612040534576836
    One-Electron Energy =                -108.1640767230082645
    Two-Electron Energy =                  35.2305794951290849
    DFT Exchange-Correlation Energy =      -6.8995248803110059
    Empirical Dispersion Energy =           0.0000000000000000
    VV10 Nonlocal Energy =                  0.0000000000000000
    Total Energy =                        -75.2718180547324920

  UHF NO Occupations:
  HONO-2 :    3 A1 1.9984618
  HONO-1 :    1 B2 1.0000000
  HONO-0 :    1 B1 1.0000000
  LUNO+0 :    4 A1 0.0015382
  LUNO+1 :    5 A1 0.0005061
  LUNO+2 :    6 A1 0.0000015
  LUNO+3 :    7 A1 0.0000000


Computation Completed


Properties will be evaluated at   0.000000,   0.000000,   0.000000 [a0]

Properties computed using the SCF density matrix


 Multipole Moments:

 ------------------------------------------------------------------------------------
     Multipole            Electronic (a.u.)      Nuclear  (a.u.)        Total (a.u.)
 ------------------------------------------------------------------------------------

 L = 1.  Multiply by 2.5417464519 to convert [e a0] to [Debye]
 Dipole X            :          0.0000000            0.0000000            0.0000000
 Dipole Y            :          0.0000000            0.0000000            0.0000000
 Dipole Z            :         -0.0151684            0.8182603            0.8030919
 Magnitude           :                                                    0.8030919

 ------------------------------------------------------------------------------------

*** tstop() called on Mac.lan at Sun Aug 10 18:28:38 2025
Module time:
	user time   =       9.64 seconds =       0.16 minutes
	system time =       2.08 seconds =       0.03 minutes
	total time  =          2 seconds =       0.03 minutes
Total time:
	user time   =       9.64 seconds =       0.16 minutes
	system time =       2.08 seconds =       0.03 minutes
	total time  =          2 seconds =       0.03 minutes

*** tstart() called on Mac.lan
*** at Sun Aug 10 18:28:38 2025

   => Libint2 <=

    Primary   basis highest AM E, G, H:  6, 6, 3
    Auxiliary basis highest AM E, G, H:  7, 7, 4
    Onebody   basis highest AM E, G, H:  -, -, -
    Solid Harmonics ordering:            Gaussian
   => Loading Basis Set <=

    Name: CC-PVTZ
    Role: ORBITAL
    Keyword: BASIS
    atoms 1 entry O          line   262 file /Users/joseantoniorodriguesromero/anaconda3/share/psi4/basis/cc-pvtz.gbs 
    atoms 2 entry H          line    23 file /Users/joseantoniorodriguesromero/anaconda3/share/psi4/basis/cc-pvtz.gbs 


         ---------------------------------------------------------
                                   SCF
               by Justin Turney, Rob Parrish, Andy Simmonett
                          and Daniel G. A. Smith
                              UKS Reference
                        1 Threads,    500 MiB Core
         ---------------------------------------------------------

  ==> Geometry <==

    Molecular point group: c2v
    Full point group: C_inf_v

    Geometry (in Angstrom), charge = 1, multiplicity = 3:

       Center              X                  Y                   Z               Mass       
    ------------   -----------------  -----------------  -----------------  -----------------
         O            0.000000000000     0.000000000000    -0.055014586665    15.994914619570
         H            0.000000000000     0.000000000000     0.873121413335     1.007825032230

  Running in c2v symmetry.

  Rotational constants: A = ************  B =     20.64073  C =     20.64073 [cm^-1]
  Rotational constants: A = ************  B = 618793.58199  C = 618793.58199 [MHz]
  Nuclear repulsion =    4.561204053457684

  Charge       = 1
  Multiplicity = 3
  Electrons    = 8
  Nalpha       = 5
  Nbeta        = 3

  ==> Algorithm <==

  SCF Algorithm Type is DF.
  DIIS enabled.
  MOM disabled.
  Fractional occupation disabled.
  Guess Type is READ.
  Energy threshold   = 1.00e-08
  Density threshold  = 1.00e-08
  Integral threshold = 1.00e-12

  ==> Primary Basis <==

  Basis Set: CC-PVTZ
    Blend: CC-PVTZ
    Number of shells: 16
    Number of basis functions: 44
    Number of Cartesian functions: 50
    Spherical Harmonics?: true
    Max angular momentum: 3

  ==> DFT Potential <==

   => LibXC <=

    Version 6.2.2
    S. Lehtola, C. Steigemann, M. J.T. Oliveira, and M. A.L. Marques.,  SoftwareX 7, 1–5 (2018) (10.1016/j.softx.2017.11.002)

   => Composite Functional: B3LYP <= 

    B3LYP Hyb-GGA Exchange-Correlation Functional

    P. J. Stephens, F. J. Devlin, C. F. Chabalowski, and M. J. Frisch.,  J. Phys. Chem. 98, 11623 (1994) (10.1021/j100096a001)

    Deriv               =              1
    GGA                 =           TRUE
    Meta                =          FALSE

    Exchange Hybrid     =           TRUE
    MP2 Hybrid          =          FALSE

   => Exchange Functionals <=

    0.0800   Slater exchange
    0.7200         Becke 88

   => Exact (HF) Exchange <=

    0.2000               HF 

   => Correlation Functionals <=

    0.1900   Vosko, Wilk & Nusair (VWN5_RPA)
    0.8100   Lee, Yang & Parr

   => LibXC Density Thresholds  <==

    XC_HYB_GGA_XC_B3LYP:  1.00E-15 

   => Molecular Quadrature <=

    Radial Scheme          =       TREUTLER
    Pruning Scheme         =           NONE
    Nuclear Scheme         =       TREUTLER

    Blocking Scheme        =         OCTREE
    BS radius alpha        =              1
    Pruning alpha          =              1
    Radial Points          =             75
    Spherical Points       =            302
    Total Points           =          44126
    Total Blocks           =            392
    Max Points             =            256
    Max Functions          =             44
    Weights Tolerance      =       1.00E-15

   => Loading Basis Set <=

    Name: (CC-PVTZ AUX)
    Role: JKFIT
    Keyword: DF_BASIS_SCF
    atoms 1 entry O          line   229 file /Users/joseantoniorodriguesromero/anaconda3/share/psi4/basis/cc-pvtz-jkfit.gbs 
    atoms 2 entry H          line    51 file /Users/joseantoniorodriguesromero/anaconda3/share/psi4/basis/cc-pvtz-jkfit.gbs 

   => Loading Basis Set <=

    Name: CC-PVTZ
    Role: ORBITAL
    Keyword: BASIS
    atoms 1 entry O          line   262 file /Users/joseantoniorodriguesromero/anaconda3/share/psi4/basis/cc-pvtz.gbs 
    atoms 2 entry H          line    23 file /Users/joseantoniorodriguesromero/anaconda3/share/psi4/basis/cc-pvtz.gbs 

  Reading orbitals from file /tmp/scan_HO_17.default.50167.180.npy, no projection.

  ==> Integral Setup <==

  DFHelper Memory: AOs need 0.002 GiB; user supplied 0.312 GiB. 
  Using in-core AOs.

  ==> MemDFJK: Density-Fitted J/K Matrices <==

    J tasked:                   Yes
    K tasked:                   Yes
    wK tasked:                   No
    OpenMP threads:               1
    Memory [MiB]:               319
    Algorithm:                 Core
    Schwarz Cutoff:           1E-12
    Mask sparsity (%):       0.0000
    Fitting Condition:        1E-10

   => Auxiliary Basis Set <=

  Basis Set: (CC-PVTZ AUX)
    Blend: CC-PVTZ-JKFIT
    Number of shells: 35
    Number of basis functions: 109
    Number of Cartesian functions: 131
    Spherical Harmonics?: true
    Max angular momentum: 4

  Cached 100.0% of DFT collocation blocks in 0.055 [GiB].

  Minimum eigenvalue in the overlap matrix is 3.4818732862E-03.
  Reciprocal condition number of the overlap matrix is 8.7028181467E-04.
    Using symmetric orthogonalization.

  ==> Pre-Iterations <==

  SCF Guess: Orbitals guess was supplied from a previous computation.

   -------------------------------------------------------
    Irrep   Nso     Nmo     Nalpha   Nbeta   Ndocc  Nsocc
   -------------------------------------------------------
     A1        20      20       3       3       3       0
     A2         4       4       0       0       0       0
     B1        10      10       1       0       0       1
     B2        10      10       1       0       0       1
   -------------------------------------------------------
    Total      44      44       5       3       3       2
   -------------------------------------------------------

  ==> Iterations <==

                           Total Energy        Delta E     RMS |[F,P]|

   @DF-UKS iter   0:   -75.27181805472651   -7.52718e+01   2.25265e-12 
   @DF-UKS iter   1:   -75.27181805472654   -2.84217e-14   8.40023e-13 DIIS
  Energy and wave function converged.


  ==> Post-Iterations <==

   Electrons on quadrature grid:
      Nalpha   =    4.9999999732 ; deviation = -2.683e-08
      Nbeta    =    2.9999999965 ; deviation = -3.482e-09
      Ntotal   =    7.9999999697 ; deviation = -3.031e-08 

   @Spin Contamination Metric:   4.088865850E-03
   @S^2 Expected:                2.000000000E+00
   @S^2 Observed:                2.004088866E+00
   @S   Expected:                1.000000000E+00
   @S   Observed:                1.000000000E+00

    Orbital Energies [Eh]
    ---------------------

    Alpha Occupied:                                                       

       1A1   -19.826960     2A1    -1.603019     3A1    -1.009822  
       1B1    -0.963103     1B2    -0.963103  

    Alpha Virtual:                                                        

       4A1    -0.285026     5A1     0.024064     2B1     0.135169  
       2B2     0.135169     6A1     0.157410     3B2     0.324196  
       3B1     0.324196     7A1     0.455227     8A1     0.906946  
       9A1     0.912109     1A2     0.912109     4B1     1.304361  
       4B2     1.304361    10A1     1.425693    11A1     2.012970  
      12A1     2.761228     2A2     2.761228     5B2     2.829864  
       5B1     2.829864     6B2     3.138514     6B1     3.138514  
      13A1     3.280036     7B2     3.634367     7B1     3.634367  
      14A1     3.908547    15A1     4.186448     8B1     4.488581  
       8B2     4.488581    16A1     4.845602     3A2     4.845602  
       4A2     5.518510    17A1     5.518510     9B1     5.760699  
       9B2     5.760699    18A1     5.938369    10B2     6.179568  
      10B1     6.179568    19A1     6.512016    20A1    10.023667  

    Beta Occupied:                                                        

       1A1   -19.770936     2A1    -1.454235     3A1    -0.952426  

    Beta Virtual:                                                         

       1B1    -0.659550     1B2    -0.659550     4A1    -0.269142  
       5A1     0.035555     6A1     0.169904     2B1     0.204544  
       2B2     0.204544     3B2     0.339034     3B1     0.339034  
       7A1     0.503932     8A1     0.929671     9A1     1.023982  
       1A2     1.023982     4B1     1.357696     4B2     1.357696  
      10A1     1.454802    11A1     2.026898     2A2     2.775986  
      12A1     2.775986     5B2     2.912748     5B1     2.912748  
       6B2     3.188441     6B1     3.188441    13A1     3.290320  
       7B2     3.674659     7B1     3.674659    14A1     3.960838  
      15A1     4.245253     8B1     4.640929     8B2     4.640929  
      16A1     4.942440     3A2     4.942441     4A2     5.730233  
      17A1     5.730234     9B1     5.872215     9B2     5.872215  
      18A1     5.988969    10B2     6.236880    10B1     6.236880  
      19A1     6.566687    20A1    10.094992  

    Final Occupation by Irrep:
             A1    A2    B1    B2 
    DOCC [     3,    0,    0,    0 ]
    SOCC [     0,    0,    1,    1 ]
    NA   [     3,    0,    1,    1 ]
    NB   [     3,    0,    0,    0 ]

  @DF-UKS Final Energy:   -75.27181805472654

   => Energetics <=

    Nuclear Repulsion Energy =              4.5612040534576836
    One-Electron Energy =                -108.1640767233017755
    Two-Electron Energy =                  35.2305794954325009
    DFT Exchange-Correlation Energy =      -6.8995248803149476
    Empirical Dispersion Energy =           0.0000000000000000
    VV10 Nonlocal Energy =                  0.0000000000000000
    Total Energy =                        -75.2718180547265376

  UHF NO Occupations:
  HONO-2 :    3 A1 1.9984618
  HONO-1 :    1 B1 1.0000000
  HONO-0 :    1 B2 1.0000000
  LUNO+0 :    4 A1 0.0015382
  LUNO+1 :    5 A1 0.0005061
  LUNO+2 :    6 A1 0.0000015
  LUNO+3 :    7 A1 0.0000000


Computation Completed


Properties will be evaluated at   0.000000,   0.000000,   0.000000 [a0]

Properties computed using the B3LYP density matrix


 Multipole Moments:

 ------------------------------------------------------------------------------------
     Multipole            Electronic (a.u.)      Nuclear  (a.u.)        Total (a.u.)
 ------------------------------------------------------------------------------------

 L = 1.  Multiply by 2.5417464519 to convert [e a0] to [Debye]
 Dipole X            :          0.0000000            0.0000000            0.0000000
 Dipole Y            :          0.0000000            0.0000000            0.0000000
 Dipole Z            :         -0.0151684            0.8182603            0.8030919
 Magnitude           :                                                    0.8030919

 L = 2.  Multiply by 1.3450342976 to convert [e a0^2] to [Debye ang]
 Quadrupole XX       :         -2.9813402            0.0000000           -2.9813402
 Quadrupole XY       :          0.0000000            0.0000000            0.0000000
 Quadrupole XZ       :          0.0000000            0.0000000            0.0000000
 Quadrupole YY       :         -2.9813402            0.0000000           -2.9813402
 Quadrupole YZ       :          0.0000000            0.0000000            0.0000000
 Quadrupole ZZ       :         -4.6923607            2.8088348           -1.8835259
 Traceless XX        :          0.5703401           -0.9362783           -0.3659381
 Traceless YY        :          0.5703401           -0.9362783           -0.3659381
 Traceless ZZ        :         -1.1406803            1.8725565            0.7318762

 ------------------------------------------------------------------------------------
  ==> Computing MBIS Charges <==

  Electron Count from Grid (Expected Number):  8.00000 ( 8.00000)
  Difference: -0.00000

  MBIS Charges: (a.u.)
   Center  Symbol  Z      Pop.       Charge
      1       O    8    7.496648    0.503352
      2       H    1    0.503352    0.496648

  MBIS Dipoles: [e a0]
   Center  Symbol  Z        X           Y           Z
      1       O    8   -0.000000   -0.000000   -0.008359
      2       H    1   -0.000000   -0.000000    0.044331

  MBIS Quadrupoles: [e a0^2]
   Center  Symbol  Z      XX        XY        XZ        YY        YZ        ZZ
      1       O    8   -2.7939   -0.0000    0.0000   -2.7939   -0.0000   -3.2076
      2       H    1   -0.1874    0.0000   -0.0000   -0.1874   -0.0000   -0.1814

  MBIS Octupoles: [e a0^3]
   Center  Symbol  Z      XXX       XXY       XXZ       XYY       XYZ       XZZ       YYY       YYZ       YZZ       ZZZ
      1       O    8    0.0000   -0.0000    0.0079    0.0000   -0.0000    0.0000   -0.0000    0.0079   -0.0000   -0.0317
      2       H    1    0.0000   -0.0000    0.0058    0.0000    0.0000   -0.0000   -0.0000    0.0058   -0.0000    0.0258

  MBIS Radial Moments:
   Center  Symbol  Z      [a0^2]      [a0^3]      [a0^4]      
      1       O    8    8.795422   14.872099   30.129449
      2       H    1    0.556311    0.827743    1.475355

  MBIS Valence Widths: [a0]
   Center  Symbol  Z     Width
      1       O    8    0.355293
      2       H    1    0.307074

*** tstop() called on Mac.lan at Sun Aug 10 18:28:38 2025
Module time:
	user time   =       4.47 seconds =       0.07 minutes
	system time =       2.10 seconds =       0.04 minutes
	total time  =          0 seconds =       0.00 minutes
Total time:
	user time   =      14.22 seconds =       0.24 minutes
	system time =       4.36 seconds =       0.07 minutes
	total time  =          2 seconds =       0.03 minutes

    Psi4 stopped on: Sunday, 10 August 2025 06:28PM
    Psi4 wall time for execution: 0:00:01.85

*** Psi4 exiting successfully. Buy a developer a beer!
