
    -----------------------------------------------------------------------
          Psi4: An Open-Source Ab Initio Electronic Structure Package
                               Psi4 1.9.1 release

                         Git: Rev {} zzzzzzz 


    D. G. A. Smith, L. A. Burns, A. C. Simmonett, R. M. Parrish,
    M. C. Schieber, R. Galvelis, P. Kraus, H. Kruse, R. Di Remigio,
    A. Alenaizan, A. M. James, S. Lehtola, J. P. Misiewicz, M. Scheurer,
    R. A. Shaw, J. B. Schriber, Y. Xie, Z. L. Glick, D. A. Sirianni,
    J. S. O'Brien, J. M. Waldrop, A. Kumar, E. G. Hohenstein,
    B. P. Pritchard, B. R. Brooks, H. F. Schaefer III, A. Yu. Sokolov,
    K. Patkowski, A. E. DePrince III, U. Bozkaya, R. A. King,
    F. A. Evangelista, J. M. Turney, T. D. Crawford, C. D. Sherrill,
    J. Chem. Phys. 152(18) 184108 (2020). https://doi.org/10.1063/5.0006002

                            Additional Code Authors
    E. T. Seidl, C. L. Janssen, E. F. Valeev, M. L. Leininger,
    J. F. Gonthier, R. M. Richard, H. R. McAlexander, M. Saitow, X. Wang,
    P. Verma, M. H. Lechner, A. Jiang, S. Behnle, A. G. Heide,
    M. F. Herbst, and D. L. Poole

             Previous Authors, Complete List of Code Contributors,
                       and Citations for Specific Modules
    https://github.com/psi4/psi4/blob/master/codemeta.json
    https://github.com/psi4/psi4/graphs/contributors
    http://psicode.org/psi4manual/master/introduction.html#citing-psifour

    -----------------------------------------------------------------------


    Psi4 started on: Sunday, 10 August 2025 06:28PM

    Process ID: 50159
    Host:       Mac.lan
    PSIDATADIR: /Users/joseantoniorodriguesromero/anaconda3/share/psi4
    Memory:     500.0 MiB
    Threads:    1
    
  ==> Input File <==

--------------------------------------------------------------------------
molecule { 
1 3
O           0.000000           0.000000           0.000000
H           0.000000           0.000000           1.042564
}

set { 
basis              cc-pvtz
reference          uks
maxiter            500
DAMPING_PERCENTAGE 1
E_CONVERGENCE      1.0E-8
D_CONVERGENCE      1.0E-8
DIIS_MAX_VECS      400
MBIS_MAXITER       8000
guess              read
}

E, wfn = energy('b3lyp', restart_file='last_wfn', return_wfn=True)
properties('b3lyp','MBIS_CHARGES', wfn=wfn)
wfn.to_file('last_wfn')
--------------------------------------------------------------------------

Scratch directory: /tmp/
 Found user provided orbital data. Setting orbital guess to READ 
 Copying restart file <last_wfn.npy> to </tmp/scan_HO_23.default.50159.180.npy> for internal processing
   => Libint2 <=

    Primary   basis highest AM E, G, H:  6, 6, 3
    Auxiliary basis highest AM E, G, H:  7, 7, 4
    Onebody   basis highest AM E, G, H:  -, -, -
    Solid Harmonics ordering:            Gaussian

*** tstart() called on Mac.lan
*** at Sun Aug 10 18:28:19 2025

   => Loading Basis Set <=

    Name: CC-PVTZ
    Role: ORBITAL
    Keyword: BASIS
    atoms 1 entry O          line   262 file /Users/joseantoniorodriguesromero/anaconda3/share/psi4/basis/cc-pvtz.gbs 
    atoms 2 entry H          line    23 file /Users/joseantoniorodriguesromero/anaconda3/share/psi4/basis/cc-pvtz.gbs 


         ---------------------------------------------------------
                                   SCF
               by Justin Turney, Rob Parrish, Andy Simmonett
                          and Daniel G. A. Smith
                              UKS Reference
                        1 Threads,    500 MiB Core
         ---------------------------------------------------------

  ==> Geometry <==

    Molecular point group: c2v
    Full point group: C_inf_v

    Geometry (in Angstrom), charge = 1, multiplicity = 3:

       Center              X                  Y                   Z               Mass       
    ------------   -----------------  -----------------  -----------------  -----------------
         O            0.000000000000     0.000000000000    -0.061797223178    15.994914619570
         H            0.000000000000     0.000000000000     0.980766776822     1.007825032230

  Running in c2v symmetry.

  Rotational constants: A = ************  B =     16.35848  C =     16.35848 [cm^-1]
  Rotational constants: A = ************  B = 490414.82233  C = 490414.82233 [MHz]
  Nuclear repulsion =    4.060583029300839

  Charge       = 1
  Multiplicity = 3
  Electrons    = 8
  Nalpha       = 5
  Nbeta        = 3

  ==> Algorithm <==

  SCF Algorithm Type is DF.
  DIIS enabled.
  MOM disabled.
  Fractional occupation disabled.
  Guess Type is READ.
  Energy threshold   = 1.00e-08
  Density threshold  = 1.00e-08
  Integral threshold = 1.00e-12

  ==> Primary Basis <==

  Basis Set: CC-PVTZ
    Blend: CC-PVTZ
    Number of shells: 16
    Number of basis functions: 44
    Number of Cartesian functions: 50
    Spherical Harmonics?: true
    Max angular momentum: 3

  ==> DFT Potential <==

   => LibXC <=

    Version 6.2.2
    S. Lehtola, C. Steigemann, M. J.T. Oliveira, and M. A.L. Marques.,  SoftwareX 7, 1–5 (2018) (10.1016/j.softx.2017.11.002)

   => Composite Functional: B3LYP <= 

    B3LYP Hyb-GGA Exchange-Correlation Functional

    P. J. Stephens, F. J. Devlin, C. F. Chabalowski, and M. J. Frisch.,  J. Phys. Chem. 98, 11623 (1994) (10.1021/j100096a001)

    Deriv               =              1
    GGA                 =           TRUE
    Meta                =          FALSE

    Exchange Hybrid     =           TRUE
    MP2 Hybrid          =          FALSE

   => Exchange Functionals <=

    0.0800   Slater exchange
    0.7200         Becke 88

   => Exact (HF) Exchange <=

    0.2000               HF 

   => Correlation Functionals <=

    0.1900   Vosko, Wilk & Nusair (VWN5_RPA)
    0.8100   Lee, Yang & Parr

   => LibXC Density Thresholds  <==

    XC_HYB_GGA_XC_B3LYP:  1.00E-15 

   => Molecular Quadrature <=

    Radial Scheme          =       TREUTLER
    Pruning Scheme         =           NONE
    Nuclear Scheme         =       TREUTLER

    Blocking Scheme        =         OCTREE
    BS radius alpha        =              1
    Pruning alpha          =              1
    Radial Points          =             75
    Spherical Points       =            302
    Total Points           =          44144
    Total Blocks           =            391
    Max Points             =            255
    Max Functions          =             44
    Weights Tolerance      =       1.00E-15

   => Loading Basis Set <=

    Name: (CC-PVTZ AUX)
    Role: JKFIT
    Keyword: DF_BASIS_SCF
    atoms 1 entry O          line   229 file /Users/joseantoniorodriguesromero/anaconda3/share/psi4/basis/cc-pvtz-jkfit.gbs 
    atoms 2 entry H          line    51 file /Users/joseantoniorodriguesromero/anaconda3/share/psi4/basis/cc-pvtz-jkfit.gbs 

   => Loading Basis Set <=

    Name: CC-PVTZ
    Role: ORBITAL
    Keyword: BASIS
    atoms 1 entry O          line   262 file /Users/joseantoniorodriguesromero/anaconda3/share/psi4/basis/cc-pvtz.gbs 
    atoms 2 entry H          line    23 file /Users/joseantoniorodriguesromero/anaconda3/share/psi4/basis/cc-pvtz.gbs 

  Reading orbitals from file /tmp/scan_HO_23.default.50159.180.npy, no projection.

  ==> Integral Setup <==

  DFHelper Memory: AOs need 0.002 GiB; user supplied 0.312 GiB. 
  Using in-core AOs.

  ==> MemDFJK: Density-Fitted J/K Matrices <==

    J tasked:                   Yes
    K tasked:                   Yes
    wK tasked:                   No
    OpenMP threads:               1
    Memory [MiB]:               319
    Algorithm:                 Core
    Schwarz Cutoff:           1E-12
    Mask sparsity (%):       0.0000
    Fitting Condition:        1E-10

   => Auxiliary Basis Set <=

  Basis Set: (CC-PVTZ AUX)
    Blend: CC-PVTZ-JKFIT
    Number of shells: 35
    Number of basis functions: 109
    Number of Cartesian functions: 131
    Spherical Harmonics?: true
    Max angular momentum: 4

  Cached 100.0% of DFT collocation blocks in 0.055 [GiB].

  Minimum eigenvalue in the overlap matrix is 5.3601229787E-03.
  Reciprocal condition number of the overlap matrix is 1.3825125993E-03.
    Using symmetric orthogonalization.

  ==> Pre-Iterations <==

  SCF Guess: Orbitals guess was supplied from a previous computation.

   -------------------------------------------------------
    Irrep   Nso     Nmo     Nalpha   Nbeta   Ndocc  Nsocc
   -------------------------------------------------------
     A1        20      20       3       3       3       0
     A2         4       4       0       0       0       0
     B1        10      10       1       0       0       1
     B2        10      10       1       0       0       1
   -------------------------------------------------------
    Total      44      44       5       3       3       2
   -------------------------------------------------------

  ==> Iterations <==

                           Total Energy        Delta E     RMS |[F,P]|

   @DF-UKS iter   0:   -75.29447983831791   -7.52945e+01   1.32531e-03 
   @DF-UKS iter   1:   -75.28115527278138    1.33246e-02   2.49108e-04 DIIS/ADIIS
   @DF-UKS iter   2:   -75.28116484506511   -9.57228e-06   1.30905e-04 DIIS/ADIIS/DAMP=1%
   @DF-UKS iter   3:   -75.28123565300535   -7.08079e-05   2.94345e-05 DIIS/DAMP=1%
   @DF-UKS iter   4:   -75.28115459775756    8.10552e-05   3.69118e-06 DIIS/DAMP=1%
   @DF-UKS iter   5:   -75.28116969884226   -1.51011e-05   7.74266e-07 DIIS/DAMP=1%
   @DF-UKS iter   6:   -75.28116780105317    1.89779e-06   1.06092e-07 DIIS/DAMP=1%
   @DF-UKS iter   7:   -75.28116808002743   -2.78974e-07   5.99001e-09 DIIS/DAMP=1%
   @DF-UKS iter   8:   -75.28116804788118    3.21462e-08   5.28751e-10 DIIS/DAMP=1%
   @DF-UKS iter   9:   -75.28116804798047   -9.92912e-11   5.96928e-11 DIIS/DAMP=1%
  Energy and wave function converged.


  ==> Post-Iterations <==

   Electrons on quadrature grid:
      Nalpha   =    5.0000000073 ; deviation = 7.312e-09
      Nbeta    =    3.0000000164 ; deviation = 1.637e-08
      Ntotal   =    8.0000000237 ; deviation = 2.369e-08 

   @Spin Contamination Metric:   5.116460089E-03
   @S^2 Expected:                2.000000000E+00
   @S^2 Observed:                2.005116460E+00
   @S   Expected:                1.000000000E+00
   @S   Observed:                1.000000000E+00

    Orbital Energies [Eh]
    ---------------------

    Alpha Occupied:                                                       

       1A1   -19.816936     2A1    -1.561679     3A1    -0.976619  
       1B2    -0.946052     1B1    -0.946052  

    Alpha Virtual:                                                        

       4A1    -0.326941     5A1    -0.009034     2B2     0.133903  
       2B1     0.133903     6A1     0.173353     3B2     0.322676  
       3B1     0.322676     7A1     0.482106     8A1     0.800661  
       1A2     0.925201     9A1     0.925201     4B1     1.255734  
       4B2     1.255734    10A1     1.523966    11A1     1.942785  
      12A1     2.748921     2A2     2.748922     5B2     2.790105  
       5B1     2.790105    13A1     3.136636     6B2     3.168980  
       6B1     3.168980     7B2     3.514525     7B1     3.514525  
      14A1     3.656103    15A1     4.230344     8B2     4.504326  
       8B1     4.504326     3A2     4.729733    16A1     4.729733  
       4A2     5.530763    17A1     5.530764     9B2     5.559071  
       9B1     5.559071    18A1     5.696258    10B2     5.975573  
      10B1     5.975573    19A1     6.335888    20A1     9.013632  

    Beta Occupied:                                                        

       1A1   -19.760638     2A1    -1.407597     3A1    -0.923251  

    Beta Virtual:                                                         

       1B2    -0.643276     1B1    -0.643276     4A1    -0.310239  
       5A1    -0.003306     6A1     0.187663     2B2     0.199848  
       2B1     0.199848     3B2     0.337514     3B1     0.337514  
       7A1     0.537389     8A1     0.815640     9A1     1.037026  
       1A2     1.037026     4B1     1.309599     4B2     1.309599  
      10A1     1.552958    11A1     1.947949    12A1     2.754801  
       2A2     2.754802     5B2     2.864845     5B1     2.864845  
      13A1     3.148572     6B2     3.211367     6B1     3.211367  
       7B2     3.558026     7B1     3.558026    14A1     3.689762  
      15A1     4.286389     8B2     4.656423     8B1     4.656423  
      16A1     4.826859     3A2     4.826859     9B2     5.652935  
       9B1     5.652935     4A2     5.743727    17A1     5.743728  
      18A1     5.748269    10B2     6.054662    10B1     6.054662  
      19A1     6.403609    20A1     9.087251  

    Final Occupation by Irrep:
             A1    A2    B1    B2 
    DOCC [     3,    0,    0,    0 ]
    SOCC [     0,    0,    1,    1 ]
    NA   [     3,    0,    1,    1 ]
    NB   [     3,    0,    0,    0 ]

  @DF-UKS Final Energy:   -75.28116804798047

   => Energetics <=

    Nuclear Repulsion Energy =              4.0605830293008394
    One-Electron Energy =                -107.4106707666498153
    Two-Electron Energy =                  34.9333947982145503
    DFT Exchange-Correlation Energy =      -6.8644751088460492
    Empirical Dispersion Energy =           0.0000000000000000
    VV10 Nonlocal Energy =                  0.0000000000000000
    Total Energy =                        -75.2811680479804721

  UHF NO Occupations:
  HONO-2 :    3 A1 1.9981112
  HONO-1 :    1 B2 1.0000000
  HONO-0 :    1 B1 1.0000000
  LUNO+0 :    4 A1 0.0018888
  LUNO+1 :    5 A1 0.0006700
  LUNO+2 :    6 A1 0.0000014
  LUNO+3 :    7 A1 0.0000000


Computation Completed


Properties will be evaluated at   0.000000,   0.000000,   0.000000 [a0]

Properties computed using the SCF density matrix


 Multipole Moments:

 ------------------------------------------------------------------------------------
     Multipole            Electronic (a.u.)      Nuclear  (a.u.)        Total (a.u.)
 ------------------------------------------------------------------------------------

 L = 1.  Multiply by 2.5417464519 to convert [e a0] to [Debye]
 Dipole X            :          0.0000000            0.0000000            0.0000000
 Dipole Y            :          0.0000000            0.0000000            0.0000000
 Dipole Z            :         -0.0113581            0.9191420            0.9077839
 Magnitude           :                                                    0.9077839

 ------------------------------------------------------------------------------------

*** tstop() called on Mac.lan at Sun Aug 10 18:28:20 2025
Module time:
	user time   =       9.52 seconds =       0.16 minutes
	system time =       1.86 seconds =       0.03 minutes
	total time  =          1 seconds =       0.02 minutes
Total time:
	user time   =       9.52 seconds =       0.16 minutes
	system time =       1.86 seconds =       0.03 minutes
	total time  =          1 seconds =       0.02 minutes

*** tstart() called on Mac.lan
*** at Sun Aug 10 18:28:20 2025

   => Libint2 <=

    Primary   basis highest AM E, G, H:  6, 6, 3
    Auxiliary basis highest AM E, G, H:  7, 7, 4
    Onebody   basis highest AM E, G, H:  -, -, -
    Solid Harmonics ordering:            Gaussian
   => Loading Basis Set <=

    Name: CC-PVTZ
    Role: ORBITAL
    Keyword: BASIS
    atoms 1 entry O          line   262 file /Users/joseantoniorodriguesromero/anaconda3/share/psi4/basis/cc-pvtz.gbs 
    atoms 2 entry H          line    23 file /Users/joseantoniorodriguesromero/anaconda3/share/psi4/basis/cc-pvtz.gbs 


         ---------------------------------------------------------
                                   SCF
               by Justin Turney, Rob Parrish, Andy Simmonett
                          and Daniel G. A. Smith
                              UKS Reference
                        1 Threads,    500 MiB Core
         ---------------------------------------------------------

  ==> Geometry <==

    Molecular point group: c2v
    Full point group: C_inf_v

    Geometry (in Angstrom), charge = 1, multiplicity = 3:

       Center              X                  Y                   Z               Mass       
    ------------   -----------------  -----------------  -----------------  -----------------
         O            0.000000000000     0.000000000000    -0.061797223178    15.994914619570
         H            0.000000000000     0.000000000000     0.980766776822     1.007825032230

  Running in c2v symmetry.

  Rotational constants: A = ************  B =     16.35848  C =     16.35848 [cm^-1]
  Rotational constants: A = ************  B = 490414.82233  C = 490414.82233 [MHz]
  Nuclear repulsion =    4.060583029300839

  Charge       = 1
  Multiplicity = 3
  Electrons    = 8
  Nalpha       = 5
  Nbeta        = 3

  ==> Algorithm <==

  SCF Algorithm Type is DF.
  DIIS enabled.
  MOM disabled.
  Fractional occupation disabled.
  Guess Type is READ.
  Energy threshold   = 1.00e-08
  Density threshold  = 1.00e-08
  Integral threshold = 1.00e-12

  ==> Primary Basis <==

  Basis Set: CC-PVTZ
    Blend: CC-PVTZ
    Number of shells: 16
    Number of basis functions: 44
    Number of Cartesian functions: 50
    Spherical Harmonics?: true
    Max angular momentum: 3

  ==> DFT Potential <==

   => LibXC <=

    Version 6.2.2
    S. Lehtola, C. Steigemann, M. J.T. Oliveira, and M. A.L. Marques.,  SoftwareX 7, 1–5 (2018) (10.1016/j.softx.2017.11.002)

   => Composite Functional: B3LYP <= 

    B3LYP Hyb-GGA Exchange-Correlation Functional

    P. J. Stephens, F. J. Devlin, C. F. Chabalowski, and M. J. Frisch.,  J. Phys. Chem. 98, 11623 (1994) (10.1021/j100096a001)

    Deriv               =              1
    GGA                 =           TRUE
    Meta                =          FALSE

    Exchange Hybrid     =           TRUE
    MP2 Hybrid          =          FALSE

   => Exchange Functionals <=

    0.0800   Slater exchange
    0.7200         Becke 88

   => Exact (HF) Exchange <=

    0.2000               HF 

   => Correlation Functionals <=

    0.1900   Vosko, Wilk & Nusair (VWN5_RPA)
    0.8100   Lee, Yang & Parr

   => LibXC Density Thresholds  <==

    XC_HYB_GGA_XC_B3LYP:  1.00E-15 

   => Molecular Quadrature <=

    Radial Scheme          =       TREUTLER
    Pruning Scheme         =           NONE
    Nuclear Scheme         =       TREUTLER

    Blocking Scheme        =         OCTREE
    BS radius alpha        =              1
    Pruning alpha          =              1
    Radial Points          =             75
    Spherical Points       =            302
    Total Points           =          44144
    Total Blocks           =            391
    Max Points             =            255
    Max Functions          =             44
    Weights Tolerance      =       1.00E-15

   => Loading Basis Set <=

    Name: (CC-PVTZ AUX)
    Role: JKFIT
    Keyword: DF_BASIS_SCF
    atoms 1 entry O          line   229 file /Users/joseantoniorodriguesromero/anaconda3/share/psi4/basis/cc-pvtz-jkfit.gbs 
    atoms 2 entry H          line    51 file /Users/joseantoniorodriguesromero/anaconda3/share/psi4/basis/cc-pvtz-jkfit.gbs 

   => Loading Basis Set <=

    Name: CC-PVTZ
    Role: ORBITAL
    Keyword: BASIS
    atoms 1 entry O          line   262 file /Users/joseantoniorodriguesromero/anaconda3/share/psi4/basis/cc-pvtz.gbs 
    atoms 2 entry H          line    23 file /Users/joseantoniorodriguesromero/anaconda3/share/psi4/basis/cc-pvtz.gbs 

  Reading orbitals from file /tmp/scan_HO_23.default.50159.180.npy, no projection.

  ==> Integral Setup <==

  DFHelper Memory: AOs need 0.002 GiB; user supplied 0.312 GiB. 
  Using in-core AOs.

  ==> MemDFJK: Density-Fitted J/K Matrices <==

    J tasked:                   Yes
    K tasked:                   Yes
    wK tasked:                   No
    OpenMP threads:               1
    Memory [MiB]:               319
    Algorithm:                 Core
    Schwarz Cutoff:           1E-12
    Mask sparsity (%):       0.0000
    Fitting Condition:        1E-10

   => Auxiliary Basis Set <=

  Basis Set: (CC-PVTZ AUX)
    Blend: CC-PVTZ-JKFIT
    Number of shells: 35
    Number of basis functions: 109
    Number of Cartesian functions: 131
    Spherical Harmonics?: true
    Max angular momentum: 4

  Cached 100.0% of DFT collocation blocks in 0.055 [GiB].

  Minimum eigenvalue in the overlap matrix is 5.3601229787E-03.
  Reciprocal condition number of the overlap matrix is 1.3825125993E-03.
    Using symmetric orthogonalization.

  ==> Pre-Iterations <==

  SCF Guess: Orbitals guess was supplied from a previous computation.

   -------------------------------------------------------
    Irrep   Nso     Nmo     Nalpha   Nbeta   Ndocc  Nsocc
   -------------------------------------------------------
     A1        20      20       3       3       3       0
     A2         4       4       0       0       0       0
     B1        10      10       1       0       0       1
     B2        10      10       1       0       0       1
   -------------------------------------------------------
    Total      44      44       5       3       3       2
   -------------------------------------------------------

  ==> Iterations <==

                           Total Energy        Delta E     RMS |[F,P]|

   @DF-UKS iter   0:   -75.28116804788014   -7.52812e+01   3.97804e-12 
   @DF-UKS iter   1:   -75.28116804788004    9.94760e-14   1.43805e-12 DIIS
  Energy and wave function converged.


  ==> Post-Iterations <==

   Electrons on quadrature grid:
      Nalpha   =    5.0000000073 ; deviation = 7.312e-09
      Nbeta    =    3.0000000164 ; deviation = 1.637e-08
      Ntotal   =    8.0000000237 ; deviation = 2.369e-08 

   @Spin Contamination Metric:   5.116460079E-03
   @S^2 Expected:                2.000000000E+00
   @S^2 Observed:                2.005116460E+00
   @S   Expected:                1.000000000E+00
   @S   Observed:                1.000000000E+00

    Orbital Energies [Eh]
    ---------------------

    Alpha Occupied:                                                       

       1A1   -19.816936     2A1    -1.561679     3A1    -0.976619  
       1B2    -0.946052     1B1    -0.946052  

    Alpha Virtual:                                                        

       4A1    -0.326941     5A1    -0.009034     2B2     0.133903  
       2B1     0.133903     6A1     0.173353     3B2     0.322676  
       3B1     0.322676     7A1     0.482106     8A1     0.800661  
       1A2     0.925201     9A1     0.925201     4B1     1.255734  
       4B2     1.255734    10A1     1.523966    11A1     1.942785  
      12A1     2.748921     2A2     2.748922     5B2     2.790105  
       5B1     2.790105    13A1     3.136636     6B2     3.168980  
       6B1     3.168980     7B2     3.514525     7B1     3.514525  
      14A1     3.656103    15A1     4.230344     8B2     4.504326  
       8B1     4.504326     3A2     4.729733    16A1     4.729733  
       4A2     5.530763    17A1     5.530764     9B2     5.559071  
       9B1     5.559071    18A1     5.696258    10B2     5.975573  
      10B1     5.975573    19A1     6.335888    20A1     9.013632  

    Beta Occupied:                                                        

       1A1   -19.760638     2A1    -1.407597     3A1    -0.923251  

    Beta Virtual:                                                         

       1B2    -0.643276     1B1    -0.643276     4A1    -0.310239  
       5A1    -0.003306     6A1     0.187663     2B2     0.199848  
       2B1     0.199848     3B2     0.337514     3B1     0.337514  
       7A1     0.537389     8A1     0.815640     9A1     1.037026  
       1A2     1.037026     4B1     1.309599     4B2     1.309599  
      10A1     1.552958    11A1     1.947949    12A1     2.754801  
       2A2     2.754802     5B2     2.864845     5B1     2.864845  
      13A1     3.148572     6B2     3.211367     6B1     3.211367  
       7B2     3.558026     7B1     3.558026    14A1     3.689762  
      15A1     4.286389     8B2     4.656423     8B1     4.656423  
      16A1     4.826859     3A2     4.826859     9B2     5.652935  
       9B1     5.652935     4A2     5.743727    17A1     5.743728  
      18A1     5.748269    10B2     6.054662    10B1     6.054662  
      19A1     6.403609    20A1     9.087251  

    Final Occupation by Irrep:
             A1    A2    B1    B2 
    DOCC [     3,    0,    0,    0 ]
    SOCC [     0,    0,    1,    1 ]
    NA   [     3,    0,    1,    1 ]
    NB   [     3,    0,    0,    0 ]

  @DF-UKS Final Energy:   -75.28116804788004

   => Energetics <=

    Nuclear Repulsion Energy =              4.0605830293008394
    One-Electron Energy =                -107.4106707695448506
    Two-Electron Energy =                  34.9333948014954032
    DFT Exchange-Correlation Energy =      -6.8644751091314529
    Empirical Dispersion Energy =           0.0000000000000000
    VV10 Nonlocal Energy =                  0.0000000000000000
    Total Energy =                        -75.2811680478800582

  UHF NO Occupations:
  HONO-2 :    3 A1 1.9981112
  HONO-1 :    1 B2 1.0000000
  HONO-0 :    1 B1 1.0000000
  LUNO+0 :    4 A1 0.0018888
  LUNO+1 :    5 A1 0.0006700
  LUNO+2 :    6 A1 0.0000014
  LUNO+3 :    7 A1 0.0000000


Computation Completed


Properties will be evaluated at   0.000000,   0.000000,   0.000000 [a0]

Properties computed using the B3LYP density matrix


 Multipole Moments:

 ------------------------------------------------------------------------------------
     Multipole            Electronic (a.u.)      Nuclear  (a.u.)        Total (a.u.)
 ------------------------------------------------------------------------------------

 L = 1.  Multiply by 2.5417464519 to convert [e a0] to [Debye]
 Dipole X            :          0.0000000            0.0000000            0.0000000
 Dipole Y            :          0.0000000            0.0000000            0.0000000
 Dipole Z            :         -0.0113581            0.9191420            0.9077839
 Magnitude           :                                                    0.9077839

 L = 2.  Multiply by 1.3450342976 to convert [e a0^2] to [Debye ang]
 Quadrupole XX       :         -3.0474475            0.0000000           -3.0474475
 Quadrupole XY       :          0.0000000            0.0000000            0.0000000
 Quadrupole XZ       :          0.0000000            0.0000000            0.0000000
 Quadrupole YY       :         -3.0474475            0.0000000           -3.0474475
 Quadrupole YZ       :          0.0000000            0.0000000            0.0000000
 Quadrupole ZZ       :         -5.0311001            3.5441199           -1.4869802
 Traceless XX        :          0.6612175           -1.1813733           -0.5201558
 Traceless YY        :          0.6612175           -1.1813733           -0.5201558
 Traceless ZZ        :         -1.3224350            2.3627466            1.0403116

 ------------------------------------------------------------------------------------
  ==> Computing MBIS Charges <==

  Electron Count from Grid (Expected Number):  8.00000 ( 8.00000)
  Difference:  0.00000

  MBIS Charges: (a.u.)
   Center  Symbol  Z      Pop.       Charge
      1       O    8    7.521619    0.478381
      2       H    1    0.478381    0.521619

  MBIS Dipoles: [e a0]
   Center  Symbol  Z        X           Y           Z
      1       O    8   -0.000000    0.000000   -0.055677
      2       H    1   -0.000000    0.000000    0.052567

  MBIS Quadrupoles: [e a0^2]
   Center  Symbol  Z      XX        XY        XZ        YY        YZ        ZZ
      1       O    8   -2.8405    0.0000   -0.0000   -2.8405   -0.0000   -3.2977
      2       H    1   -0.2070   -0.0000    0.0000   -0.2070    0.0000   -0.1954

  MBIS Octupoles: [e a0^3]
   Center  Symbol  Z      XXX       XXY       XXZ       XYY       XYZ       XZZ       YYY       YYZ       YZZ       ZZZ
      1       O    8   -0.0000   -0.0000   -0.0328    0.0000   -0.0000   -0.0000   -0.0000   -0.0328   -0.0000   -0.1571
      2       H    1    0.0000    0.0000    0.0100    0.0000    0.0000   -0.0000    0.0000    0.0100    0.0000    0.0436

  MBIS Radial Moments:
   Center  Symbol  Z      [a0^2]      [a0^3]      [a0^4]      
      1       O    8    8.978670   15.308530   31.234923
      2       H    1    0.609358    0.968394    1.838323

  MBIS Valence Widths: [a0]
   Center  Symbol  Z     Width
      1       O    8    0.358458
      2       H    1    0.330177

*** tstop() called on Mac.lan at Sun Aug 10 18:28:21 2025
Module time:
	user time   =       2.99 seconds =       0.05 minutes
	system time =       1.62 seconds =       0.03 minutes
	total time  =          1 seconds =       0.02 minutes
Total time:
	user time   =      12.63 seconds =       0.21 minutes
	system time =       3.56 seconds =       0.06 minutes
	total time  =          2 seconds =       0.03 minutes

    Psi4 stopped on: Sunday, 10 August 2025 06:28PM
    Psi4 wall time for execution: 0:00:01.58

*** Psi4 exiting successfully. Buy a developer a beer!
