
    -----------------------------------------------------------------------
          Psi4: An Open-Source Ab Initio Electronic Structure Package
                               Psi4 1.9.1 release

                         Git: Rev {} zzzzzzz 


    D. G. A. Smith, L. A. Burns, A. C. Simmonett, R. M. Parrish,
    M. C. Schieber, R. Galvelis, P. Kraus, H. Kruse, R. Di Remigio,
    A. Alenaizan, A. M. James, S. Lehtola, J. P. Misiewicz, M. Scheurer,
    R. A. Shaw, J. B. Schriber, Y. Xie, Z. L. Glick, D. A. Sirianni,
    J. S. O'Brien, J. M. Waldrop, A. Kumar, E. G. Hohenstein,
    B. P. Pritchard, B. R. Brooks, H. F. Schaefer III, A. Yu. Sokolov,
    K. Patkowski, A. E. DePrince III, U. Bozkaya, R. A. King,
    F. A. Evangelista, J. M. Turney, T. D. Crawford, C. D. Sherrill,
    J. Chem. Phys. 152(18) 184108 (2020). https://doi.org/10.1063/5.0006002

                            Additional Code Authors
    E. T. Seidl, C. L. Janssen, E. F. Valeev, M. L. Leininger,
    J. F. Gonthier, R. M. Richard, H. R. McAlexander, M. Saitow, X. Wang,
    P. Verma, M. H. Lechner, A. Jiang, S. Behnle, A. G. Heide,
    M. F. Herbst, and D. L. Poole

             Previous Authors, Complete List of Code Contributors,
                       and Citations for Specific Modules
    https://github.com/psi4/psi4/blob/master/codemeta.json
    https://github.com/psi4/psi4/graphs/contributors
    http://psicode.org/psi4manual/master/introduction.html#citing-psifour

    -----------------------------------------------------------------------


    Psi4 started on: Sunday, 10 August 2025 06:38PM

    Process ID: 50486
    Host:       Mac.lan
    PSIDATADIR: /Users/joseantoniorodriguesromero/anaconda3/share/psi4
    Memory:     500.0 MiB
    Threads:    1
    
  ==> Input File <==

--------------------------------------------------------------------------
molecule { 
1 2
O           0.000000           0.000000           0.000000
C           0.000000           0.000000           1.542661
}

set { 
basis              cc-pvtz
reference          uks
maxiter            500
DAMPING_PERCENTAGE 1
E_CONVERGENCE      1.0E-8
D_CONVERGENCE      1.0E-8
DIIS_MAX_VECS      400
MBIS_MAXITER       8000
guess              read
}

E, wfn = energy('b3lyp', restart_file='last_wfn', return_wfn=True)
properties('b3lyp','MBIS_CHARGES', wfn=wfn)
wfn.to_file('last_wfn')
--------------------------------------------------------------------------

Scratch directory: /tmp/
 Found user provided orbital data. Setting orbital guess to READ 
 Copying restart file <last_wfn.npy> to </tmp/scan_CO_44.default.50486.180.npy> for internal processing
   => Libint2 <=

    Primary   basis highest AM E, G, H:  6, 6, 3
    Auxiliary basis highest AM E, G, H:  7, 7, 4
    Onebody   basis highest AM E, G, H:  -, -, -
    Solid Harmonics ordering:            Gaussian

*** tstart() called on Mac.lan
*** at Sun Aug 10 18:38:41 2025

   => Loading Basis Set <=

    Name: CC-PVTZ
    Role: ORBITAL
    Keyword: BASIS
    atoms 1 entry O          line   262 file /Users/joseantoniorodriguesromero/anaconda3/share/psi4/basis/cc-pvtz.gbs 
    atoms 2 entry C          line   186 file /Users/joseantoniorodriguesromero/anaconda3/share/psi4/basis/cc-pvtz.gbs 


         ---------------------------------------------------------
                                   SCF
               by Justin Turney, Rob Parrish, Andy Simmonett
                          and Daniel G. A. Smith
                              UKS Reference
                        1 Threads,    500 MiB Core
         ---------------------------------------------------------

  ==> Geometry <==

    Molecular point group: c2v
    Full point group: C_inf_v

    Geometry (in Angstrom), charge = 1, multiplicity = 2:

       Center              X                  Y                   Z               Mass       
    ------------   -----------------  -----------------  -----------------  -----------------
         O            0.000000000000     0.000000000000    -0.661260527191    15.994914619570
         C            0.000000000000     0.000000000000     0.881400472809    12.000000000000

  Running in c2v symmetry.

  Rotational constants: A = ************  B =      1.03317  C =      1.03317 [cm^-1]
  Rotational constants: A = ************  B =  30973.63483  C =  30973.63483 [MHz]
  Nuclear repulsion =   16.465384236821958

  Charge       = 1
  Multiplicity = 2
  Electrons    = 13
  Nalpha       = 7
  Nbeta        = 6

  ==> Algorithm <==

  SCF Algorithm Type is DF.
  DIIS enabled.
  MOM disabled.
  Fractional occupation disabled.
  Guess Type is READ.
  Energy threshold   = 1.00e-08
  Density threshold  = 1.00e-08
  Integral threshold = 1.00e-12

  ==> Primary Basis <==

  Basis Set: CC-PVTZ
    Blend: CC-PVTZ
    Number of shells: 20
    Number of basis functions: 60
    Number of Cartesian functions: 70
    Spherical Harmonics?: true
    Max angular momentum: 3

  ==> DFT Potential <==

   => LibXC <=

    Version 6.2.2
    S. Lehtola, C. Steigemann, M. J.T. Oliveira, and M. A.L. Marques.,  SoftwareX 7, 1–5 (2018) (10.1016/j.softx.2017.11.002)

   => Composite Functional: B3LYP <= 

    B3LYP Hyb-GGA Exchange-Correlation Functional

    P. J. Stephens, F. J. Devlin, C. F. Chabalowski, and M. J. Frisch.,  J. Phys. Chem. 98, 11623 (1994) (10.1021/j100096a001)

    Deriv               =              1
    GGA                 =           TRUE
    Meta                =          FALSE

    Exchange Hybrid     =           TRUE
    MP2 Hybrid          =          FALSE

   => Exchange Functionals <=

    0.0800   Slater exchange
    0.7200         Becke 88

   => Exact (HF) Exchange <=

    0.2000               HF 

   => Correlation Functionals <=

    0.1900   Vosko, Wilk & Nusair (VWN5_RPA)
    0.8100   Lee, Yang & Parr

   => LibXC Density Thresholds  <==

    XC_HYB_GGA_XC_B3LYP:  1.00E-15 

   => Molecular Quadrature <=

    Radial Scheme          =       TREUTLER
    Pruning Scheme         =           NONE
    Nuclear Scheme         =       TREUTLER

    Blocking Scheme        =         OCTREE
    BS radius alpha        =              1
    Pruning alpha          =              1
    Radial Points          =             75
    Spherical Points       =            302
    Total Points           =          43331
    Total Blocks           =            389
    Max Points             =            254
    Max Functions          =             60
    Weights Tolerance      =       1.00E-15

   => Loading Basis Set <=

    Name: (CC-PVTZ AUX)
    Role: JKFIT
    Keyword: DF_BASIS_SCF
    atoms 1 entry O          line   229 file /Users/joseantoniorodriguesromero/anaconda3/share/psi4/basis/cc-pvtz-jkfit.gbs 
    atoms 2 entry C          line   125 file /Users/joseantoniorodriguesromero/anaconda3/share/psi4/basis/cc-pvtz-jkfit.gbs 

   => Loading Basis Set <=

    Name: CC-PVTZ
    Role: ORBITAL
    Keyword: BASIS
    atoms 1 entry O          line   262 file /Users/joseantoniorodriguesromero/anaconda3/share/psi4/basis/cc-pvtz.gbs 
    atoms 2 entry C          line   186 file /Users/joseantoniorodriguesromero/anaconda3/share/psi4/basis/cc-pvtz.gbs 

  Reading orbitals from file /tmp/scan_CO_44.default.50486.180.npy, no projection.

  ==> Integral Setup <==

  DFHelper Memory: AOs need 0.005 GiB; user supplied 0.295 GiB. 
  Using in-core AOs.

  ==> MemDFJK: Density-Fitted J/K Matrices <==

    J tasked:                   Yes
    K tasked:                   Yes
    wK tasked:                   No
    OpenMP threads:               1
    Memory [MiB]:               302
    Algorithm:                 Core
    Schwarz Cutoff:           1E-12
    Mask sparsity (%):       0.0000
    Fitting Condition:        1E-10

   => Auxiliary Basis Set <=

  Basis Set: (CC-PVTZ AUX)
    Blend: CC-PVTZ-JKFIT
    Number of shells: 50
    Number of basis functions: 158
    Number of Cartesian functions: 192
    Spherical Harmonics?: true
    Max angular momentum: 4

  Cached 100.0% of DFT collocation blocks in 0.071 [GiB].

  Minimum eigenvalue in the overlap matrix is 8.8205779856E-03.
  Reciprocal condition number of the overlap matrix is 2.4503806242E-03.
    Using symmetric orthogonalization.

  ==> Pre-Iterations <==

  SCF Guess: Orbitals guess was supplied from a previous computation.

   -------------------------------------------------------
    Irrep   Nso     Nmo     Nalpha   Nbeta   Ndocc  Nsocc
   -------------------------------------------------------
     A1        26      26       5       4       4       1
     A2         6       6       0       0       0       0
     B1        14      14       1       1       1       0
     B2        14      14       1       1       1       0
   -------------------------------------------------------
    Total      60      60       7       6       6       1
   -------------------------------------------------------

  ==> Iterations <==

                           Total Energy        Delta E     RMS |[F,P]|

   @DF-UKS iter   0:  -112.64297497525001   -1.12643e+02   1.01213e-03 
   @DF-UKS iter   1:  -112.66721049672442   -2.42355e-02   6.54134e-04 ADIIS/DIIS
   @DF-UKS iter   2:  -112.66299570120958    4.21480e-03   3.15589e-03 ADIIS/DIIS/DAMP=1%
   @DF-UKS iter   3:  -112.66585386616572   -2.85816e-03   2.27533e-04 ADIIS/DIIS/DAMP=1%
   @DF-UKS iter   4:  -112.66742842566404   -1.57456e-03   5.04262e-05 DIIS/DAMP=1%
   @DF-UKS iter   5:  -112.66738623745978    4.21882e-05   3.31844e-05 DIIS/DAMP=1%
   @DF-UKS iter   6:  -112.66743822896690   -5.19915e-05   1.16984e-05 DIIS/DAMP=1%
   @DF-UKS iter   7:  -112.66742397056099    1.42584e-05   1.15439e-05 DIIS/DAMP=1%
   @DF-UKS iter   8:  -112.66743011926800   -6.14871e-06   1.16858e-05 DIIS/DAMP=1%
   @DF-UKS iter   9:  -112.66751502264961   -8.49034e-05   1.51542e-04 ADIIS/DIIS/DAMP=1%
   @DF-UKS iter  10:  -112.66744816308085    6.68596e-05   1.62378e-04 ADIIS/DIIS/DAMP=1%
   @DF-UKS iter  11:  -112.66735644316168    9.17199e-05   2.94288e-05 DIIS/DAMP=1%
   @DF-UKS iter  12:  -112.66748151786452   -1.25075e-04   3.06212e-05 DIIS/DAMP=1%
   @DF-UKS iter  13:  -112.66745050002106    3.10178e-05   2.26011e-05 DIIS/DAMP=1%
   @DF-UKS iter  14:  -112.66744209734347    8.40268e-06   3.72954e-06 DIIS/DAMP=1%
   @DF-UKS iter  15:  -112.66745695656307   -1.48592e-05   3.56161e-06 DIIS/DAMP=1%
   @DF-UKS iter  16:  -112.66745301097845    3.94558e-06   2.15395e-06 DIIS/DAMP=1%
   @DF-UKS iter  17:  -112.66745292286788    8.81106e-08   3.54007e-07 DIIS/DAMP=1%
   @DF-UKS iter  18:  -112.66745336196421   -4.39096e-07   6.80363e-08 DIIS/DAMP=1%
   @DF-UKS iter  19:  -112.66745332384377    3.81204e-08   2.82195e-08 DIIS/DAMP=1%
   @DF-UKS iter  20:  -112.66745329337418    3.04696e-08   1.06294e-08 DIIS/DAMP=1%
   @DF-UKS iter  21:  -112.66745332372710   -3.03529e-08   2.13282e-08 DIIS/DAMP=1%
   @DF-UKS iter  22:  -112.66745334034891   -1.66218e-08   5.08045e-09 DIIS/DAMP=1%
   @DF-UKS iter  23:  -112.66745333863541    1.71350e-09   6.54298e-10 DIIS/DAMP=1%
  Energy and wave function converged.


  ==> Post-Iterations <==

   Electrons on quadrature grid:
      Nalpha   =    6.9999994564 ; deviation = -5.436e-07
      Nbeta    =    5.9999994357 ; deviation = -5.643e-07
      Ntotal   =   12.9999988921 ; deviation = -1.108e-06 

   @Spin Contamination Metric:   1.684862173E-02
   @S^2 Expected:                7.500000000E-01
   @S^2 Observed:                7.668486217E-01
   @S   Expected:                5.000000000E-01
   @S   Observed:                5.000000000E-01

    Orbital Energies [Eh]
    ---------------------

    Alpha Occupied:                                                       

       1A1   -19.667239     2A1   -10.864050     3A1    -1.393861  
       4A1    -1.004095     5A1    -0.830454     1B2    -0.757322  
       1B1    -0.757322  

    Alpha Virtual:                                                        

       2B2    -0.530982     2B1    -0.530982     6A1    -0.337295  
       7A1    -0.013269     3B1     0.009514     3B2     0.009514  
       8A1     0.010512     9A1     0.245491     4B1     0.288933  
       4B2     0.288933     1A2     0.308103    10A1     0.308103  
       5B1     0.415494     5B2     0.415494    11A1     0.630078  
      12A1     0.880945    13A1     1.116871     2A2     1.116871  
       6B1     1.264535     6B2     1.264535    14A1     1.456146  
       7B1     1.573937     7B2     1.573937    15A1     1.856714  
       8B2     2.243783     8B1     2.243783     3A2     2.264435  
      16A1     2.264435     9B1     2.399786     9B2     2.399786  
      17A1     2.427049     4A2     2.476237    18A1     2.476238  
      10B1     2.659764    10B2     2.659764    19A1     2.732897  
      20A1     3.276656    11B1     3.303952    11B2     3.303952  
      21A1     4.438886    12B1     4.720260    12B2     4.720260  
      22A1     4.756535     5A2     4.756537    13B2     5.010020  
      13B1     5.010020    23A1     5.414005     6A2     5.776387  
      24A1     5.776441    14B1     6.079139    14B2     6.079139  
      25A1     6.697422    26A1     7.904727  

    Beta Occupied:                                                        

       1A1   -19.651984     2A1   -10.854153     3A1    -1.352947  
       4A1    -0.943562     1B2    -0.740766     1B1    -0.740766  

    Beta Virtual:                                                         

       5A1    -0.653767     2B1    -0.514672     2B2    -0.514672  
       6A1    -0.278219     7A1    -0.001322     3B1     0.011336  
       3B2     0.011336     8A1     0.037931     9A1     0.268096  
       4B1     0.301569     4B2     0.301569    10A1     0.310599  
       1A2     0.310599     5B1     0.434990     5B2     0.434990  
      11A1     0.663692    12A1     0.903433    13A1     1.124459  
       2A2     1.124460     6B1     1.293723     6B2     1.293723  
      14A1     1.497041     7B1     1.580979     7B2     1.580979  
      15A1     1.896485     8B2     2.246288     8B1     2.246288  
       3A2     2.281519    16A1     2.281519     9B2     2.420789  
       9B1     2.420789    17A1     2.471588     4A2     2.485345  
      18A1     2.485345    10B1     2.716217    10B2     2.716217  
      19A1     2.802940    20A1     3.317877    11B1     3.319420  
      11B2     3.319420    21A1     4.473846    12B1     4.726277  
      12B2     4.726277    22A1     4.782942     5A2     4.782942  
      13B2     5.050860    13B1     5.050860    23A1     5.476506  
       6A2     5.790048    24A1     5.790103    14B1     6.134465  
      14B2     6.134465    25A1     6.763147    26A1     7.924542  

    Final Occupation by Irrep:
             A1    A2    B1    B2 
    DOCC [     4,    0,    1,    1 ]
    SOCC [     1,    0,    0,    0 ]
    NA   [     5,    0,    1,    1 ]
    NB   [     4,    0,    1,    1 ]

  @DF-UKS Final Energy:  -112.66745333863541

   => Energetics <=

    Nuclear Repulsion Energy =             16.4653842368219578
    One-Electron Energy =                -180.9943628152775545
    Two-Electron Energy =                  62.5676491648167641
    DFT Exchange-Correlation Energy =     -10.7061239249965929
    Empirical Dispersion Energy =           0.0000000000000000
    VV10 Nonlocal Energy =                  0.0000000000000000
    Total Energy =                       -112.6674533386354113

  UHF NO Occupations:
  HONO-2 :    1 B2 1.9992052
  HONO-1 :    4 A1 1.9933003
  HONO-0 :    5 A1 1.0000000
  LUNO+0 :    6 A1 0.0066997
  LUNO+1 :    2 B1 0.0007948
  LUNO+2 :    2 B2 0.0007948
  LUNO+3 :    7 A1 0.0001576


Computation Completed


Properties will be evaluated at   0.000000,   0.000000,   0.000000 [a0]

Properties computed using the SCF density matrix


 Multipole Moments:

 ------------------------------------------------------------------------------------
     Multipole            Electronic (a.u.)      Nuclear  (a.u.)        Total (a.u.)
 ------------------------------------------------------------------------------------

 L = 1.  Multiply by 2.5417464519 to convert [e a0] to [Debye]
 Dipole X            :          0.0000000            0.0000000            0.0000000
 Dipole Y            :          0.0000000            0.0000000            0.0000000
 Dipole Z            :          1.2140514           -0.0031773            1.2108740
 Magnitude           :                                                    1.2108740

 ------------------------------------------------------------------------------------

*** tstop() called on Mac.lan at Sun Aug 10 18:38:46 2025
Module time:
	user time   =      50.52 seconds =       0.84 minutes
	system time =       3.38 seconds =       0.06 minutes
	total time  =          5 seconds =       0.08 minutes
Total time:
	user time   =      50.52 seconds =       0.84 minutes
	system time =       3.38 seconds =       0.06 minutes
	total time  =          5 seconds =       0.08 minutes

*** tstart() called on Mac.lan
*** at Sun Aug 10 18:38:46 2025

   => Libint2 <=

    Primary   basis highest AM E, G, H:  6, 6, 3
    Auxiliary basis highest AM E, G, H:  7, 7, 4
    Onebody   basis highest AM E, G, H:  -, -, -
    Solid Harmonics ordering:            Gaussian
   => Loading Basis Set <=

    Name: CC-PVTZ
    Role: ORBITAL
    Keyword: BASIS
    atoms 1 entry O          line   262 file /Users/joseantoniorodriguesromero/anaconda3/share/psi4/basis/cc-pvtz.gbs 
    atoms 2 entry C          line   186 file /Users/joseantoniorodriguesromero/anaconda3/share/psi4/basis/cc-pvtz.gbs 


         ---------------------------------------------------------
                                   SCF
               by Justin Turney, Rob Parrish, Andy Simmonett
                          and Daniel G. A. Smith
                              UKS Reference
                        1 Threads,    500 MiB Core
         ---------------------------------------------------------

  ==> Geometry <==

    Molecular point group: c2v
    Full point group: C_inf_v

    Geometry (in Angstrom), charge = 1, multiplicity = 2:

       Center              X                  Y                   Z               Mass       
    ------------   -----------------  -----------------  -----------------  -----------------
         O            0.000000000000     0.000000000000    -0.661260527191    15.994914619570
         C            0.000000000000     0.000000000000     0.881400472809    12.000000000000

  Running in c2v symmetry.

  Rotational constants: A = ************  B =      1.03317  C =      1.03317 [cm^-1]
  Rotational constants: A = ************  B =  30973.63483  C =  30973.63483 [MHz]
  Nuclear repulsion =   16.465384236821958

  Charge       = 1
  Multiplicity = 2
  Electrons    = 13
  Nalpha       = 7
  Nbeta        = 6

  ==> Algorithm <==

  SCF Algorithm Type is DF.
  DIIS enabled.
  MOM disabled.
  Fractional occupation disabled.
  Guess Type is READ.
  Energy threshold   = 1.00e-08
  Density threshold  = 1.00e-08
  Integral threshold = 1.00e-12

  ==> Primary Basis <==

  Basis Set: CC-PVTZ
    Blend: CC-PVTZ
    Number of shells: 20
    Number of basis functions: 60
    Number of Cartesian functions: 70
    Spherical Harmonics?: true
    Max angular momentum: 3

  ==> DFT Potential <==

   => LibXC <=

    Version 6.2.2
    S. Lehtola, C. Steigemann, M. J.T. Oliveira, and M. A.L. Marques.,  SoftwareX 7, 1–5 (2018) (10.1016/j.softx.2017.11.002)

   => Composite Functional: B3LYP <= 

    B3LYP Hyb-GGA Exchange-Correlation Functional

    P. J. Stephens, F. J. Devlin, C. F. Chabalowski, and M. J. Frisch.,  J. Phys. Chem. 98, 11623 (1994) (10.1021/j100096a001)

    Deriv               =              1
    GGA                 =           TRUE
    Meta                =          FALSE

    Exchange Hybrid     =           TRUE
    MP2 Hybrid          =          FALSE

   => Exchange Functionals <=

    0.0800   Slater exchange
    0.7200         Becke 88

   => Exact (HF) Exchange <=

    0.2000               HF 

   => Correlation Functionals <=

    0.1900   Vosko, Wilk & Nusair (VWN5_RPA)
    0.8100   Lee, Yang & Parr

   => LibXC Density Thresholds  <==

    XC_HYB_GGA_XC_B3LYP:  1.00E-15 

   => Molecular Quadrature <=

    Radial Scheme          =       TREUTLER
    Pruning Scheme         =           NONE
    Nuclear Scheme         =       TREUTLER

    Blocking Scheme        =         OCTREE
    BS radius alpha        =              1
    Pruning alpha          =              1
    Radial Points          =             75
    Spherical Points       =            302
    Total Points           =          43331
    Total Blocks           =            389
    Max Points             =            254
    Max Functions          =             60
    Weights Tolerance      =       1.00E-15

   => Loading Basis Set <=

    Name: (CC-PVTZ AUX)
    Role: JKFIT
    Keyword: DF_BASIS_SCF
    atoms 1 entry O          line   229 file /Users/joseantoniorodriguesromero/anaconda3/share/psi4/basis/cc-pvtz-jkfit.gbs 
    atoms 2 entry C          line   125 file /Users/joseantoniorodriguesromero/anaconda3/share/psi4/basis/cc-pvtz-jkfit.gbs 

   => Loading Basis Set <=

    Name: CC-PVTZ
    Role: ORBITAL
    Keyword: BASIS
    atoms 1 entry O          line   262 file /Users/joseantoniorodriguesromero/anaconda3/share/psi4/basis/cc-pvtz.gbs 
    atoms 2 entry C          line   186 file /Users/joseantoniorodriguesromero/anaconda3/share/psi4/basis/cc-pvtz.gbs 

  Reading orbitals from file /tmp/scan_CO_44.default.50486.180.npy, no projection.

  ==> Integral Setup <==

  DFHelper Memory: AOs need 0.005 GiB; user supplied 0.295 GiB. 
  Using in-core AOs.

  ==> MemDFJK: Density-Fitted J/K Matrices <==

    J tasked:                   Yes
    K tasked:                   Yes
    wK tasked:                   No
    OpenMP threads:               1
    Memory [MiB]:               302
    Algorithm:                 Core
    Schwarz Cutoff:           1E-12
    Mask sparsity (%):       0.0000
    Fitting Condition:        1E-10

   => Auxiliary Basis Set <=

  Basis Set: (CC-PVTZ AUX)
    Blend: CC-PVTZ-JKFIT
    Number of shells: 50
    Number of basis functions: 158
    Number of Cartesian functions: 192
    Spherical Harmonics?: true
    Max angular momentum: 4

  Cached 100.0% of DFT collocation blocks in 0.071 [GiB].

  Minimum eigenvalue in the overlap matrix is 8.8205779856E-03.
  Reciprocal condition number of the overlap matrix is 2.4503806242E-03.
    Using symmetric orthogonalization.

  ==> Pre-Iterations <==

  SCF Guess: Orbitals guess was supplied from a previous computation.

   -------------------------------------------------------
    Irrep   Nso     Nmo     Nalpha   Nbeta   Ndocc  Nsocc
   -------------------------------------------------------
     A1        26      26       5       4       4       1
     A2         6       6       0       0       0       0
     B1        14      14       1       1       1       0
     B2        14      14       1       1       1       0
   -------------------------------------------------------
    Total      60      60       7       6       6       1
   -------------------------------------------------------

  ==> Iterations <==

                           Total Energy        Delta E     RMS |[F,P]|

   @DF-UKS iter   0:  -112.66745333528529   -1.12667e+02   7.11943e-10 
   @DF-UKS iter   1:  -112.66745333528520    8.52651e-14   8.95704e-10 DIIS
  Energy and wave function converged.


  ==> Post-Iterations <==

   Electrons on quadrature grid:
      Nalpha   =    6.9999994564 ; deviation = -5.436e-07
      Nbeta    =    5.9999994357 ; deviation = -5.643e-07
      Ntotal   =   12.9999988921 ; deviation = -1.108e-06 

   @Spin Contamination Metric:   1.684859232E-02
   @S^2 Expected:                7.500000000E-01
   @S^2 Observed:                7.668485923E-01
   @S   Expected:                5.000000000E-01
   @S   Observed:                5.000000000E-01

    Orbital Energies [Eh]
    ---------------------

    Alpha Occupied:                                                       

       1A1   -19.667239     2A1   -10.864050     3A1    -1.393861  
       4A1    -1.004095     5A1    -0.830454     1B2    -0.757322  
       1B1    -0.757322  

    Alpha Virtual:                                                        

       2B2    -0.530982     2B1    -0.530982     6A1    -0.337295  
       7A1    -0.013269     3B1     0.009514     3B2     0.009514  
       8A1     0.010512     9A1     0.245491     4B1     0.288933  
       4B2     0.288933     1A2     0.308103    10A1     0.308103  
       5B1     0.415494     5B2     0.415494    11A1     0.630078  
      12A1     0.880945    13A1     1.116871     2A2     1.116871  
       6B1     1.264535     6B2     1.264535    14A1     1.456146  
       7B1     1.573937     7B2     1.573937    15A1     1.856714  
       8B2     2.243783     8B1     2.243783     3A2     2.264435  
      16A1     2.264435     9B2     2.399786     9B1     2.399786  
      17A1     2.427049     4A2     2.476237    18A1     2.476238  
      10B1     2.659764    10B2     2.659764    19A1     2.732897  
      20A1     3.276656    11B1     3.303952    11B2     3.303952  
      21A1     4.438886    12B1     4.720260    12B2     4.720260  
      22A1     4.756535     5A2     4.756537    13B2     5.010020  
      13B1     5.010020    23A1     5.414005     6A2     5.776387  
      24A1     5.776441    14B1     6.079139    14B2     6.079139  
      25A1     6.697422    26A1     7.904727  

    Beta Occupied:                                                        

       1A1   -19.651984     2A1   -10.854153     3A1    -1.352947  
       4A1    -0.943561     1B2    -0.740766     1B1    -0.740766  

    Beta Virtual:                                                         

       5A1    -0.653767     2B2    -0.514672     2B1    -0.514672  
       6A1    -0.278219     7A1    -0.001322     3B1     0.011336  
       3B2     0.011336     8A1     0.037931     9A1     0.268096  
       4B1     0.301569     4B2     0.301569    10A1     0.310599  
       1A2     0.310599     5B1     0.434990     5B2     0.434990  
      11A1     0.663692    12A1     0.903433    13A1     1.124459  
       2A2     1.124460     6B1     1.293723     6B2     1.293723  
      14A1     1.497041     7B1     1.580979     7B2     1.580979  
      15A1     1.896485     8B2     2.246288     8B1     2.246288  
       3A2     2.281519    16A1     2.281519     9B1     2.420789  
       9B2     2.420789    17A1     2.471588     4A2     2.485345  
      18A1     2.485345    10B1     2.716217    10B2     2.716217  
      19A1     2.802940    20A1     3.317877    11B1     3.319420  
      11B2     3.319420    21A1     4.473846    12B1     4.726277  
      12B2     4.726277    22A1     4.782942     5A2     4.782942  
      13B2     5.050860    13B1     5.050860    23A1     5.476506  
       6A2     5.790048    24A1     5.790103    14B1     6.134465  
      14B2     6.134465    25A1     6.763147    26A1     7.924542  

    Final Occupation by Irrep:
             A1    A2    B1    B2 
    DOCC [     4,    0,    1,    1 ]
    SOCC [     1,    0,    0,    0 ]
    NA   [     5,    0,    1,    1 ]
    NB   [     4,    0,    1,    1 ]

  @DF-UKS Final Energy:  -112.66745333528520

   => Energetics <=

    Nuclear Repulsion Energy =             16.4653842368219578
    One-Electron Energy =                -180.9943627273247557
    Two-Electron Energy =                  62.5676490982940692
    DFT Exchange-Correlation Energy =     -10.7061239430764719
    Empirical Dispersion Energy =           0.0000000000000000
    VV10 Nonlocal Energy =                  0.0000000000000000
    Total Energy =                       -112.6674533352852023

  UHF NO Occupations:
  HONO-2 :    1 B1 1.9992052
  HONO-1 :    4 A1 1.9933003
  HONO-0 :    5 A1 1.0000000
  LUNO+0 :    6 A1 0.0066997
  LUNO+1 :    2 B2 0.0007948
  LUNO+2 :    2 B1 0.0007948
  LUNO+3 :    7 A1 0.0001576


Computation Completed


Properties will be evaluated at   0.000000,   0.000000,   0.000000 [a0]

Properties computed using the B3LYP density matrix


 Multipole Moments:

 ------------------------------------------------------------------------------------
     Multipole            Electronic (a.u.)      Nuclear  (a.u.)        Total (a.u.)
 ------------------------------------------------------------------------------------

 L = 1.  Multiply by 2.5417464519 to convert [e a0] to [Debye]
 Dipole X            :          0.0000000            0.0000000            0.0000000
 Dipole Y            :          0.0000000            0.0000000            0.0000000
 Dipole Z            :          1.2140517           -0.0031773            1.2108743
 Magnitude           :                                                    1.2108743

 L = 2.  Multiply by 1.3450342976 to convert [e a0^2] to [Debye ang]
 Quadrupole XX       :         -6.5979161            0.0000000           -6.5979161
 Quadrupole XY       :          0.0000000            0.0000000            0.0000000
 Quadrupole XZ       :          0.0000000            0.0000000            0.0000000
 Quadrupole YY       :         -6.5979161            0.0000000           -6.5979161
 Quadrupole YZ       :          0.0000000            0.0000000            0.0000000
 Quadrupole ZZ       :        -31.6469104           29.1374773           -2.5094332
 Traceless XX        :          8.3496648           -9.7124924           -1.3628276
 Traceless YY        :          8.3496648           -9.7124924           -1.3628276
 Traceless ZZ        :        -16.6993295           19.4249848            2.7256553

 ------------------------------------------------------------------------------------
  ==> Computing MBIS Charges <==

  Electron Count from Grid (Expected Number): 13.00000 (13.00000)
  Difference: -0.00000

  MBIS Charges: (a.u.)
   Center  Symbol  Z      Pop.       Charge
      1       O    8    7.915912    0.084088
      2       C    6    5.084087    0.915913

  MBIS Dipoles: [e a0]
   Center  Symbol  Z        X           Y           Z
      1       O    8   -0.000000   -0.000000   -0.356555
      2       C    6   -0.000000    0.000000    0.146954

  MBIS Quadrupoles: [e a0^2]
   Center  Symbol  Z      XX        XY        XZ        YY        YZ        ZZ
      1       O    8   -3.6988   -0.0000   -0.0000   -3.6988    0.0000   -3.5009
      2       C    6   -2.8991    0.0000    0.0000   -2.8991    0.0000   -3.0615

  MBIS Octupoles: [e a0^3]
   Center  Symbol  Z      XXX       XXY       XXZ       XYY       XYZ       XZZ       YYY       YYZ       YZZ       ZZZ
      1       O    8   -0.0000    0.0000   -0.3366   -0.0000    0.0000   -0.0000   -0.0000   -0.3366   -0.0000   -1.0427
      2       C    6   -0.0000   -0.0000    0.3420    0.0000    0.0000    0.0000    0.0000    0.3420    0.0000    0.6653

  MBIS Radial Moments:
   Center  Symbol  Z      [a0^2]      [a0^3]      [a0^4]      
      1       O    8   10.898477   20.098511   44.298606
      2       C    6    8.859693   19.275400   49.892862

  MBIS Valence Widths: [a0]
   Center  Symbol  Z     Width
      1       O    8    0.382391
      2       C    6    0.469929

*** tstop() called on Mac.lan at Sun Aug 10 18:38:47 2025
Module time:
	user time   =       8.99 seconds =       0.15 minutes
	system time =       2.02 seconds =       0.03 minutes
	total time  =          1 seconds =       0.02 minutes
Total time:
	user time   =      59.54 seconds =       0.99 minutes
	system time =       5.55 seconds =       0.09 minutes
	total time  =          6 seconds =       0.10 minutes

    Psi4 stopped on: Sunday, 10 August 2025 06:38PM
    Psi4 wall time for execution: 0:00:06.48

*** Psi4 exiting successfully. Buy a developer a beer!
