
    -----------------------------------------------------------------------
          Psi4: An Open-Source Ab Initio Electronic Structure Package
                               Psi4 1.9.1 release

                         Git: Rev {} zzzzzzz 


    D. G. A. Smith, L. A. Burns, A. C. Simmonett, R. M. Parrish,
    M. C. Schieber, R. Galvelis, P. Kraus, H. Kruse, R. Di Remigio,
    A. Alenaizan, A. M. James, S. Lehtola, J. P. Misiewicz, M. Scheurer,
    R. A. Shaw, J. B. Schriber, Y. Xie, Z. L. Glick, D. A. Sirianni,
    J. S. O'Brien, J. M. Waldrop, A. Kumar, E. G. Hohenstein,
    B. P. Pritchard, B. R. Brooks, H. F. Schaefer III, A. Yu. Sokolov,
    K. Patkowski, A. E. DePrince III, U. Bozkaya, R. A. King,
    F. A. Evangelista, J. M. Turney, T. D. Crawford, C. D. Sherrill,
    J. Chem. Phys. 152(18) 184108 (2020). https://doi.org/10.1063/5.0006002

                            Additional Code Authors
    E. T. Seidl, C. L. Janssen, E. F. Valeev, M. L. Leininger,
    J. F. Gonthier, R. M. Richard, H. R. McAlexander, M. Saitow, X. Wang,
    P. Verma, M. H. Lechner, A. Jiang, S. Behnle, A. G. Heide,
    M. F. Herbst, and D. L. Poole

             Previous Authors, Complete List of Code Contributors,
                       and Citations for Specific Modules
    https://github.com/psi4/psi4/blob/master/codemeta.json
    https://github.com/psi4/psi4/graphs/contributors
    http://psicode.org/psi4manual/master/introduction.html#citing-psifour

    -----------------------------------------------------------------------


    Psi4 started on: Sunday, 10 August 2025 06:40PM

    Process ID: 50564
    Host:       Mac.lan
    PSIDATADIR: /Users/joseantoniorodriguesromero/anaconda3/share/psi4
    Memory:     500.0 MiB
    Threads:    1
    
  ==> Input File <==

--------------------------------------------------------------------------
molecule { 
1 1
O           0.000000           0.000000           0.000000
N           0.000000           0.000000           0.886803
}

set { 
basis              cc-pvtz
reference          uks
maxiter            500
DAMPING_PERCENTAGE 1
E_CONVERGENCE      1.0E-8
D_CONVERGENCE      1.0E-8
DIIS_MAX_VECS      400
MBIS_MAXITER       8000
guess              read
}

E, wfn = energy('b3lyp', restart_file='last_wfn', return_wfn=True)
properties('b3lyp','MBIS_CHARGES', wfn=wfn)
wfn.to_file('last_wfn')
--------------------------------------------------------------------------

Scratch directory: /tmp/
 Found user provided orbital data. Setting orbital guess to READ 
 Copying restart file <last_wfn.npy> to </tmp/scan_NO_14.default.50564.180.npy> for internal processing
   => Libint2 <=

    Primary   basis highest AM E, G, H:  6, 6, 3
    Auxiliary basis highest AM E, G, H:  7, 7, 4
    Onebody   basis highest AM E, G, H:  -, -, -
    Solid Harmonics ordering:            Gaussian

*** tstart() called on Mac.lan
*** at Sun Aug 10 18:40:39 2025

   => Loading Basis Set <=

    Name: CC-PVTZ
    Role: ORBITAL
    Keyword: BASIS
    atoms 1 entry O          line   262 file /Users/joseantoniorodriguesromero/anaconda3/share/psi4/basis/cc-pvtz.gbs 
    atoms 2 entry N          line   224 file /Users/joseantoniorodriguesromero/anaconda3/share/psi4/basis/cc-pvtz.gbs 


         ---------------------------------------------------------
                                   SCF
               by Justin Turney, Rob Parrish, Andy Simmonett
                          and Daniel G. A. Smith
                              UKS Reference
                        1 Threads,    500 MiB Core
         ---------------------------------------------------------

  ==> Geometry <==

    Molecular point group: c2v
    Full point group: C_inf_v

    Geometry (in Angstrom), charge = 1, multiplicity = 1:

       Center              X                  Y                   Z               Mass       
    ------------   -----------------  -----------------  -----------------  -----------------
         O            0.000000000000     0.000000000000    -0.413960022187    15.994914619570
         N            0.000000000000     0.000000000000     0.472842977813    14.003074004430

  Running in c2v symmetry.

  Rotational constants: A = ************  B =      2.87097  C =      2.87097 [cm^-1]
  Rotational constants: A = ************  B =  86069.58679  C =  86069.58679 [MHz]
  Nuclear repulsion =   33.416580455320968

  Charge       = 1
  Multiplicity = 1
  Electrons    = 14
  Nalpha       = 7
  Nbeta        = 7

  ==> Algorithm <==

  SCF Algorithm Type is DF.
  DIIS enabled.
  MOM disabled.
  Fractional occupation disabled.
  Guess Type is READ.
  Energy threshold   = 1.00e-08
  Density threshold  = 1.00e-08
  Integral threshold = 1.00e-12

  ==> Primary Basis <==

  Basis Set: CC-PVTZ
    Blend: CC-PVTZ
    Number of shells: 20
    Number of basis functions: 60
    Number of Cartesian functions: 70
    Spherical Harmonics?: true
    Max angular momentum: 3

  ==> DFT Potential <==

   => LibXC <=

    Version 6.2.2
    S. Lehtola, C. Steigemann, M. J.T. Oliveira, and M. A.L. Marques.,  SoftwareX 7, 1–5 (2018) (10.1016/j.softx.2017.11.002)

   => Composite Functional: B3LYP <= 

    B3LYP Hyb-GGA Exchange-Correlation Functional

    P. J. Stephens, F. J. Devlin, C. F. Chabalowski, and M. J. Frisch.,  J. Phys. Chem. 98, 11623 (1994) (10.1021/j100096a001)

    Deriv               =              1
    GGA                 =           TRUE
    Meta                =          FALSE

    Exchange Hybrid     =           TRUE
    MP2 Hybrid          =          FALSE

   => Exchange Functionals <=

    0.0800   Slater exchange
    0.7200         Becke 88

   => Exact (HF) Exchange <=

    0.2000               HF 

   => Correlation Functionals <=

    0.1900   Vosko, Wilk & Nusair (VWN5_RPA)
    0.8100   Lee, Yang & Parr

   => LibXC Density Thresholds  <==

    XC_HYB_GGA_XC_B3LYP:  1.00E-15 

   => Molecular Quadrature <=

    Radial Scheme          =       TREUTLER
    Pruning Scheme         =           NONE
    Nuclear Scheme         =       TREUTLER

    Blocking Scheme        =         OCTREE
    BS radius alpha        =              1
    Pruning alpha          =              1
    Radial Points          =             75
    Spherical Points       =            302
    Total Points           =          42670
    Total Blocks           =            382
    Max Points             =            256
    Max Functions          =             60
    Weights Tolerance      =       1.00E-15

   => Loading Basis Set <=

    Name: (CC-PVTZ AUX)
    Role: JKFIT
    Keyword: DF_BASIS_SCF
    atoms 1 entry O          line   229 file /Users/joseantoniorodriguesromero/anaconda3/share/psi4/basis/cc-pvtz-jkfit.gbs 
    atoms 2 entry N          line   177 file /Users/joseantoniorodriguesromero/anaconda3/share/psi4/basis/cc-pvtz-jkfit.gbs 

   => Loading Basis Set <=

    Name: CC-PVTZ
    Role: ORBITAL
    Keyword: BASIS
    atoms 1 entry O          line   262 file /Users/joseantoniorodriguesromero/anaconda3/share/psi4/basis/cc-pvtz.gbs 
    atoms 2 entry N          line   224 file /Users/joseantoniorodriguesromero/anaconda3/share/psi4/basis/cc-pvtz.gbs 

  Reading orbitals from file /tmp/scan_NO_14.default.50564.180.npy, no projection.

  ==> Integral Setup <==

  DFHelper Memory: AOs need 0.005 GiB; user supplied 0.295 GiB. 
  Using in-core AOs.

  ==> MemDFJK: Density-Fitted J/K Matrices <==

    J tasked:                   Yes
    K tasked:                   Yes
    wK tasked:                   No
    OpenMP threads:               1
    Memory [MiB]:               302
    Algorithm:                 Core
    Schwarz Cutoff:           1E-12
    Mask sparsity (%):       0.0000
    Fitting Condition:        1E-10

   => Auxiliary Basis Set <=

  Basis Set: (CC-PVTZ AUX)
    Blend: CC-PVTZ-JKFIT
    Number of shells: 50
    Number of basis functions: 158
    Number of Cartesian functions: 192
    Spherical Harmonics?: true
    Max angular momentum: 4

  Cached 100.0% of DFT collocation blocks in 0.071 [GiB].

  Minimum eigenvalue in the overlap matrix is 1.4519670974E-03.
  Reciprocal condition number of the overlap matrix is 3.4814489951E-04.
    Using symmetric orthogonalization.

  ==> Pre-Iterations <==

  SCF Guess: Orbitals guess was supplied from a previous computation.

   -------------------------------------------------------
    Irrep   Nso     Nmo     Nalpha   Nbeta   Ndocc  Nsocc
   -------------------------------------------------------
     A1        26      26       5       5       5       0
     A2         6       6       0       0       0       0
     B1        14      14       1       1       1       0
     B2        14      14       1       1       1       0
   -------------------------------------------------------
    Total      60      60       7       7       7       0
   -------------------------------------------------------

  ==> Iterations <==

                           Total Energy        Delta E     RMS |[F,P]|

   @DF-UKS iter   0:  -129.47720135656135   -1.29477e+02   4.79488e-03 
   @DF-UKS iter   1:  -129.44287951286677    3.43218e-02   6.25045e-04 DIIS/ADIIS
   @DF-UKS iter   2:  -129.44268846205543    1.91051e-04   1.01820e-03 DIIS/ADIIS/DAMP=1%
   @DF-UKS iter   3:  -129.44327854652320   -5.90084e-04   8.43181e-05 DIIS/DAMP=1%
   @DF-UKS iter   4:  -129.44306247783965    2.16069e-04   2.17082e-05 DIIS/DAMP=1%
   @DF-UKS iter   5:  -129.44301491530840    4.75625e-05   1.82134e-06 DIIS/DAMP=1%
   @DF-UKS iter   6:  -129.44302319043479   -8.27513e-06   1.41348e-07 DIIS/DAMP=1%
   @DF-UKS iter   7:  -129.44302172410133    1.46633e-06   7.68935e-09 DIIS/DAMP=1%
   @DF-UKS iter   8:  -129.44302172469318   -5.91854e-10   2.99111e-10 DIIS/DAMP=1%
  Energy and wave function converged.


  ==> Post-Iterations <==

   Electrons on quadrature grid:
      Nalpha   =    6.9999997995 ; deviation = -2.005e-07
      Nbeta    =    6.9999997995 ; deviation = -2.005e-07
      Ntotal   =   13.9999995990 ; deviation = -4.010e-07 

   @Spin Contamination Metric:   1.598721155E-14
   @S^2 Expected:                0.000000000E+00
   @S^2 Observed:                1.598721155E-14
   @S   Expected:                0.000000000E+00
   @S   Observed:                0.000000000E+00

    Orbital Energies [Eh]
    ---------------------

    Alpha Occupied:                                                       

       1A1   -19.757669     2A1   -14.908228     3A1    -1.945426  
       1B2    -1.098707     1B1    -1.098707     4A1    -1.082595  
       5A1    -0.923613  

    Alpha Virtual:                                                        

       2B1    -0.390938     2B2    -0.390938     6A1    -0.061087  
       3B2     0.053633     3B1     0.053633     7A1     0.114128  
       8A1     0.196712     4B2     0.294837     4B1     0.294837  
       9A1     0.505736     1A2     0.505736    10A1     0.634701  
      11A1     0.850447     5B1     0.897330     5B2     0.897330  
      12A1     1.222959     2A2     1.222959    13A1     1.564116  
       6B2     1.704234     6B1     1.704234    14A1     2.074788  
       7B1     2.312303     7B2     2.312303    15A1     2.776991  
      16A1     3.261759     8B2     3.292676     8B1     3.292676  
       9B1     3.386314     9B2     3.386314    17A1     3.445107  
       3A2     3.445107    10B1     3.732103    10B2     3.732103  
      18A1     3.935024     4A2     3.935025    19A1     4.216886  
      11B1     4.431328    11B2     4.431328    12B2     4.707850  
      12B1     4.707850    20A1     5.276191     5A2     5.679758  
      21A1     5.679761    22A1     5.774052     6A2     5.774053  
      13B2     6.127542    13B1     6.127542    23A1     6.387441  
      24A1     6.968708    14B1     7.606160    14B2     7.606160  
      25A1     8.603492    26A1    20.921779  

    Beta Occupied:                                                        

       1A1   -19.757669     2A1   -14.908228     3A1    -1.945426  
       1B2    -1.098707     1B1    -1.098707     4A1    -1.082595  
       5A1    -0.923613  

    Beta Virtual:                                                         

       2B1    -0.390938     2B2    -0.390938     6A1    -0.061087  
       3B2     0.053633     3B1     0.053633     7A1     0.114128  
       8A1     0.196712     4B2     0.294837     4B1     0.294837  
       9A1     0.505736     1A2     0.505736    10A1     0.634701  
      11A1     0.850447     5B1     0.897330     5B2     0.897330  
      12A1     1.222959     2A2     1.222959    13A1     1.564116  
       6B2     1.704234     6B1     1.704234    14A1     2.074788  
       7B1     2.312303     7B2     2.312303    15A1     2.776991  
      16A1     3.261759     8B2     3.292676     8B1     3.292676  
       9B1     3.386314     9B2     3.386314    17A1     3.445107  
       3A2     3.445107    10B1     3.732103    10B2     3.732103  
      18A1     3.935024     4A2     3.935025    19A1     4.216886  
      11B1     4.431328    11B2     4.431328    12B2     4.707850  
      12B1     4.707850    20A1     5.276191     5A2     5.679758  
      21A1     5.679761    22A1     5.774052     6A2     5.774053  
      13B2     6.127542    13B1     6.127542    23A1     6.387441  
      24A1     6.968708    14B1     7.606160    14B2     7.606160  
      25A1     8.603492    26A1    20.921779  

    Final Occupation by Irrep:
             A1    A2    B1    B2 
    DOCC [     5,    0,    1,    1 ]
    SOCC [     0,    0,    0,    0 ]
    NA   [     5,    0,    1,    1 ]
    NB   [     5,    0,    1,    1 ]

  @DF-UKS Final Energy:  -129.44302172469318

   => Energetics <=

    Nuclear Repulsion Energy =             33.4165804553209682
    One-Electron Energy =                -235.2094488195970996
    Two-Electron Energy =                  84.7128078186641318
    DFT Exchange-Correlation Energy =     -12.3629611790811911
    Empirical Dispersion Energy =           0.0000000000000000
    VV10 Nonlocal Energy =                  0.0000000000000000
    Total Energy =                       -129.4430217246931818

  UHF NO Occupations:
  HONO-2 :    4 A1 2.0000000
  HONO-1 :    5 A1 2.0000000
  HONO-0 :    1 B1 2.0000000
  LUNO+0 :    6 A1 0.0000000
  LUNO+1 :    7 A1 0.0000000
  LUNO+2 :    8 A1 0.0000000
  LUNO+3 :    9 A1 0.0000000


Computation Completed


Properties will be evaluated at   0.000000,   0.000000,   0.000000 [a0]

Properties computed using the SCF density matrix


 Multipole Moments:

 ------------------------------------------------------------------------------------
     Multipole            Electronic (a.u.)      Nuclear  (a.u.)        Total (a.u.)
 ------------------------------------------------------------------------------------

 L = 1.  Multiply by 2.5417464519 to convert [e a0] to [Debye]
 Dipole X            :          0.0000000            0.0000000            0.0000000
 Dipole Y            :          0.0000000            0.0000000            0.0000000
 Dipole Z            :          0.0098239           -0.0033625            0.0064615
 Magnitude           :                                                    0.0064615

 ------------------------------------------------------------------------------------

*** tstop() called on Mac.lan at Sun Aug 10 18:40:40 2025
Module time:
	user time   =      11.67 seconds =       0.19 minutes
	system time =       1.87 seconds =       0.03 minutes
	total time  =          1 seconds =       0.02 minutes
Total time:
	user time   =      11.67 seconds =       0.19 minutes
	system time =       1.87 seconds =       0.03 minutes
	total time  =          1 seconds =       0.02 minutes

*** tstart() called on Mac.lan
*** at Sun Aug 10 18:40:40 2025

   => Libint2 <=

    Primary   basis highest AM E, G, H:  6, 6, 3
    Auxiliary basis highest AM E, G, H:  7, 7, 4
    Onebody   basis highest AM E, G, H:  -, -, -
    Solid Harmonics ordering:            Gaussian
   => Loading Basis Set <=

    Name: CC-PVTZ
    Role: ORBITAL
    Keyword: BASIS
    atoms 1 entry O          line   262 file /Users/joseantoniorodriguesromero/anaconda3/share/psi4/basis/cc-pvtz.gbs 
    atoms 2 entry N          line   224 file /Users/joseantoniorodriguesromero/anaconda3/share/psi4/basis/cc-pvtz.gbs 


         ---------------------------------------------------------
                                   SCF
               by Justin Turney, Rob Parrish, Andy Simmonett
                          and Daniel G. A. Smith
                              UKS Reference
                        1 Threads,    500 MiB Core
         ---------------------------------------------------------

  ==> Geometry <==

    Molecular point group: c2v
    Full point group: C_inf_v

    Geometry (in Angstrom), charge = 1, multiplicity = 1:

       Center              X                  Y                   Z               Mass       
    ------------   -----------------  -----------------  -----------------  -----------------
         O            0.000000000000     0.000000000000    -0.413960022187    15.994914619570
         N            0.000000000000     0.000000000000     0.472842977813    14.003074004430

  Running in c2v symmetry.

  Rotational constants: A = ************  B =      2.87097  C =      2.87097 [cm^-1]
  Rotational constants: A = ************  B =  86069.58679  C =  86069.58679 [MHz]
  Nuclear repulsion =   33.416580455320968

  Charge       = 1
  Multiplicity = 1
  Electrons    = 14
  Nalpha       = 7
  Nbeta        = 7

  ==> Algorithm <==

  SCF Algorithm Type is DF.
  DIIS enabled.
  MOM disabled.
  Fractional occupation disabled.
  Guess Type is READ.
  Energy threshold   = 1.00e-08
  Density threshold  = 1.00e-08
  Integral threshold = 1.00e-12

  ==> Primary Basis <==

  Basis Set: CC-PVTZ
    Blend: CC-PVTZ
    Number of shells: 20
    Number of basis functions: 60
    Number of Cartesian functions: 70
    Spherical Harmonics?: true
    Max angular momentum: 3

  ==> DFT Potential <==

   => LibXC <=

    Version 6.2.2
    S. Lehtola, C. Steigemann, M. J.T. Oliveira, and M. A.L. Marques.,  SoftwareX 7, 1–5 (2018) (10.1016/j.softx.2017.11.002)

   => Composite Functional: B3LYP <= 

    B3LYP Hyb-GGA Exchange-Correlation Functional

    P. J. Stephens, F. J. Devlin, C. F. Chabalowski, and M. J. Frisch.,  J. Phys. Chem. 98, 11623 (1994) (10.1021/j100096a001)

    Deriv               =              1
    GGA                 =           TRUE
    Meta                =          FALSE

    Exchange Hybrid     =           TRUE
    MP2 Hybrid          =          FALSE

   => Exchange Functionals <=

    0.0800   Slater exchange
    0.7200         Becke 88

   => Exact (HF) Exchange <=

    0.2000               HF 

   => Correlation Functionals <=

    0.1900   Vosko, Wilk & Nusair (VWN5_RPA)
    0.8100   Lee, Yang & Parr

   => LibXC Density Thresholds  <==

    XC_HYB_GGA_XC_B3LYP:  1.00E-15 

   => Molecular Quadrature <=

    Radial Scheme          =       TREUTLER
    Pruning Scheme         =           NONE
    Nuclear Scheme         =       TREUTLER

    Blocking Scheme        =         OCTREE
    BS radius alpha        =              1
    Pruning alpha          =              1
    Radial Points          =             75
    Spherical Points       =            302
    Total Points           =          42670
    Total Blocks           =            382
    Max Points             =            256
    Max Functions          =             60
    Weights Tolerance      =       1.00E-15

   => Loading Basis Set <=

    Name: (CC-PVTZ AUX)
    Role: JKFIT
    Keyword: DF_BASIS_SCF
    atoms 1 entry O          line   229 file /Users/joseantoniorodriguesromero/anaconda3/share/psi4/basis/cc-pvtz-jkfit.gbs 
    atoms 2 entry N          line   177 file /Users/joseantoniorodriguesromero/anaconda3/share/psi4/basis/cc-pvtz-jkfit.gbs 

   => Loading Basis Set <=

    Name: CC-PVTZ
    Role: ORBITAL
    Keyword: BASIS
    atoms 1 entry O          line   262 file /Users/joseantoniorodriguesromero/anaconda3/share/psi4/basis/cc-pvtz.gbs 
    atoms 2 entry N          line   224 file /Users/joseantoniorodriguesromero/anaconda3/share/psi4/basis/cc-pvtz.gbs 

  Reading orbitals from file /tmp/scan_NO_14.default.50564.180.npy, no projection.

  ==> Integral Setup <==

  DFHelper Memory: AOs need 0.005 GiB; user supplied 0.295 GiB. 
  Using in-core AOs.

  ==> MemDFJK: Density-Fitted J/K Matrices <==

    J tasked:                   Yes
    K tasked:                   Yes
    wK tasked:                   No
    OpenMP threads:               1
    Memory [MiB]:               302
    Algorithm:                 Core
    Schwarz Cutoff:           1E-12
    Mask sparsity (%):       0.0000
    Fitting Condition:        1E-10

   => Auxiliary Basis Set <=

  Basis Set: (CC-PVTZ AUX)
    Blend: CC-PVTZ-JKFIT
    Number of shells: 50
    Number of basis functions: 158
    Number of Cartesian functions: 192
    Spherical Harmonics?: true
    Max angular momentum: 4

  Cached 100.0% of DFT collocation blocks in 0.071 [GiB].

  Minimum eigenvalue in the overlap matrix is 1.4519670974E-03.
  Reciprocal condition number of the overlap matrix is 3.4814489951E-04.
    Using symmetric orthogonalization.

  ==> Pre-Iterations <==

  SCF Guess: Orbitals guess was supplied from a previous computation.

   -------------------------------------------------------
    Irrep   Nso     Nmo     Nalpha   Nbeta   Ndocc  Nsocc
   -------------------------------------------------------
     A1        26      26       5       5       5       0
     A2         6       6       0       0       0       0
     B1        14      14       1       1       1       0
     B2        14      14       1       1       1       0
   -------------------------------------------------------
    Total      60      60       7       7       7       0
   -------------------------------------------------------

  ==> Iterations <==

                           Total Energy        Delta E     RMS |[F,P]|

   @DF-UKS iter   0:  -129.44302172095999   -1.29443e+02   2.36853e-11 
   @DF-UKS iter   1:  -129.44302172095982    1.70530e-13   3.52875e-11 DIIS
  Energy and wave function converged.


  ==> Post-Iterations <==

   Electrons on quadrature grid:
      Nalpha   =    6.9999997995 ; deviation = -2.005e-07
      Nbeta    =    6.9999997995 ; deviation = -2.005e-07
      Ntotal   =   13.9999995990 ; deviation = -4.010e-07 

   @Spin Contamination Metric:   1.421085472E-14
   @S^2 Expected:                0.000000000E+00
   @S^2 Observed:                1.421085472E-14
   @S   Expected:                0.000000000E+00
   @S   Observed:                0.000000000E+00

    Orbital Energies [Eh]
    ---------------------

    Alpha Occupied:                                                       

       1A1   -19.757669     2A1   -14.908228     3A1    -1.945426  
       1B2    -1.098707     1B1    -1.098707     4A1    -1.082595  
       5A1    -0.923613  

    Alpha Virtual:                                                        

       2B1    -0.390938     2B2    -0.390938     6A1    -0.061087  
       3B2     0.053633     3B1     0.053633     7A1     0.114128  
       8A1     0.196712     4B2     0.294837     4B1     0.294837  
       9A1     0.505736     1A2     0.505736    10A1     0.634701  
      11A1     0.850447     5B1     0.897330     5B2     0.897330  
      12A1     1.222959     2A2     1.222959    13A1     1.564116  
       6B2     1.704234     6B1     1.704234    14A1     2.074788  
       7B1     2.312303     7B2     2.312303    15A1     2.776991  
      16A1     3.261759     8B2     3.292676     8B1     3.292676  
       9B1     3.386314     9B2     3.386314    17A1     3.445107  
       3A2     3.445107    10B1     3.732103    10B2     3.732103  
      18A1     3.935024     4A2     3.935025    19A1     4.216886  
      11B1     4.431328    11B2     4.431328    12B2     4.707850  
      12B1     4.707850    20A1     5.276191     5A2     5.679758  
      21A1     5.679761    22A1     5.774052     6A2     5.774053  
      13B2     6.127542    13B1     6.127542    23A1     6.387441  
      24A1     6.968708    14B1     7.606160    14B2     7.606160  
      25A1     8.603492    26A1    20.921779  

    Beta Occupied:                                                        

       1A1   -19.757669     2A1   -14.908228     3A1    -1.945426  
       1B2    -1.098707     1B1    -1.098707     4A1    -1.082595  
       5A1    -0.923613  

    Beta Virtual:                                                         

       2B1    -0.390938     2B2    -0.390938     6A1    -0.061087  
       3B2     0.053633     3B1     0.053633     7A1     0.114128  
       8A1     0.196712     4B2     0.294837     4B1     0.294837  
       9A1     0.505736     1A2     0.505736    10A1     0.634701  
      11A1     0.850447     5B1     0.897330     5B2     0.897330  
      12A1     1.222959     2A2     1.222959    13A1     1.564116  
       6B2     1.704234     6B1     1.704234    14A1     2.074788  
       7B1     2.312303     7B2     2.312303    15A1     2.776991  
      16A1     3.261759     8B2     3.292676     8B1     3.292676  
       9B1     3.386314     9B2     3.386314    17A1     3.445107  
       3A2     3.445107    10B1     3.732103    10B2     3.732103  
      18A1     3.935024     4A2     3.935025    19A1     4.216886  
      11B1     4.431328    11B2     4.431328    12B2     4.707850  
      12B1     4.707850    20A1     5.276191     5A2     5.679758  
      21A1     5.679761    22A1     5.774052     6A2     5.774053  
      13B2     6.127542    13B1     6.127542    23A1     6.387441  
      24A1     6.968708    14B1     7.606160    14B2     7.606160  
      25A1     8.603492    26A1    20.921779  

    Final Occupation by Irrep:
             A1    A2    B1    B2 
    DOCC [     5,    0,    1,    1 ]
    SOCC [     0,    0,    0,    0 ]
    NA   [     5,    0,    1,    1 ]
    NB   [     5,    0,    1,    1 ]

  @DF-UKS Final Energy:  -129.44302172095982

   => Energetics <=

    Nuclear Repulsion Energy =             33.4165804553209682
    One-Electron Energy =                -235.2094488150187317
    Two-Electron Energy =                  84.7128078174771844
    DFT Exchange-Correlation Energy =     -12.3629611787392406
    Empirical Dispersion Energy =           0.0000000000000000
    VV10 Nonlocal Energy =                  0.0000000000000000
    Total Energy =                       -129.4430217209598197

  UHF NO Occupations:
  HONO-2 :    4 A1 2.0000000
  HONO-1 :    1 B1 2.0000000
  HONO-0 :    5 A1 2.0000000
  LUNO+0 :    6 A1 0.0000000
  LUNO+1 :    7 A1 0.0000000
  LUNO+2 :    8 A1 0.0000000
  LUNO+3 :    9 A1 0.0000000


Computation Completed


Properties will be evaluated at   0.000000,   0.000000,   0.000000 [a0]

Properties computed using the B3LYP density matrix


 Multipole Moments:

 ------------------------------------------------------------------------------------
     Multipole            Electronic (a.u.)      Nuclear  (a.u.)        Total (a.u.)
 ------------------------------------------------------------------------------------

 L = 1.  Multiply by 2.5417464519 to convert [e a0] to [Debye]
 Dipole X            :          0.0000000            0.0000000            0.0000000
 Dipole Y            :          0.0000000            0.0000000            0.0000000
 Dipole Z            :          0.0098239           -0.0033625            0.0064615
 Magnitude           :                                                    0.0064615

 L = 2.  Multiply by 1.3450342976 to convert [e a0^2] to [Debye ang]
 Quadrupole XX       :         -5.4708355            0.0000000           -5.4708355
 Quadrupole XY       :          0.0000000            0.0000000            0.0000000
 Quadrupole XZ       :          0.0000000            0.0000000            0.0000000
 Quadrupole YY       :         -5.4708355            0.0000000           -5.4708355
 Quadrupole YZ       :          0.0000000            0.0000000            0.0000000
 Quadrupole ZZ       :        -16.1207227           10.4845270           -5.6361957
 Traceless XX        :          3.5499624           -3.4948423            0.0551201
 Traceless YY        :          3.5499624           -3.4948423            0.0551201
 Traceless ZZ        :         -7.0999248            6.9896846           -0.1102402

 ------------------------------------------------------------------------------------
  ==> Computing MBIS Charges <==

  Electron Count from Grid (Expected Number): 14.00000 (14.00000)
  Difference: -0.00000

  MBIS Charges: (a.u.)
   Center  Symbol  Z      Pop.       Charge
      1       O    8    7.559275    0.440725
      2       N    7    6.440724    0.559276

  MBIS Dipoles: [e a0]
   Center  Symbol  Z        X           Y           Z
      1       O    8    0.000000   -0.000000   -0.041968
      2       N    7    0.000000   -0.000000   -0.106542

  MBIS Quadrupoles: [e a0^2]
   Center  Symbol  Z      XX        XY        XZ        YY        YZ        ZZ
      1       O    8   -2.7172    0.0000    0.0000   -2.7172   -0.0000   -3.0006
      2       N    7   -2.7536   -0.0000   -0.0000   -2.7536    0.0000   -3.2271

  MBIS Octupoles: [e a0^3]
   Center  Symbol  Z      XXX       XXY       XXZ       XYY       XYZ       XZZ       YYY       YYZ       YZZ       ZZZ
      1       O    8    0.0000   -0.0000   -0.0023    0.0000   -0.0000   -0.0000   -0.0000   -0.0023    0.0000    0.0024
      2       N    7    0.0000   -0.0000   -0.0853    0.0000   -0.0000    0.0000   -0.0000   -0.0853   -0.0000   -0.2924

  MBIS Radial Moments:
   Center  Symbol  Z      [a0^2]      [a0^3]      [a0^4]      
      1       O    8    8.435021   13.879280   27.376653
      2       N    7    8.734343   16.165788   35.755341

  MBIS Valence Widths: [a0]
   Center  Symbol  Z     Width
      1       O    8    0.344916
      2       N    7    0.390336

*** tstop() called on Mac.lan at Sun Aug 10 18:40:41 2025
Module time:
	user time   =       4.13 seconds =       0.07 minutes
	system time =       2.32 seconds =       0.04 minutes
	total time  =          1 seconds =       0.02 minutes
Total time:
	user time   =      15.83 seconds =       0.26 minutes
	system time =       4.34 seconds =       0.07 minutes
	total time  =          2 seconds =       0.03 minutes

    Psi4 stopped on: Sunday, 10 August 2025 06:40PM
    Psi4 wall time for execution: 0:00:01.98

*** Psi4 exiting successfully. Buy a developer a beer!
