
    -----------------------------------------------------------------------
          Psi4: An Open-Source Ab Initio Electronic Structure Package
                               Psi4 1.9.1 release

                         Git: Rev {} zzzzzzz 


    D. G. A. Smith, L. A. Burns, A. C. Simmonett, R. M. Parrish,
    M. C. Schieber, R. Galvelis, P. Kraus, H. Kruse, R. Di Remigio,
    A. Alenaizan, A. M. James, S. Lehtola, J. P. Misiewicz, M. Scheurer,
    R. A. Shaw, J. B. Schriber, Y. Xie, Z. L. Glick, D. A. Sirianni,
    J. S. O'Brien, J. M. Waldrop, A. Kumar, E. G. Hohenstein,
    B. P. Pritchard, B. R. Brooks, H. F. Schaefer III, A. Yu. Sokolov,
    K. Patkowski, A. E. DePrince III, U. Bozkaya, R. A. King,
    F. A. Evangelista, J. M. Turney, T. D. Crawford, C. D. Sherrill,
    J. Chem. Phys. 152(18) 184108 (2020). https://doi.org/10.1063/5.0006002

                            Additional Code Authors
    E. T. Seidl, C. L. Janssen, E. F. Valeev, M. L. Leininger,
    J. F. Gonthier, R. M. Richard, H. R. McAlexander, M. Saitow, X. Wang,
    P. Verma, M. H. Lechner, A. Jiang, S. Behnle, A. G. Heide,
    M. F. Herbst, and D. L. Poole

             Previous Authors, Complete List of Code Contributors,
                       and Citations for Specific Modules
    https://github.com/psi4/psi4/blob/master/codemeta.json
    https://github.com/psi4/psi4/graphs/contributors
    http://psicode.org/psi4manual/master/introduction.html#citing-psifour

    -----------------------------------------------------------------------


    Psi4 started on: Sunday, 10 August 2025 06:16PM

    Process ID: 49922
    Host:       Mac.lan
    PSIDATADIR: /Users/joseantoniorodriguesromero/anaconda3/share/psi4
    Memory:     500.0 MiB
    Threads:    1
    
  ==> Input File <==

--------------------------------------------------------------------------
molecule { 
1 4
C           0.000000           0.000000           0.000000
C           0.000000           0.000000           1.453961
}

set { 
basis              cc-pvtz
reference          uks
maxiter            500
DAMPING_PERCENTAGE 1
E_CONVERGENCE      1.0E-8
D_CONVERGENCE      1.0E-8
DIIS_MAX_VECS      400
MBIS_MAXITER       8000
guess              read
}

E, wfn = energy('b3lyp', restart_file='last_wfn', return_wfn=True)
properties('b3lyp','MBIS_CHARGES', wfn=wfn)
wfn.to_file('last_wfn')
--------------------------------------------------------------------------

Scratch directory: /tmp/
 Found user provided orbital data. Setting orbital guess to READ 
 Copying restart file <last_wfn.npy> to </tmp/scan_CC_32.default.49922.180.npy> for internal processing
   => Libint2 <=

    Primary   basis highest AM E, G, H:  6, 6, 3
    Auxiliary basis highest AM E, G, H:  7, 7, 4
    Onebody   basis highest AM E, G, H:  -, -, -
    Solid Harmonics ordering:            Gaussian

*** tstart() called on Mac.lan
*** at Sun Aug 10 18:16:26 2025

   => Loading Basis Set <=

    Name: CC-PVTZ
    Role: ORBITAL
    Keyword: BASIS
    atoms 1-2 entry C          line   186 file /Users/joseantoniorodriguesromero/anaconda3/share/psi4/basis/cc-pvtz.gbs 


         ---------------------------------------------------------
                                   SCF
               by Justin Turney, Rob Parrish, Andy Simmonett
                          and Daniel G. A. Smith
                              UKS Reference
                        1 Threads,    500 MiB Core
         ---------------------------------------------------------

  ==> Geometry <==

    Molecular point group: d2h
    Full point group: D_inf_h

    Geometry (in Angstrom), charge = 1, multiplicity = 4:

       Center              X                  Y                   Z               Mass       
    ------------   -----------------  -----------------  -----------------  -----------------
         C            0.000000000000     0.000000000000    -0.726980500000    12.000000000000
         C            0.000000000000     0.000000000000     0.726980500000    12.000000000000

  Running in d2h symmetry.

  Rotational constants: A = ************  B =      1.32905  C =      1.32905 [cm^-1]
  Rotational constants: A = ************  B =  39843.77088  C =  39843.77088 [MHz]
  Nuclear repulsion =   13.102400672452696

  Charge       = 1
  Multiplicity = 4
  Electrons    = 11
  Nalpha       = 7
  Nbeta        = 4

  ==> Algorithm <==

  SCF Algorithm Type is DF.
  DIIS enabled.
  MOM disabled.
  Fractional occupation disabled.
  Guess Type is READ.
  Energy threshold   = 1.00e-08
  Density threshold  = 1.00e-08
  Integral threshold = 1.00e-12

  ==> Primary Basis <==

  Basis Set: CC-PVTZ
    Blend: CC-PVTZ
    Number of shells: 20
    Number of basis functions: 60
    Number of Cartesian functions: 70
    Spherical Harmonics?: true
    Max angular momentum: 3

  ==> DFT Potential <==

   => LibXC <=

    Version 6.2.2
    S. Lehtola, C. Steigemann, M. J.T. Oliveira, and M. A.L. Marques.,  SoftwareX 7, 1–5 (2018) (10.1016/j.softx.2017.11.002)

   => Composite Functional: B3LYP <= 

    B3LYP Hyb-GGA Exchange-Correlation Functional

    P. J. Stephens, F. J. Devlin, C. F. Chabalowski, and M. J. Frisch.,  J. Phys. Chem. 98, 11623 (1994) (10.1021/j100096a001)

    Deriv               =              1
    GGA                 =           TRUE
    Meta                =          FALSE

    Exchange Hybrid     =           TRUE
    MP2 Hybrid          =          FALSE

   => Exchange Functionals <=

    0.0800   Slater exchange
    0.7200         Becke 88

   => Exact (HF) Exchange <=

    0.2000               HF 

   => Correlation Functionals <=

    0.1900   Vosko, Wilk & Nusair (VWN5_RPA)
    0.8100   Lee, Yang & Parr

   => LibXC Density Thresholds  <==

    XC_HYB_GGA_XC_B3LYP:  1.00E-15 

   => Molecular Quadrature <=

    Radial Scheme          =       TREUTLER
    Pruning Scheme         =           NONE
    Nuclear Scheme         =       TREUTLER

    Blocking Scheme        =         OCTREE
    BS radius alpha        =              1
    Pruning alpha          =              1
    Radial Points          =             75
    Spherical Points       =            302
    Total Points           =          43010
    Total Blocks           =            390
    Max Points             =            255
    Max Functions          =             60
    Weights Tolerance      =       1.00E-15

   => Loading Basis Set <=

    Name: (CC-PVTZ AUX)
    Role: JKFIT
    Keyword: DF_BASIS_SCF
    atoms 1-2 entry C          line   125 file /Users/joseantoniorodriguesromero/anaconda3/share/psi4/basis/cc-pvtz-jkfit.gbs 

   => Loading Basis Set <=

    Name: CC-PVTZ
    Role: ORBITAL
    Keyword: BASIS
    atoms 1-2 entry C          line   186 file /Users/joseantoniorodriguesromero/anaconda3/share/psi4/basis/cc-pvtz.gbs 

  Reading orbitals from file /tmp/scan_CC_32.default.49922.180.npy, no projection.

  ==> Integral Setup <==

  DFHelper Memory: AOs need 0.005 GiB; user supplied 0.293 GiB. 
  Using in-core AOs.

  ==> MemDFJK: Density-Fitted J/K Matrices <==

    J tasked:                   Yes
    K tasked:                   Yes
    wK tasked:                   No
    OpenMP threads:               1
    Memory [MiB]:               300
    Algorithm:                 Core
    Schwarz Cutoff:           1E-12
    Mask sparsity (%):       0.0000
    Fitting Condition:        1E-10

   => Auxiliary Basis Set <=

  Basis Set: (CC-PVTZ AUX)
    Blend: CC-PVTZ-JKFIT
    Number of shells: 50
    Number of basis functions: 158
    Number of Cartesian functions: 192
    Spherical Harmonics?: true
    Max angular momentum: 4

  Cached 100.0% of DFT collocation blocks in 0.073 [GiB].

  Minimum eigenvalue in the overlap matrix is 3.4119610978E-03.
  Reciprocal condition number of the overlap matrix is 9.3890951098E-04.
    Using symmetric orthogonalization.

  ==> Pre-Iterations <==

  SCF Guess: Orbitals guess was supplied from a previous computation.

   -------------------------------------------------------
    Irrep   Nso     Nmo     Nalpha   Nbeta   Ndocc  Nsocc
   -------------------------------------------------------
     Ag        13      13       3       2       2       1
     B1g        3       3       0       0       0       0
     B2g        7       7       0       0       0       0
     B3g        7       7       0       0       0       0
     Au         3       3       0       0       0       0
     B1u       13      13       2       1       1       1
     B2u        7       7       1       0       0       1
     B3u        7       7       1       1       1       0
   -------------------------------------------------------
    Total      60      60       7       4       4       3
   -------------------------------------------------------

  ==> Iterations <==

                           Total Energy        Delta E     RMS |[F,P]|

   @DF-UKS iter   0:   -75.39481634438430   -7.53948e+01   1.89054e-03 
    Occupation by irrep:
             Ag   B1g   B2g   B3g    Au   B1u   B2u   B3u 
    DOCC [     2,    0,    0,    0,    0,    2,    0,    0 ]
    SOCC [     1,    0,    0,    0,    0,    0,    1,    1 ]
    NA   [     3,    0,    0,    0,    0,    2,    1,    1 ]
    NB   [     2,    0,    0,    0,    0,    2,    0,    0 ]

   @DF-UKS iter   1:   -75.41734294932122   -2.25266e-02   3.76606e-04 DIIS/ADIIS
   @DF-UKS iter   2:   -75.49488129347108   -7.75383e-02   5.52195e-03 DIIS/ADIIS/DAMP=1%
    Occupation by irrep:
             Ag   B1g   B2g   B3g    Au   B1u   B2u   B3u 
    DOCC [     2,    0,    0,    0,    0,    1,    0,    1 ]
    SOCC [     1,    0,    0,    0,    0,    1,    1,    0 ]
    NA   [     3,    0,    0,    0,    0,    2,    1,    1 ]
    NB   [     2,    0,    0,    0,    0,    1,    0,    1 ]

   @DF-UKS iter   3:   -75.49666635172704   -1.78506e-03   4.92587e-03 DIIS/ADIIS/DAMP=1%
   @DF-UKS iter   4:   -75.41648850295516    8.01778e-02   1.11201e-04 DIIS/ADIIS/DAMP=1%
   @DF-UKS iter   5:   -75.41736528331090   -8.76780e-04   1.87259e-04 DIIS/ADIIS/DAMP=1%
   @DF-UKS iter   6:   -75.41739332650890   -2.80432e-05   1.62245e-04 DIIS/ADIIS/DAMP=1%
   @DF-UKS iter   7:   -75.41739218082400    1.14568e-06   1.20393e-04 DIIS/ADIIS/DAMP=1%
    Occupation by irrep:
             Ag   B1g   B2g   B3g    Au   B1u   B2u   B3u 
    DOCC [     2,    0,    0,    0,    0,    2,    0,    0 ]
    SOCC [     1,    0,    0,    0,    0,    0,    1,    1 ]
    NA   [     3,    0,    0,    0,    0,    2,    1,    1 ]
    NB   [     2,    0,    0,    0,    0,    2,    0,    0 ]

   @DF-UKS iter   8:   -75.41739480299793   -2.62217e-06   5.30145e-05 DIIS/DAMP=1%
   @DF-UKS iter   9:   -75.49521536378654   -7.78206e-02   5.38738e-03 DIIS/ADIIS/DAMP=1%
   @DF-UKS iter  10:   -75.49530469705049   -8.93333e-05   5.39159e-03 DIIS/ADIIS/DAMP=1%
   @DF-UKS iter  11:   -75.49531357141993   -8.87437e-06   5.38909e-03 DIIS/ADIIS/DAMP=1%
   @DF-UKS iter  12:   -75.49528356923670    3.00022e-05   5.39822e-03 DIIS/ADIIS/DAMP=1%
    Occupation by irrep:
             Ag   B1g   B2g   B3g    Au   B1u   B2u   B3u 
    DOCC [     2,    0,    0,    0,    0,    1,    0,    1 ]
    SOCC [     1,    0,    0,    0,    0,    1,    1,    0 ]
    NA   [     3,    0,    0,    0,    0,    2,    1,    1 ]
    NB   [     2,    0,    0,    0,    0,    1,    0,    1 ]

   @DF-UKS iter  13:   -75.49529429756298   -1.07283e-05   5.39459e-03 DIIS/ADIIS/DAMP=1%
   @DF-UKS iter  14:   -75.41642753260240    7.88668e-02   2.58193e-05 DIIS/DAMP=1%
   @DF-UKS iter  15:   -75.41739009970479   -9.62567e-04   2.23952e-05 DIIS/DAMP=1%
   @DF-UKS iter  16:   -75.41739959450611   -9.49480e-06   1.98667e-05 DIIS/DAMP=1%
   @DF-UKS iter  17:   -75.41739791711345    1.67739e-06   1.29628e-05 DIIS/DAMP=1%
   @DF-UKS iter  18:   -75.41739827410782   -3.56994e-07   2.58575e-05 DIIS/DAMP=1%
    Occupation by irrep:
             Ag   B1g   B2g   B3g    Au   B1u   B2u   B3u 
    DOCC [     2,    0,    0,    0,    0,    2,    0,    0 ]
    SOCC [     1,    0,    0,    0,    0,    0,    1,    1 ]
    NA   [     3,    0,    0,    0,    0,    2,    1,    1 ]
    NB   [     2,    0,    0,    0,    0,    2,    0,    0 ]

   @DF-UKS iter  19:   -75.41740159294568   -3.31884e-06   1.11817e-05 DIIS/DAMP=1%
   @DF-UKS iter  20:   -75.49521814899367   -7.78166e-02   5.38738e-03 DIIS/ADIIS/DAMP=1%
   @DF-UKS iter  21:   -75.49530053891411   -8.23899e-05   5.39182e-03 DIIS/ADIIS/DAMP=1%
   @DF-UKS iter  22:   -75.49530287101256   -2.33210e-06   5.39193e-03 DIIS/ADIIS/DAMP=1%
   @DF-UKS iter  23:   -75.49530416031735   -1.28930e-06   5.39147e-03 DIIS/ADIIS/DAMP=1%
   @DF-UKS iter  24:   -75.49530261348704    1.54683e-06   5.39198e-03 DIIS/ADIIS/DAMP=1%
   @DF-UKS iter  25:   -75.49530379405681   -1.18057e-06   5.39155e-03 DIIS/ADIIS/DAMP=1%
   @DF-UKS iter  26:   -75.49530377531379    1.87430e-08   5.39158e-03 DIIS/ADIIS/DAMP=1%
   @DF-UKS iter  27:   -75.49530369847434    7.68394e-08   5.39160e-03 DIIS/ADIIS/DAMP=1%
   @DF-UKS iter  28:   -75.49530364865728    4.98171e-08   5.39161e-03 DIIS/ADIIS/DAMP=1%
   @DF-UKS iter  29:   -75.49530361456769    3.40896e-08   5.39162e-03 DIIS/ADIIS/DAMP=1%
   @DF-UKS iter  30:   -75.49530359002233    2.45454e-08   5.39162e-03 DIIS/ADIIS/DAMP=1%
   @DF-UKS iter  31:   -75.49530357163286    1.83895e-08   5.39163e-03 DIIS/ADIIS/DAMP=1%
   @DF-UKS iter  32:   -75.49530355741081    1.42221e-08   5.39163e-03 DIIS/ADIIS/DAMP=1%
   @DF-UKS iter  33:   -75.49530354614946    1.12613e-08   5.39163e-03 DIIS/ADIIS/DAMP=1%
   @DF-UKS iter  34:   -75.49530353702640    9.12306e-09   5.39163e-03 DIIS/ADIIS/DAMP=1%
   @DF-UKS iter  35:   -75.49530352952517    7.50123e-09   5.39163e-03 DIIS/ADIIS/DAMP=1%
   @DF-UKS iter  36:   -75.49530352325188    6.27330e-09   5.39164e-03 DIIS/ADIIS/DAMP=1%
   @DF-UKS iter  37:   -75.49530351794228    5.30960e-09   5.39164e-03 DIIS/ADIIS/DAMP=1%
   @DF-UKS iter  38:   -75.49530351339523    4.54705e-09   5.39164e-03 DIIS/ADIIS/DAMP=1%
   @DF-UKS iter  39:   -75.49530350947582    3.91941e-09   5.39164e-03 DIIS/ADIIS/DAMP=1%
   @DF-UKS iter  40:   -75.49530350605130    3.42452e-09   5.39164e-03 DIIS/ADIIS/DAMP=1%
   @DF-UKS iter  41:   -75.49530350304755    3.00375e-09   5.39164e-03 DIIS/ADIIS/DAMP=1%
   @DF-UKS iter  42:   -75.49530350039421    2.65334e-09   5.39164e-03 DIIS/ADIIS/DAMP=1%
   @DF-UKS iter  43:   -75.49530349803388    2.36034e-09   5.39164e-03 DIIS/ADIIS/DAMP=1%
   @DF-UKS iter  44:   -75.49530349592177    2.11210e-09   5.39164e-03 DIIS/ADIIS/DAMP=1%
   @DF-UKS iter  45:   -75.49530349402481    1.89696e-09   5.39164e-03 DIIS/ADIIS/DAMP=1%
   @DF-UKS iter  46:   -75.49530349231216    1.71265e-09   5.39164e-03 DIIS/ADIIS/DAMP=1%
   @DF-UKS iter  47:   -75.49530349075636    1.55580e-09   5.39164e-03 DIIS/ADIIS/DAMP=1%
   @DF-UKS iter  48:   -75.49530348934158    1.41478e-09   5.39164e-03 DIIS/ADIIS/DAMP=1%
   @DF-UKS iter  49:   -75.49530348804157    1.30001e-09   5.39164e-03 DIIS/ADIIS/DAMP=1%
   @DF-UKS iter  50:   -75.49530348686015    1.18142e-09   5.39164e-03 DIIS/ADIIS/DAMP=1%
   @DF-UKS iter  51:   -75.49530348576546    1.09469e-09   5.39164e-03 DIIS/ADIIS/DAMP=1%
   @DF-UKS iter  52:   -75.49530348475938    1.00609e-09   5.39164e-03 DIIS/ADIIS/DAMP=1%
   @DF-UKS iter  53:   -75.49530348380696    9.52411e-10   5.39164e-03 DIIS/ADIIS/DAMP=1%
   @DF-UKS iter  54:   -75.49530348300291    8.04050e-10   5.39164e-03 DIIS/ADIIS/DAMP=1%
   @DF-UKS iter  55:   -75.49530348217809    8.24826e-10   5.39165e-03 DIIS/ADIIS/DAMP=1%
   @DF-UKS iter  56:   -75.49530348140028    7.77803e-10   5.39165e-03 DIIS/ADIIS/DAMP=1%
   @DF-UKS iter  57:   -75.49530348071464    6.85645e-10   5.39165e-03 DIIS/ADIIS/DAMP=1%
   @DF-UKS iter  58:   -75.49530348005773    6.56911e-10   5.39165e-03 DIIS/ADIIS/DAMP=1%
   @DF-UKS iter  59:   -75.49530347944014    6.17590e-10   5.39165e-03 DIIS/ADIIS/DAMP=1%
   @DF-UKS iter  60:   -75.49530347888529    5.54849e-10   5.39165e-03 DIIS/ADIIS/DAMP=1%
   @DF-UKS iter  61:   -75.49530347834158    5.43707e-10   5.39165e-03 DIIS/ADIIS/DAMP=1%
   @DF-UKS iter  62:   -75.49530347785725    4.84334e-10   5.39165e-03 DIIS/ADIIS/DAMP=1%
   @DF-UKS iter  63:   -75.49530347739049    4.66756e-10   5.39165e-03 DIIS/ADIIS/DAMP=1%
   @DF-UKS iter  64:   -75.49530347690512    4.85372e-10   5.39165e-03 DIIS/ADIIS/DAMP=1%
   @DF-UKS iter  65:   -75.49530347646984    4.35278e-10   5.39165e-03 DIIS/ADIIS/DAMP=1%
   @DF-UKS iter  66:   -75.49530347608345    3.86393e-10   5.39165e-03 DIIS/ADIIS/DAMP=1%
   @DF-UKS iter  67:   -75.49530347567480    4.08647e-10   5.39165e-03 DIIS/ADIIS/DAMP=1%
   @DF-UKS iter  68:   -75.49530347528605    3.88752e-10   5.39165e-03 DIIS/ADIIS/DAMP=1%
   @DF-UKS iter  69:   -75.49530347496651    3.19545e-10   5.39165e-03 DIIS/ADIIS/DAMP=1%
   @DF-UKS iter  70:   -75.49530347464128    3.25230e-10   5.39165e-03 DIIS/ADIIS/DAMP=1%
   @DF-UKS iter  71:   -75.49530347433719    3.04084e-10   5.39165e-03 DIIS/ADIIS/DAMP=1%
   @DF-UKS iter  72:   -75.49530347401290    3.24292e-10   5.39165e-03 DIIS/ADIIS/DAMP=1%
   @DF-UKS iter  73:   -75.49530347372033    2.92573e-10   5.39165e-03 DIIS/ADIIS/DAMP=1%
   @DF-UKS iter  74:   -75.49530347347294    2.47383e-10   5.39165e-03 DIIS/ADIIS/DAMP=1%
   @DF-UKS iter  75:   -75.49530347319157    2.81375e-10   5.39165e-03 DIIS/ADIIS/DAMP=1%
   @DF-UKS iter  76:   -75.49530347295617    2.35403e-10   5.39165e-03 DIIS/ADIIS/DAMP=1%
   @DF-UKS iter  77:   -75.49530347269328    2.62887e-10   5.39165e-03 DIIS/ADIIS/DAMP=1%
   @DF-UKS iter  78:   -75.49530347247295    2.20325e-10   5.39165e-03 DIIS/ADIIS/DAMP=1%
   @DF-UKS iter  79:   -75.49530347224777    2.25185e-10   5.39165e-03 DIIS/ADIIS/DAMP=1%
   @DF-UKS iter  80:   -75.49530347205109    1.96678e-10   5.39165e-03 DIIS/ADIIS/DAMP=1%
   @DF-UKS iter  81:   -75.49530347183590    2.15195e-10   5.39165e-03 DIIS/ADIIS/DAMP=1%
   @DF-UKS iter  82:   -75.49530347161792    2.17980e-10   5.39165e-03 DIIS/ADIIS/DAMP=1%
   @DF-UKS iter  83:   -75.49530347143811    1.79810e-10   5.39165e-03 DIIS/ADIIS/DAMP=1%
   @DF-UKS iter  84:   -75.49530347126701    1.71099e-10   5.39165e-03 DIIS/ADIIS/DAMP=1%
   @DF-UKS iter  85:   -75.49530347112029    1.46713e-10   5.39165e-03 DIIS/ADIIS/DAMP=1%
   @DF-UKS iter  86:   -75.49530347093246    1.87839e-10   5.39165e-03 DIIS/ADIIS/DAMP=1%
   @DF-UKS iter  87:   -75.49530347076789    1.64562e-10   5.39165e-03 DIIS/ADIIS/DAMP=1%
   @DF-UKS iter  88:   -75.49530347062534    1.42549e-10   5.39165e-03 DIIS/ADIIS/DAMP=1%
   @DF-UKS iter  89:   -75.49530347047708    1.48262e-10   5.39165e-03 DIIS/ADIIS/DAMP=1%
   @DF-UKS iter  90:   -75.49530347028401    1.93069e-10   5.39165e-03 DIIS/ADIIS/DAMP=1%
   @DF-UKS iter  91:   -75.49530347018401    1.00002e-10   5.39165e-03 DIIS/ADIIS/DAMP=1%
   @DF-UKS iter  92:   -75.49530347004931    1.34705e-10   5.39165e-03 DIIS/ADIIS/DAMP=1%
   @DF-UKS iter  93:   -75.49530346990383    1.45477e-10   5.39165e-03 DIIS/ADIIS/DAMP=1%
   @DF-UKS iter  94:   -75.49530346979202    1.11811e-10   5.39165e-03 DIIS/ADIIS/DAMP=1%
   @DF-UKS iter  95:   -75.49530346965108    1.40943e-10   5.39165e-03 DIIS/ADIIS/DAMP=1%
   @DF-UKS iter  96:   -75.49530346952415    1.26931e-10   5.39165e-03 DIIS/ADIIS/DAMP=1%
   @DF-UKS iter  97:   -75.49530346944147    8.26788e-11   5.39165e-03 DIIS/ADIIS/DAMP=1%
   @DF-UKS iter  98:   -75.49530346928832    1.53150e-10   5.39165e-03 DIIS/ADIIS/DAMP=1%
   @DF-UKS iter  99:   -75.49530346919117    9.71454e-11   5.39165e-03 DIIS/ADIIS/DAMP=1%
   @DF-UKS iter 100:   -75.49530346906971    1.21460e-10   5.39165e-03 DIIS/ADIIS/DAMP=1%
   @DF-UKS iter 101:   -75.49530346900352    6.61942e-11   5.39165e-03 DIIS/ADIIS/DAMP=1%
   @DF-UKS iter 102:   -75.49530346889999    1.03526e-10   5.39165e-03 DIIS/ADIIS/DAMP=1%
   @DF-UKS iter 103:   -75.49530346880752    9.24700e-11   5.39165e-03 DIIS/ADIIS/DAMP=1%
   @DF-UKS iter 104:   -75.49530346872118    8.63452e-11   5.39165e-03 DIIS/ADIIS/DAMP=1%
   @DF-UKS iter 105:   -75.49530346862089    1.00286e-10   5.39165e-03 DIIS/ADIIS/DAMP=1%
   @DF-UKS iter 106:   -75.49530346851613    1.04762e-10   5.39165e-03 DIIS/ADIIS/DAMP=1%
   @DF-UKS iter 107:   -75.49530346844932    6.68052e-11   5.39165e-03 DIIS/ADIIS/DAMP=1%
   @DF-UKS iter 108:   -75.49530346833113    1.18192e-10   5.39165e-03 DIIS/ADIIS/DAMP=1%
   @DF-UKS iter 109:   -75.49530346826636    6.47731e-11   5.39165e-03 DIIS/ADIIS/DAMP=1%
   @DF-UKS iter 110:   -75.49530346819509    7.12674e-11   5.39165e-03 DIIS/ADIIS/DAMP=1%
   @DF-UKS iter 111:   -75.49530346813066    6.44320e-11   5.39165e-03 DIIS/ADIIS/DAMP=1%
   @DF-UKS iter 112:   -75.49530346802855    1.02105e-10   5.39165e-03 DIIS/ADIIS/DAMP=1%
   @DF-UKS iter 113:   -75.49530346794914    7.94103e-11   5.39165e-03 DIIS/ADIIS/DAMP=1%
   @DF-UKS iter 114:   -75.49530346785633    9.28111e-11   5.39165e-03 DIIS/ADIIS/DAMP=1%
   @DF-UKS iter 115:   -75.49530346780197    5.43565e-11   5.39165e-03 DIIS/ADIIS/DAMP=1%
   @DF-UKS iter 116:   -75.49530346774469    5.72840e-11   5.39165e-03 DIIS/ADIIS/DAMP=1%
   @DF-UKS iter 117:   -75.49530346767708    6.76152e-11   5.39165e-03 DIIS/ADIIS/DAMP=1%
   @DF-UKS iter 118:   -75.49530346760555    7.15232e-11   5.39165e-03 DIIS/ADIIS/DAMP=1%
   @DF-UKS iter 119:   -75.49530346752874    7.68097e-11   5.39165e-03 DIIS/ADIIS/DAMP=1%
   @DF-UKS iter 120:   -75.49530346747204    5.67013e-11   5.39165e-03 DIIS/ADIIS/DAMP=1%
   @DF-UKS iter 121:   -75.49530346743023    4.18083e-11   5.39165e-03 DIIS/ADIIS/DAMP=1%
   @DF-UKS iter 122:   -75.49530346740889    2.13447e-11   5.39165e-03 DIIS/ADIIS/DAMP=1%
   @DF-UKS iter 123:   -75.49530346731521    9.36780e-11   5.39165e-03 DIIS/ADIIS/DAMP=1%
   @DF-UKS iter 124:   -75.49530346724767    6.75442e-11   5.39165e-03 DIIS/ADIIS/DAMP=1%
   @DF-UKS iter 125:   -75.49530346718022    6.74447e-11   5.39165e-03 DIIS/ADIIS/DAMP=1%
   @DF-UKS iter 126:   -75.49530346711907    6.11493e-11   5.39165e-03 DIIS/ADIIS/DAMP=1%
   @DF-UKS iter 127:   -75.49530346709540    2.36753e-11   5.39165e-03 DIIS/ADIIS/DAMP=1%
   @DF-UKS iter 128:   -75.49530346705232    4.30731e-11   5.39165e-03 DIIS/ADIIS/DAMP=1%
   @DF-UKS iter 129:   -75.49530347373836   -6.68604e-09   5.39165e-03 DIIS/ADIIS/DAMP=1%
   @DF-UKS iter 130:   -75.49530110490213    2.36884e-06   5.39184e-03 DIIS/ADIIS/DAMP=1%
   @DF-UKS iter 131:   -75.49530313798050   -2.03308e-06   5.39170e-03 DIIS/ADIIS/DAMP=1%
   @DF-UKS iter 132:   -75.49530319085859   -5.28781e-08   5.39169e-03 DIIS/ADIIS/DAMP=1%
   @DF-UKS iter 133:   -75.49530318904286    1.81574e-09   5.39169e-03 DIIS/ADIIS/DAMP=1%
   @DF-UKS iter 134:   -75.49530318877204    2.70816e-10   5.39169e-03 DIIS/ADIIS/DAMP=1%
   @DF-UKS iter 135:   -75.49530317149959    1.72725e-08   5.39170e-03 DIIS/ADIIS/DAMP=1%
   @DF-UKS iter 136:   -75.49530317964057   -8.14099e-09   5.39170e-03 DIIS/ADIIS/DAMP=1%
   @DF-UKS iter 137:   -75.49530317797976    1.66081e-09   5.39170e-03 DIIS/ADIIS/DAMP=1%
   @DF-UKS iter 138:   -75.49530317399670    3.98306e-09   5.39170e-03 DIIS/ADIIS/DAMP=1%
   @DF-UKS iter 139:   -75.49530318072718   -6.73047e-09   5.39170e-03 DIIS/ADIIS/DAMP=1%
   @DF-UKS iter 140:   -75.49530317072546    1.00017e-08   5.39170e-03 DIIS/ADIIS/DAMP=1%
   @DF-UKS iter 141:   -75.49530318374997   -1.30245e-08   5.39170e-03 DIIS/ADIIS/DAMP=1%
   @DF-UKS iter 142:   -75.49530317276468    1.09853e-08   5.39170e-03 DIIS/ADIIS/DAMP=1%
   @DF-UKS iter 143:   -75.49530317937426   -6.60958e-09   5.39170e-03 DIIS/ADIIS/DAMP=1%
   @DF-UKS iter 144:   -75.49530317892655    4.47713e-10   5.39170e-03 DIIS/ADIIS/DAMP=1%
   @DF-UKS iter 145:   -75.49530316903858    9.88797e-09   5.39170e-03 DIIS/ADIIS/DAMP=1%
   @DF-UKS iter 146:   -75.49530316719141    1.84717e-09   5.39170e-03 DIIS/ADIIS/DAMP=1%
   @DF-UKS iter 147:   -75.49530318296446   -1.57731e-08   5.39170e-03 DIIS/ADIIS/DAMP=1%
   @DF-UKS iter 148:   -75.49530317383980    9.12466e-09   5.39170e-03 DIIS/ADIIS/DAMP=1%
   @DF-UKS iter 149:   -75.49530316648277    7.35703e-09   5.39170e-03 DIIS/ADIIS/DAMP=1%
   @DF-UKS iter 150:   -75.49530314902955    1.74532e-08   5.39170e-03 DIIS/ADIIS/DAMP=1%
   @DF-UKS iter 151:   -75.49530316721723   -1.81877e-08   5.39170e-03 DIIS/ADIIS/DAMP=1%
   @DF-UKS iter 152:   -75.49530315890721    8.31002e-09   5.39170e-03 DIIS/ADIIS/DAMP=1%
   @DF-UKS iter 153:   -75.49530317169949   -1.27923e-08   5.39170e-03 DIIS/ADIIS/DAMP=1%
   @DF-UKS iter 154:   -75.49530317161158    8.79083e-11   5.39170e-03 DIIS/ADIIS/DAMP=1%
   @DF-UKS iter 155:   -75.49530316404280    7.56879e-09   5.39170e-03 DIIS/ADIIS/DAMP=1%
   @DF-UKS iter 156:   -75.49530317118960   -7.14681e-09   5.39170e-03 DIIS/ADIIS/DAMP=1%
   @DF-UKS iter 157:   -75.49530315828373    1.29059e-08   5.39170e-03 DIIS/ADIIS/DAMP=1%
   @DF-UKS iter 158:   -75.49530315851003   -2.26294e-10   5.39170e-03 DIIS/ADIIS/DAMP=1%
   @DF-UKS iter 159:   -75.49530315779145    7.18572e-10   5.39170e-03 DIIS/ADIIS/DAMP=1%
   @DF-UKS iter 160:   -75.49530314968375    8.10770e-09   5.39170e-03 DIIS/ADIIS/DAMP=1%
   @DF-UKS iter 161:   -75.49530315425095   -4.56720e-09   5.39170e-03 DIIS/ADIIS/DAMP=1%
   @DF-UKS iter 162:   -75.49530314441219    9.83876e-09   5.39170e-03 DIIS/ADIIS/DAMP=1%
   @DF-UKS iter 163:   -75.49530316210524   -1.76931e-08   5.39170e-03 DIIS/ADIIS/DAMP=1%
   @DF-UKS iter 164:   -75.49530316115084    9.54401e-10   5.39170e-03 DIIS/ADIIS/DAMP=1%
   @DF-UKS iter 165:   -75.49530316164575   -4.94907e-10   5.39170e-03 DIIS/ADIIS/DAMP=1%
   @DF-UKS iter 166:   -75.49530316576434   -4.11859e-09   5.39170e-03 DIIS/ADIIS/DAMP=1%
   @DF-UKS iter 167:   -75.49530314126837    2.44960e-08   5.39171e-03 DIIS/ADIIS/DAMP=1%
   @DF-UKS iter 168:   -75.49530314932241   -8.05404e-09   5.39170e-03 DIIS/ADIIS/DAMP=1%
   @DF-UKS iter 169:   -75.49530315637709   -7.05468e-09   5.39170e-03 DIIS/ADIIS/DAMP=1%
   @DF-UKS iter 170:   -75.49530315891818   -2.54109e-09   5.39170e-03 DIIS/ADIIS/DAMP=1%
   @DF-UKS iter 171:   -75.49530314741153    1.15066e-08   5.39170e-03 DIIS/ADIIS/DAMP=1%
   @DF-UKS iter 172:   -75.49530315790783   -1.04963e-08   5.39170e-03 DIIS/ADIIS/DAMP=1%
   @DF-UKS iter 173:   -75.49530316046261   -2.55478e-09   5.39170e-03 DIIS/ADIIS/DAMP=1%
   @DF-UKS iter 174:   -75.49530315980604    6.56570e-10   5.39170e-03 DIIS/ADIIS/DAMP=1%
   @DF-UKS iter 175:   -75.49530314040962    1.93964e-08   5.39171e-03 DIIS/ADIIS/DAMP=1%
   @DF-UKS iter 176:   -75.49530313630085    4.10877e-09   5.39171e-03 DIIS/ADIIS/DAMP=1%
   @DF-UKS iter 177:   -75.49530314508165   -8.78080e-09   5.39170e-03 DIIS/ADIIS/DAMP=1%
   @DF-UKS iter 178:   -75.49530314093110    4.15055e-09   5.39171e-03 DIIS/ADIIS/DAMP=1%
   @DF-UKS iter 179:   -75.49530315168596   -1.07549e-08   5.39170e-03 DIIS/ADIIS/DAMP=1%
   @DF-UKS iter 180:   -75.49530313697063    1.47153e-08   5.39171e-03 DIIS/ADIIS/DAMP=1%
   @DF-UKS iter 181:   -75.49530312797307    8.99756e-09   5.39171e-03 DIIS/ADIIS/DAMP=1%
   @DF-UKS iter 182:   -75.49530314640803   -1.84350e-08   5.39170e-03 DIIS/ADIIS/DAMP=1%
   @DF-UKS iter 183:   -75.49530315406200   -7.65397e-09   5.39170e-03 DIIS/ADIIS/DAMP=1%
   @DF-UKS iter 184:   -75.49530313933141    1.47306e-08   5.39171e-03 DIIS/ADIIS/DAMP=1%
   @DF-UKS iter 185:   -75.49530314530975   -5.97834e-09   5.39171e-03 DIIS/ADIIS/DAMP=1%
   @DF-UKS iter 186:   -75.49530313277933    1.25304e-08   5.39171e-03 DIIS/ADIIS/DAMP=1%
   @DF-UKS iter 187:   -75.49530313317729   -3.97961e-10   5.39171e-03 DIIS/ADIIS/DAMP=1%
   @DF-UKS iter 188:   -75.49530314383151   -1.06542e-08   5.39171e-03 DIIS/ADIIS/DAMP=1%
   @DF-UKS iter 189:   -75.49530313070247    1.31290e-08   5.39171e-03 DIIS/ADIIS/DAMP=1%
   @DF-UKS iter 190:   -75.49530313640754   -5.70508e-09   5.39171e-03 DIIS/ADIIS/DAMP=1%
   @DF-UKS iter 191:   -75.49530313069691    5.71063e-09   5.39171e-03 DIIS/ADIIS/DAMP=1%
   @DF-UKS iter 192:   -75.49530312585226    4.84465e-09   5.39171e-03 DIIS/ADIIS/DAMP=1%
   @DF-UKS iter 193:   -75.49530312849063   -2.63837e-09   5.39171e-03 DIIS/ADIIS/DAMP=1%
   @DF-UKS iter 194:   -75.49530313000346   -1.51283e-09   5.39171e-03 DIIS/ADIIS/DAMP=1%
   @DF-UKS iter 195:   -75.49530313849817   -8.49471e-09   5.39171e-03 DIIS/ADIIS/DAMP=1%
   @DF-UKS iter 196:   -75.49530313105411    7.44406e-09   5.39171e-03 DIIS/ADIIS/DAMP=1%
   @DF-UKS iter 197:   -75.49530313722458   -6.17047e-09   5.39171e-03 DIIS/ADIIS/DAMP=1%
   @DF-UKS iter 198:   -75.49530314565375   -8.42917e-09   5.39171e-03 DIIS/ADIIS/DAMP=1%
   @DF-UKS iter 199:   -75.49530312585652    1.97972e-08   5.39171e-03 DIIS/ADIIS/DAMP=1%
   @DF-UKS iter 200:   -75.49530313862284   -1.27663e-08   5.39171e-03 DIIS/ADIIS/DAMP=1%
   @DF-UKS iter 201:   -75.49530312770847    1.09144e-08   5.39171e-03 DIIS/ADIIS/DAMP=1%
   @DF-UKS iter 202:   -75.49530312211746    5.59100e-09   5.39171e-03 DIIS/ADIIS/DAMP=1%
   @DF-UKS iter 203:   -75.49530311378436    8.33310e-09   5.39171e-03 DIIS/ADIIS/DAMP=1%
   @DF-UKS iter 204:   -75.49530312779905   -1.40147e-08   5.39171e-03 DIIS/ADIIS/DAMP=1%
   @DF-UKS iter 205:   -75.49530311488243    1.29166e-08   5.39171e-03 DIIS/ADIIS/DAMP=1%
   @DF-UKS iter 206:   -75.49530313689662   -2.20142e-08   5.39171e-03 DIIS/ADIIS/DAMP=1%
   @DF-UKS iter 207:   -75.49530313263553    4.26110e-09   5.39171e-03 DIIS/ADIIS/DAMP=1%
   @DF-UKS iter 208:   -75.49530313573121   -3.09568e-09   5.39171e-03 DIIS/ADIIS/DAMP=1%
   @DF-UKS iter 209:   -75.49530311456732    2.11639e-08   5.39171e-03 DIIS/ADIIS/DAMP=1%
   @DF-UKS iter 210:   -75.49530311416908    3.98245e-10   5.39171e-03 DIIS/ADIIS/DAMP=1%
   @DF-UKS iter 211:   -75.49530312052853   -6.35946e-09   5.39171e-03 DIIS/ADIIS/DAMP=1%
   @DF-UKS iter 212:   -75.49530312229058   -1.76205e-09   5.39171e-03 DIIS/ADIIS/DAMP=1%
   @DF-UKS iter 213:   -75.49530311631879    5.97178e-09   5.39171e-03 DIIS/ADIIS/DAMP=1%
   @DF-UKS iter 214:   -75.49530312547384   -9.15504e-09   5.39171e-03 DIIS/ADIIS/DAMP=1%
   @DF-UKS iter 215:   -75.49530311984677    5.62707e-09   5.39171e-03 DIIS/ADIIS/DAMP=1%
   @DF-UKS iter 216:   -75.49530312099652   -1.14976e-09   5.39171e-03 DIIS/ADIIS/DAMP=1%
   @DF-UKS iter 217:   -75.49530311145848    9.53804e-09   5.39171e-03 DIIS/ADIIS/DAMP=1%
   @DF-UKS iter 218:   -75.49530310669975    4.75873e-09   5.39172e-03 DIIS/ADIIS/DAMP=1%
   @DF-UKS iter 219:   -75.49530312821761   -2.15179e-08   5.39171e-03 DIIS/ADIIS/DAMP=1%
   @DF-UKS iter 220:   -75.49530311496423    1.32534e-08   5.39171e-03 DIIS/ADIIS/DAMP=1%
   @DF-UKS iter 221:   -75.49530093334199    2.18162e-06   5.39187e-03 DIIS/ADIIS/DAMP=1%
   @DF-UKS iter 222:   -75.49530301013120   -2.07679e-06   5.39173e-03 DIIS/ADIIS/DAMP=1%
   @DF-UKS iter 223:   -75.49530306583382   -5.57026e-08   5.39172e-03 DIIS/ADIIS/DAMP=1%
   @DF-UKS iter 224:   -75.49530306388104    1.95278e-09   5.39172e-03 DIIS/ADIIS/DAMP=1%
   @DF-UKS iter 225:   -75.49530306522639   -1.34536e-09   5.39172e-03 DIIS/ADIIS/DAMP=1%
   @DF-UKS iter 226:   -75.49530308626865   -2.10423e-08   5.39171e-03 DIIS/ADIIS/DAMP=1%
   @DF-UKS iter 227:   -75.49530306795026    1.83184e-08   5.39172e-03 DIIS/ADIIS/DAMP=1%
   @DF-UKS iter 228:   -75.49530306821619   -2.65928e-10   5.39172e-03 DIIS/ADIIS/DAMP=1%
   @DF-UKS iter 229:   -75.49530306691427    1.30191e-09   5.39172e-03 DIIS/ADIIS/DAMP=1%
   @DF-UKS iter 230:   -75.49530307211920   -5.20492e-09   5.39172e-03 DIIS/ADIIS/DAMP=1%
   @DF-UKS iter 231:   -75.49530306327321    8.84599e-09   5.39172e-03 DIIS/ADIIS/DAMP=1%
   @DF-UKS iter 232:   -75.49530306493307   -1.65986e-09   5.39172e-03 DIIS/ADIIS/DAMP=1%
   @DF-UKS iter 233:   -75.49530307059699   -5.66392e-09   5.39172e-03 DIIS/ADIIS/DAMP=1%
   @DF-UKS iter 234:   -75.49530305898188    1.16151e-08   5.39172e-03 DIIS/ADIIS/DAMP=1%
   @DF-UKS iter 235:   -75.49530306596370   -6.98182e-09   5.39172e-03 DIIS/ADIIS/DAMP=1%
   @DF-UKS iter 236:   -75.49530306542981    5.33888e-10   5.39172e-03 DIIS/ADIIS/DAMP=1%
   @DF-UKS iter 237:   -75.49530305722061    8.20920e-09   5.39172e-03 DIIS/ADIIS/DAMP=1%
   @DF-UKS iter 238:   -75.49530306190682   -4.68621e-09   5.39172e-03 DIIS/ADIIS/DAMP=1%
   @DF-UKS iter 239:   -75.49530306036981    1.53702e-09   5.39172e-03 DIIS/ADIIS/DAMP=1%
   @DF-UKS iter 240:   -75.49530306857929   -8.20948e-09   5.39172e-03 DIIS/ADIIS/DAMP=1%
   @DF-UKS iter 241:   -75.49530305684010    1.17392e-08   5.39172e-03 DIIS/ADIIS/DAMP=1%
   @DF-UKS iter 242:   -75.49530304881824    8.02186e-09   5.39172e-03 DIIS/ADIIS/DAMP=1%
   @DF-UKS iter 243:   -75.49530306486804   -1.60498e-08   5.39172e-03 DIIS/ADIIS/DAMP=1%
   @DF-UKS iter 244:   -75.49530306012268    4.74536e-09   5.39172e-03 DIIS/ADIIS/DAMP=1%
   @DF-UKS iter 245:   -75.49530306358878   -3.46610e-09   5.39172e-03 DIIS/ADIIS/DAMP=1%
   @DF-UKS iter 246:   -75.49530305918893    4.39985e-09   5.39172e-03 DIIS/ADIIS/DAMP=1%
   @DF-UKS iter 247:   -75.49530305470520    4.48372e-09   5.39172e-03 DIIS/ADIIS/DAMP=1%
   @DF-UKS iter 248:   -75.49530304843108    6.27412e-09   5.39172e-03 DIIS/ADIIS/DAMP=1%
   @DF-UKS iter 249:   -75.49530305815139   -9.72031e-09   5.39172e-03 DIIS/ADIIS/DAMP=1%
   @DF-UKS iter 250:   -75.49530304952441    8.62698e-09   5.39172e-03 DIIS/ADIIS/DAMP=1%
   @DF-UKS iter 251:   -75.49530305511102   -5.58661e-09   5.39172e-03 DIIS/ADIIS/DAMP=1%
   @DF-UKS iter 252:   -75.49530304684701    8.26401e-09   5.39172e-03 DIIS/ADIIS/DAMP=1%
   @DF-UKS iter 253:   -75.49530304529324    1.55377e-09   5.39172e-03 DIIS/ADIIS/DAMP=1%
   @DF-UKS iter 254:   -75.49530306058115   -1.52879e-08   5.39172e-03 DIIS/ADIIS/DAMP=1%
   @DF-UKS iter 255:   -75.49530304732045    1.32607e-08   5.39172e-03 DIIS/ADIIS/DAMP=1%
   @DF-UKS iter 256:   -75.49530305059743   -3.27698e-09   5.39172e-03 DIIS/ADIIS/DAMP=1%
   @DF-UKS iter 257:   -75.49530305329708   -2.69965e-09   5.39172e-03 DIIS/ADIIS/DAMP=1%
   @DF-UKS iter 258:   -75.49530305490664   -1.60956e-09   5.39172e-03 DIIS/ADIIS/DAMP=1%
   @DF-UKS iter 259:   -75.49530305366841    1.23823e-09   5.39172e-03 DIIS/ADIIS/DAMP=1%
   @DF-UKS iter 260:   -75.49530304838807    5.28034e-09   5.39172e-03 DIIS/ADIIS/DAMP=1%
   @DF-UKS iter 261:   -75.49530305627869   -7.89062e-09   5.39172e-03 DIIS/ADIIS/DAMP=1%
   @DF-UKS iter 262:   -75.49530304578883    1.04899e-08   5.39172e-03 DIIS/ADIIS/DAMP=1%
   @DF-UKS iter 263:   -75.49530304448507    1.30376e-09   5.39172e-03 DIIS/ADIIS/DAMP=1%
   @DF-UKS iter 264:   -75.49530304391840    5.66672e-10   5.39172e-03 DIIS/ADIIS/DAMP=1%
   @DF-UKS iter 265:   -75.49530304866418   -4.74579e-09   5.39172e-03 DIIS/ADIIS/DAMP=1%
   @DF-UKS iter 266:   -75.49530087023896    2.17843e-06   5.39189e-03 DIIS/ADIIS/DAMP=1%
   @DF-UKS iter 267:   -75.49530297093847   -2.10070e-06   5.39173e-03 DIIS/ADIIS/DAMP=1%
   @DF-UKS iter 268:   -75.49530302108336   -5.01449e-08   5.39172e-03 DIIS/ADIIS/DAMP=1%
   @DF-UKS iter 269:   -75.49530303311928   -1.20359e-08   5.39172e-03 DIIS/ADIIS/DAMP=1%
   @DF-UKS iter 270:   -75.49530303370888   -5.89594e-10   5.39172e-03 DIIS/ADIIS/DAMP=1%
   @DF-UKS iter 271:   -75.49530303237960    1.32928e-09   5.39172e-03 DIIS/ADIIS/DAMP=1%
   @DF-UKS iter 272:   -75.49530302983959    2.54001e-09   5.39172e-03 DIIS/ADIIS/DAMP=1%
   @DF-UKS iter 273:   -75.49530302796113    1.87846e-09   5.39172e-03 DIIS/ADIIS/DAMP=1%
   @DF-UKS iter 274:   -75.49530302909737   -1.13624e-09   5.39172e-03 DIIS/ADIIS/DAMP=1%
   @DF-UKS iter 275:   -75.49530301524760    1.38498e-08   5.39172e-03 DIIS/ADIIS/DAMP=1%
   @DF-UKS iter 276:   -75.49530302695273   -1.17051e-08   5.39172e-03 DIIS/ADIIS/DAMP=1%
   @DF-UKS iter 277:   -75.49530304142326   -1.44705e-08   5.39172e-03 DIIS/ADIIS/DAMP=1%
   @DF-UKS iter 278:   -75.49530303220810    9.21516e-09   5.39172e-03 DIIS/ADIIS/DAMP=1%
   @DF-UKS iter 279:   -75.49530303346924   -1.26114e-09   5.39172e-03 DIIS/ADIIS/DAMP=1%
   @DF-UKS iter 280:   -75.49530303351227   -4.30305e-11   5.39172e-03 DIIS/ADIIS/DAMP=1%
   @DF-UKS iter 281:   -75.49530302937438    4.13789e-09   5.39172e-03 DIIS/ADIIS/DAMP=1%
   @DF-UKS iter 282:   -75.49530302891668    4.57703e-10   5.39172e-03 DIIS/ADIIS/DAMP=1%
   @DF-UKS iter 283:   -75.49530303543089   -6.51421e-09   5.39172e-03 DIIS/ADIIS/DAMP=1%
   @DF-UKS iter 284:   -75.49530302246453    1.29664e-08   5.39172e-03 DIIS/ADIIS/DAMP=1%
   @DF-UKS iter 285:   -75.49530302005937    2.40516e-09   5.39172e-03 DIIS/ADIIS/DAMP=1%
   @DF-UKS iter 286:   -75.49530301694656    3.11280e-09   5.39172e-03 DIIS/ADIIS/DAMP=1%
   @DF-UKS iter 287:   -75.49530302431101   -7.36445e-09   5.39172e-03 DIIS/ADIIS/DAMP=1%
   @DF-UKS iter 288:   -75.49530301956247    4.74854e-09   5.39172e-03 DIIS/ADIIS/DAMP=1%
   @DF-UKS iter 289:   -75.49530303406958   -1.45071e-08   5.39172e-03 DIIS/ADIIS/DAMP=1%
   @DF-UKS iter 290:   -75.49530303082319    3.24638e-09   5.39172e-03 DIIS/ADIIS/DAMP=1%
   @DF-UKS iter 291:   -75.49530303379044   -2.96724e-09   5.39172e-03 DIIS/ADIIS/DAMP=1%
   @DF-UKS iter 292:   -75.49530304033446   -6.54403e-09   5.39172e-03 DIIS/ADIIS/DAMP=1%
   @DF-UKS iter 293:   -75.49530303668793    3.64653e-09   5.39172e-03 DIIS/ADIIS/DAMP=1%
   @DF-UKS iter 294:   -75.49530302976407    6.92386e-09   5.39172e-03 DIIS/ADIIS/DAMP=1%
   @DF-UKS iter 295:   -75.49530083712339    2.19264e-06   5.39190e-03 DIIS/ADIIS/DAMP=1%
   @DF-UKS iter 296:   -75.49530295523331   -2.11811e-06   5.39173e-03 DIIS/ADIIS/DAMP=1%
   @DF-UKS iter 297:   -75.49530299885191   -4.36186e-08   5.39173e-03 DIIS/ADIIS/DAMP=1%
   @DF-UKS iter 298:   -75.49530301436793   -1.55160e-08   5.39172e-03 DIIS/ADIIS/DAMP=1%
   @DF-UKS iter 299:   -75.49530301957797   -5.21004e-09   5.39172e-03 DIIS/ADIIS/DAMP=1%
   @DF-UKS iter 300:   -75.49530302834866   -8.77068e-09   5.39172e-03 DIIS/ADIIS/DAMP=1%
   @DF-UKS iter 301:   -75.49530301333451    1.50142e-08   5.39172e-03 DIIS/ADIIS/DAMP=1%
   @DF-UKS iter 302:   -75.49530303347623   -2.01417e-08   5.39172e-03 DIIS/ADIIS/DAMP=1%
   @DF-UKS iter 303:   -75.49530302239856    1.10777e-08   5.39172e-03 DIIS/ADIIS/DAMP=1%
   @DF-UKS iter 304:   -75.49530301547583    6.92273e-09   5.39172e-03 DIIS/ADIIS/DAMP=1%
   @DF-UKS iter 305:   -75.49530301211269    3.36314e-09   5.39172e-03 DIIS/ADIIS/DAMP=1%
   @DF-UKS iter 306:   -75.49530301312490   -1.01221e-09   5.39172e-03 DIIS/ADIIS/DAMP=1%
   @DF-UKS iter 307:   -75.49530301492341   -1.79851e-09   5.39172e-03 DIIS/ADIIS/DAMP=1%
   @DF-UKS iter 308:   -75.49530301151464    3.40877e-09   5.39172e-03 DIIS/ADIIS/DAMP=1%
   @DF-UKS iter 309:   -75.49530300636944    5.14520e-09   5.39172e-03 DIIS/ADIIS/DAMP=1%
   @DF-UKS iter 310:   -75.49530300521853    1.15091e-09   5.39172e-03 DIIS/ADIIS/DAMP=1%
   @DF-UKS iter 311:   -75.49530300770878   -2.49025e-09   5.39172e-03 DIIS/ADIIS/DAMP=1%
   @DF-UKS iter 312:   -75.49530300866816   -9.59375e-10   5.39172e-03 DIIS/ADIIS/DAMP=1%
   @DF-UKS iter 313:   -75.49530301918861   -1.05205e-08   5.39172e-03 DIIS/ADIIS/DAMP=1%
   @DF-UKS iter 314:   -75.49530300433469    1.48539e-08   5.39172e-03 DIIS/ADIIS/DAMP=1%
   @DF-UKS iter 315:   -75.49530081616869    2.18817e-06   5.39191e-03 DIIS/ADIIS/DAMP=1%
   @DF-UKS iter 316:   -75.49530294507646   -2.12891e-06   5.39173e-03 DIIS/ADIIS/DAMP=1%
   @DF-UKS iter 317:   -75.49530301441635   -6.93399e-08   5.39172e-03 DIIS/ADIIS/DAMP=1%
   @DF-UKS iter 318:   -75.49530300367265    1.07437e-08   5.39172e-03 DIIS/ADIIS/DAMP=1%
   @DF-UKS iter 319:   -75.49530300052540    3.14725e-09   5.39172e-03 DIIS/ADIIS/DAMP=1%
   @DF-UKS iter 320:   -75.49530300590456   -5.37916e-09   5.39172e-03 DIIS/ADIIS/DAMP=1%
   @DF-UKS iter 321:   -75.49530301703621   -1.11316e-08   5.39172e-03 DIIS/ADIIS/DAMP=1%
   @DF-UKS iter 322:   -75.49530301068341    6.35279e-09   5.39172e-03 DIIS/ADIIS/DAMP=1%
   @DF-UKS iter 323:   -75.49530301843362   -7.75020e-09   5.39172e-03 DIIS/ADIIS/DAMP=1%
   @DF-UKS iter 324:   -75.49530300716911    1.12645e-08   5.39172e-03 DIIS/ADIIS/DAMP=1%
   @DF-UKS iter 325:   -75.49530300958190   -2.41279e-09   5.39172e-03 DIIS/ADIIS/DAMP=1%
   @DF-UKS iter 326:   -75.49530300225807    7.32383e-09   5.39172e-03 DIIS/ADIIS/DAMP=1%
   @DF-UKS iter 327:   -75.49530301518458   -1.29265e-08   5.39172e-03 DIIS/ADIIS/DAMP=1%
   @DF-UKS iter 328:   -75.49530300364134    1.15432e-08   5.39172e-03 DIIS/ADIIS/DAMP=1%
   @DF-UKS iter 329:   -75.49530300488678   -1.24544e-09   5.39172e-03 DIIS/ADIIS/DAMP=1%
   @DF-UKS iter 330:   -75.49530080222797    2.20266e-06   5.39191e-03 DIIS/ADIIS/DAMP=1%
   @DF-UKS iter 331:   -75.49530293135930   -2.12913e-06   5.39173e-03 DIIS/ADIIS/DAMP=1%
   @DF-UKS iter 332:   -75.49530300180540   -7.04461e-08   5.39172e-03 DIIS/ADIIS/DAMP=1%
   @DF-UKS iter 333:   -75.49530300845788   -6.65248e-09   5.39172e-03 DIIS/ADIIS/DAMP=1%
   @DF-UKS iter 334:   -75.49530300623162    2.22626e-09   5.39172e-03 DIIS/ADIIS/DAMP=1%
   @DF-UKS iter 335:   -75.49530299820253    8.02909e-09   5.39172e-03 DIIS/ADIIS/DAMP=1%
   @DF-UKS iter 336:   -75.49530299480030    3.40223e-09   5.39172e-03 DIIS/ADIIS/DAMP=1%
   @DF-UKS iter 337:   -75.49530300549993   -1.06996e-08   5.39172e-03 DIIS/ADIIS/DAMP=1%
   @DF-UKS iter 338:   -75.49530300910247   -3.60254e-09   5.39172e-03 DIIS/ADIIS/DAMP=1%
   @DF-UKS iter 339:   -75.49530300436791    4.73456e-09   5.39172e-03 DIIS/ADIIS/DAMP=1%
   @DF-UKS iter 340:   -75.49530300537917   -1.01126e-09   5.39172e-03 DIIS/ADIIS/DAMP=1%
   @DF-UKS iter 341:   -75.49530300412424    1.25493e-09   5.39172e-03 DIIS/ADIIS/DAMP=1%
   @DF-UKS iter 342:   -75.49530079211752    2.21201e-06   5.39191e-03 DIIS/ADIIS/DAMP=1%
   @DF-UKS iter 343:   -75.49530294092452   -2.14881e-06   5.39173e-03 DIIS/ADIIS/DAMP=1%
   @DF-UKS iter 344:   -75.49530300825259   -6.73281e-08   5.39172e-03 DIIS/ADIIS/DAMP=1%
   @DF-UKS iter 345:   -75.49530300529275    2.95984e-09   5.39172e-03 DIIS/ADIIS/DAMP=1%
   @DF-UKS iter 346:   -75.49530300673281   -1.44006e-09   5.39172e-03 DIIS/ADIIS/DAMP=1%
   @DF-UKS iter 347:   -75.49530300018907    6.54374e-09   5.39172e-03 DIIS/ADIIS/DAMP=1%
   @DF-UKS iter 348:   -75.49530299860524    1.58383e-09   5.39172e-03 DIIS/ADIIS/DAMP=1%
   @DF-UKS iter 349:   -75.49530300310819   -4.50295e-09   5.39172e-03 DIIS/ADIIS/DAMP=1%
   @DF-UKS iter 350:   -75.49530078501274    2.21810e-06   5.39192e-03 DIIS/ADIIS/DAMP=1%
   @DF-UKS iter 351:   -75.49530292588956   -2.14088e-06   5.39173e-03 DIIS/ADIIS/DAMP=1%
   @DF-UKS iter 352:   -75.49530299633899   -7.04494e-08   5.39172e-03 DIIS/ADIIS/DAMP=1%
   @DF-UKS iter 353:   -75.49530299490625    1.43274e-09   5.39172e-03 DIIS/ADIIS/DAMP=1%
   @DF-UKS iter 354:   -75.49530299686569   -1.95944e-09   5.39172e-03 DIIS/ADIIS/DAMP=1%
   @DF-UKS iter 355:   -75.49530299864497   -1.77928e-09   5.39172e-03 DIIS/ADIIS/DAMP=1%
   @DF-UKS iter 356:   -75.49530299964135   -9.96380e-10   5.39172e-03 DIIS/ADIIS/DAMP=1%
   @DF-UKS iter 357:   -75.49530300456901   -4.92766e-09   5.39172e-03 DIIS/ADIIS/DAMP=1%
   @DF-UKS iter 358:   -75.49530299949085    5.07816e-09   5.39172e-03 DIIS/ADIIS/DAMP=1%
   @DF-UKS iter 359:   -75.49530077909979    2.22039e-06   5.39192e-03 DIIS/ADIIS/DAMP=1%
   @DF-UKS iter 360:   -75.49530294030225   -2.16120e-06   5.39173e-03 DIIS/ADIIS/DAMP=1%
   @DF-UKS iter 361:   -75.49530301485647   -7.45542e-08   5.39172e-03 DIIS/ADIIS/DAMP=1%
   @DF-UKS iter 362:   -75.49530300469776    1.01587e-08   5.39172e-03 DIIS/ADIIS/DAMP=1%
   @DF-UKS iter 363:   -75.49530299244537    1.22524e-08   5.39172e-03 DIIS/ADIIS/DAMP=1%
   @DF-UKS iter 364:   -75.49530077392136    2.21852e-06   5.39192e-03 DIIS/ADIIS/DAMP=1%
   @DF-UKS iter 365:   -75.49530293158595   -2.15766e-06   5.39173e-03 DIIS/ADIIS/DAMP=1%
   @DF-UKS iter 366:   -75.49530299781514   -6.62292e-08   5.39172e-03 DIIS/ADIIS/DAMP=1%
   @DF-UKS iter 367:   -75.49530300688026   -9.06512e-09   5.39172e-03 DIIS/ADIIS/DAMP=1%
   @DF-UKS iter 368:   -75.49530299231809    1.45622e-08   5.39172e-03 DIIS/ADIIS/DAMP=1%
   @DF-UKS iter 369:   -75.49530300078234   -8.46426e-09   5.39172e-03 DIIS/ADIIS/DAMP=1%
   @DF-UKS iter 370:   -75.49530077040620    2.23038e-06   5.39192e-03 DIIS/ADIIS/DAMP=1%
   @DF-UKS iter 371:   -75.49530293003284   -2.15963e-06   5.39173e-03 DIIS/ADIIS/DAMP=1%
   @DF-UKS iter 372:   -75.49530299902433   -6.89915e-08   5.39172e-03 DIIS/ADIIS/DAMP=1%
   @DF-UKS iter 373:   -75.49530299872299    3.01341e-10   5.39172e-03 DIIS/ADIIS/DAMP=1%
   @DF-UKS iter 374:   -75.49530300177634   -3.05334e-09   5.39172e-03 DIIS/ADIIS/DAMP=1%
   @DF-UKS iter 375:   -75.49530299536343    6.41290e-09   5.39172e-03 DIIS/ADIIS/DAMP=1%
   @DF-UKS iter 376:   -75.49530076721763    2.22815e-06   5.39192e-03 DIIS/ADIIS/DAMP=1%
   @DF-UKS iter 377:   -75.49530292559669   -2.15838e-06   5.39173e-03 DIIS/ADIIS/DAMP=1%
   @DF-UKS iter 378:   -75.49530299549684   -6.99002e-08   5.39172e-03 DIIS/ADIIS/DAMP=1%
   @DF-UKS iter 379:   -75.49530076458561    2.23091e-06   5.39192e-03 DIIS/ADIIS/DAMP=1%
   @DF-UKS iter 380:   -75.49530293144289   -2.16686e-06   5.39173e-03 DIIS/ADIIS/DAMP=1%
   @DF-UKS iter 381:   -75.49530300593399   -7.44911e-08   5.39171e-03 DIIS/ADIIS/DAMP=1%
   @DF-UKS iter 382:   -75.49530300210935    3.82464e-09   5.39172e-03 DIIS/ADIIS/DAMP=1%
   @DF-UKS iter 383:   -75.49530076296304    2.23915e-06   5.39192e-03 DIIS/ADIIS/DAMP=1%
   @DF-UKS iter 384:   -75.49530293086096   -2.16790e-06   5.39173e-03 DIIS/ADIIS/DAMP=1%
   @DF-UKS iter 385:   -75.49530299119995   -6.03390e-08   5.39172e-03 DIIS/ADIIS/DAMP=1%
   @DF-UKS iter 386:   -75.49530299772606   -6.52611e-09   5.39172e-03 DIIS/ADIIS/DAMP=1%
   @DF-UKS iter 387:   -75.49530298702125    1.07048e-08   5.39172e-03 DIIS/ADIIS/DAMP=1%
   @DF-UKS iter 388:   -75.49530076030072    2.22672e-06   5.39193e-03 DIIS/ADIIS/DAMP=1%
   @DF-UKS iter 389:   -75.49530069157463    6.87261e-08   5.39194e-03 DIIS/ADIIS/DAMP=1%
   @DF-UKS iter 390:   -75.49530292420512   -2.23263e-06   5.39172e-03 DIIS/ADIIS/DAMP=1%
   @DF-UKS iter 391:   -75.49530298956697   -6.53618e-08   5.39172e-03 DIIS/ADIIS/DAMP=1%
   @DF-UKS iter 392:   -75.49530075607208    2.23349e-06   5.39193e-03 DIIS/ADIIS/DAMP=1%
   @DF-UKS iter 393:   -75.49530291823662   -2.16216e-06   5.39173e-03 DIIS/ADIIS/DAMP=1%
   @DF-UKS iter 394:   -75.49530075409352    2.16414e-06   5.39193e-03 DIIS/ADIIS/DAMP=1%
   @DF-UKS iter 395:   -75.49530292883053   -2.17474e-06   5.39172e-03 DIIS/ADIIS/DAMP=1%
   @DF-UKS iter 396:   -75.49530298165678   -5.28263e-08   5.39172e-03 DIIS/ADIIS/DAMP=1%
   @DF-UKS iter 397:   -75.49530075372932    2.22793e-06   5.39193e-03 DIIS/ADIIS/DAMP=1%
   @DF-UKS iter 398:   -75.49530068451955    6.92098e-08   5.39194e-03 DIIS/ADIIS/DAMP=1%
   @DF-UKS iter 399:   -75.49530290607208   -2.22155e-06   5.39173e-03 DIIS/ADIIS/DAMP=1%
   @DF-UKS iter 400:   -75.49530074969452    2.15638e-06   5.39193e-03 DIIS/ADIIS/DAMP=1%
   @DF-UKS iter 401:   -75.49530068166379    6.80307e-08   5.39194e-03 DIIS/ADIIS/DAMP=1%
   @DF-UKS iter 402:   -75.49530447781903   -3.79616e-06   5.39120e-03 DIIS/ADIIS/DAMP=1%
   @DF-UKS iter 403:   -75.49530238500455    2.09281e-06   5.39149e-03 DIIS/ADIIS/DAMP=1%
   @DF-UKS iter 404:   -75.49530334733349   -9.62329e-07   5.39105e-03 DIIS/ADIIS/DAMP=1%
   @DF-UKS iter 405:   -75.49530676235294   -3.41502e-06   5.39138e-03 DIIS/ADIIS/DAMP=1%
   @DF-UKS iter 406:   -75.49530722535253   -4.63000e-07   5.39206e-03 DIIS/ADIIS/DAMP=1%
   @DF-UKS iter 407:   -75.49530571900431    1.50635e-06   5.39272e-03 DIIS/ADIIS/DAMP=1%
   @DF-UKS iter 408:   -75.49530539233707    3.26667e-07   5.39285e-03 DIIS/ADIIS/DAMP=1%
   @DF-UKS iter 409:   -75.49530243272321    2.95961e-06   5.39293e-03 DIIS/ADIIS/DAMP=1%
   @DF-UKS iter 410:   -75.49530268071089   -2.47988e-07   5.39310e-03 DIIS/ADIIS/DAMP=1%
   @DF-UKS iter 411:   -75.49530290279220   -2.22081e-07   5.39298e-03 DIIS/ADIIS/DAMP=1%
   @DF-UKS iter 412:   -75.49530383426082   -9.31469e-07   5.39257e-03 DIIS/ADIIS/DAMP=1%
   @DF-UKS iter 413:   -75.49530337469021    4.59571e-07   5.39278e-03 DIIS/ADIIS/DAMP=1%
   @DF-UKS iter 414:   -75.49530730633538   -3.93165e-06   5.39136e-03 DIIS/ADIIS/DAMP=1%
   @DF-UKS iter 415:   -75.49530245398518    4.85235e-06   5.39257e-03 DIIS/ADIIS/DAMP=1%
   @DF-UKS iter 416:   -75.49529779537518    4.65861e-06   5.39390e-03 DIIS/ADIIS/DAMP=1%
   @DF-UKS iter 417:   -75.49631179095641   -1.01400e-03   5.05740e-03 DIIS/ADIIS/DAMP=1%
   @DF-UKS iter 418:   -75.49630616444153    5.62651e-06   5.08331e-03 DIIS/ADIIS/DAMP=1%
   @DF-UKS iter 419:   -75.49629542510527    1.07393e-05   5.08431e-03 DIIS/ADIIS/DAMP=1%
   @DF-UKS iter 420:   -75.50411557350384   -7.82015e-03   1.84056e-04 DIIS/ADIIS/DAMP=1%
   @DF-UKS iter 421:   -75.50481636646077   -7.00793e-04   1.92385e-05 DIIS/DAMP=1%
   @DF-UKS iter 422:   -75.50486780181883   -5.14354e-05   1.36925e-06 DIIS/DAMP=1%
   @DF-UKS iter 423:   -75.50486335750908    4.44431e-06   1.21178e-07 DIIS/DAMP=1%
   @DF-UKS iter 424:   -75.50486300700395    3.50505e-07   8.91521e-09 DIIS/DAMP=1%
   @DF-UKS iter 425:   -75.50486303256812   -2.55642e-08   9.03778e-10 DIIS/DAMP=1%
   @DF-UKS iter 426:   -75.50486303667221   -4.10408e-09   9.57914e-11 DIIS/DAMP=1%
  Energy and wave function converged.


  ==> Post-Iterations <==

   Electrons on quadrature grid:
      Nalpha   =    7.0000003465 ; deviation = 3.465e-07
      Nbeta    =    4.0000002472 ; deviation = 2.472e-07
      Ntotal   =   11.0000005937 ; deviation = 5.937e-07 

   @Spin Contamination Metric:   2.828342892E-03
   @S^2 Expected:                3.750000000E+00
   @S^2 Observed:                3.752828343E+00
   @S   Expected:                1.500000000E+00
   @S   Observed:                1.500000000E+00

    Orbital Energies [Eh]
    ---------------------

    Alpha Occupied:                                                       

       1Ag   -10.719738     1B1u  -10.719207     2Ag    -1.179858  
       2B1u   -0.831636     3Ag    -0.705222     1B3u   -0.704288  
       1B2u   -0.704288  

    Alpha Virtual:                                                        

       1B2g   -0.433444     1B3g   -0.433444     3B1u   -0.113312  
       2B3u    0.002284     2B2u    0.002284     4Ag     0.017411  
       4B1u    0.038244     5Ag     0.038392     2B2g    0.096234  
       2B3g    0.096234     1B1g    0.223357     6Ag     0.223357  
       5B1u    0.339419     3B3u    0.341458     3B2u    0.341458  
       1Au     0.494804     6B1u    0.494804     3B2g    0.804928  
       3B3g    0.804928     7Ag     0.822423     7B1u    0.847521  
       4B3u    1.526440     4B2u    1.526440     8Ag     1.608807  
       4B2g    1.700942     4B3g    1.700942     2B1g    2.000146  
       9Ag     2.000146     5B3u    2.011856     5B2u    2.011856  
       8B1u    2.096922     6B2u    2.157950     6B3u    2.157950  
      10Ag     2.196607     5B3g    2.394575     5B2g    2.394575  
       3B1g    2.494692    11Ag     2.494694     2Au     2.572941  
       9B1u    2.572943    10B1u    2.632392     6B2g    2.680247  
       6B3g    2.680247     3Au     2.874956    11B1u    2.874957  
       7B3u    2.877948     7B2u    2.877948    12B1u    3.244141  
      12Ag     3.431084    13Ag     3.625117     7B2g    3.737172  
       7B3g    3.737172    13B1u    8.216756  

    Beta Occupied:                                                        

       1Ag   -10.694656     1B1u  -10.694422     2Ag    -1.079092  
       2B1u   -0.712542  

    Beta Virtual:                                                         

       1B3u   -0.542296     1B2u   -0.542296     3Ag    -0.536580  
       1B3g   -0.336187     1B2g   -0.336187     3B1u   -0.065841  
       2B3u    0.029353     2B2u    0.029353     4Ag     0.048197  
       5Ag     0.073185     4B1u    0.098191     2B3g    0.119530  
       2B2g    0.119530     1B1g    0.277025     6Ag     0.277025  
       5B1u    0.363174     3B2u    0.403223     3B3u    0.403223  
       1Au     0.539325     6B1u    0.539325     3B3g    0.846630  
       3B2g    0.846630     7Ag     0.873829     7B1u    0.891343  
       4B3u    1.584302     4B2u    1.584302     8Ag     1.671167  
       4B2g    1.757934     4B3g    1.757934     2B1g    2.069032  
       9Ag     2.069033     5B3u    2.080900     5B2u    2.080900  
       8B1u    2.153698     6B2u    2.226334     6B3u    2.226334  
      10Ag     2.274247     5B3g    2.461752     5B2g    2.461752  
       3B1g    2.582345    11Ag     2.582349     2Au     2.656747  
       9B1u    2.656751    10B1u    2.709004     6B3g    2.761764  
       6B2g    2.761764     3Au     2.944720    11B1u    2.944722  
       7B2u    2.961120     7B3u    2.961120    12B1u    3.314421  
      12Ag     3.489424    13Ag     3.683900     7B2g    3.804971  
       7B3g    3.804971    13B1u    8.259462  

    Final Occupation by Irrep:
             Ag   B1g   B2g   B3g    Au   B1u   B2u   B3u 
    DOCC [     2,    0,    0,    0,    0,    2,    0,    0 ]
    SOCC [     1,    0,    0,    0,    0,    0,    1,    1 ]
    NA   [     3,    0,    0,    0,    0,    2,    1,    1 ]
    NB   [     2,    0,    0,    0,    0,    2,    0,    0 ]

  @DF-UKS Final Energy:   -75.50486303667221

   => Energetics <=

    Nuclear Repulsion Energy =             13.1024006724526956
    One-Electron Energy =                -122.5214407099491609
    Two-Electron Energy =                  42.1606099453504513
    DFT Exchange-Correlation Energy =      -8.2464329445261733
    Empirical Dispersion Energy =           0.0000000000000000
    VV10 Nonlocal Energy =                  0.0000000000000000
    Total Energy =                        -75.5048630366722051

  UHF NO Occupations:
  HONO-2 :    1B3u 1.0000000
  HONO-1 :    1B2u 1.0000000
  HONO-0 :    3 Ag 1.0000000
  LUNO+0 :    3B1u 0.0013268
  LUNO+1 :    4 Ag 0.0000867
  LUNO+2 :    4B1u 0.0000009
  LUNO+3 :    5 Ag 0.0000007


Computation Completed


Properties will be evaluated at   0.000000,   0.000000,   0.000000 [a0]

Properties computed using the SCF density matrix


 Multipole Moments:

 ------------------------------------------------------------------------------------
     Multipole            Electronic (a.u.)      Nuclear  (a.u.)        Total (a.u.)
 ------------------------------------------------------------------------------------

 L = 1.  Multiply by 2.5417464519 to convert [e a0] to [Debye]
 Dipole X            :          0.0000000            0.0000000            0.0000000
 Dipole Y            :          0.0000000            0.0000000            0.0000000
 Dipole Z            :          0.0000000            0.0000000            0.0000000
 Magnitude           :                                                    0.0000000

 ------------------------------------------------------------------------------------

*** tstop() called on Mac.lan at Sun Aug 10 18:22:32 2025
Module time:
	user time   =    1172.18 seconds =      19.54 minutes
	system time =    1014.91 seconds =      16.92 minutes
	total time  =        366 seconds =       6.10 minutes
Total time:
	user time   =    1172.18 seconds =      19.54 minutes
	system time =    1014.91 seconds =      16.92 minutes
	total time  =        366 seconds =       6.10 minutes

*** tstart() called on Mac.lan
*** at Sun Aug 10 18:22:32 2025

   => Libint2 <=

    Primary   basis highest AM E, G, H:  6, 6, 3
    Auxiliary basis highest AM E, G, H:  7, 7, 4
    Onebody   basis highest AM E, G, H:  -, -, -
    Solid Harmonics ordering:            Gaussian
   => Loading Basis Set <=

    Name: CC-PVTZ
    Role: ORBITAL
    Keyword: BASIS
    atoms 1-2 entry C          line   186 file /Users/joseantoniorodriguesromero/anaconda3/share/psi4/basis/cc-pvtz.gbs 


         ---------------------------------------------------------
                                   SCF
               by Justin Turney, Rob Parrish, Andy Simmonett
                          and Daniel G. A. Smith
                              UKS Reference
                        1 Threads,    500 MiB Core
         ---------------------------------------------------------

  ==> Geometry <==

    Molecular point group: d2h
    Full point group: D_inf_h

    Geometry (in Angstrom), charge = 1, multiplicity = 4:

       Center              X                  Y                   Z               Mass       
    ------------   -----------------  -----------------  -----------------  -----------------
         C            0.000000000000     0.000000000000    -0.726980500000    12.000000000000
         C            0.000000000000     0.000000000000     0.726980500000    12.000000000000

  Running in d2h symmetry.

  Rotational constants: A = ************  B =      1.32905  C =      1.32905 [cm^-1]
  Rotational constants: A = ************  B =  39843.77088  C =  39843.77088 [MHz]
  Nuclear repulsion =   13.102400672452696

  Charge       = 1
  Multiplicity = 4
  Electrons    = 11
  Nalpha       = 7
  Nbeta        = 4

  ==> Algorithm <==

  SCF Algorithm Type is DF.
  DIIS enabled.
  MOM disabled.
  Fractional occupation disabled.
  Guess Type is READ.
  Energy threshold   = 1.00e-08
  Density threshold  = 1.00e-08
  Integral threshold = 1.00e-12

  ==> Primary Basis <==

  Basis Set: CC-PVTZ
    Blend: CC-PVTZ
    Number of shells: 20
    Number of basis functions: 60
    Number of Cartesian functions: 70
    Spherical Harmonics?: true
    Max angular momentum: 3

  ==> DFT Potential <==

   => LibXC <=

    Version 6.2.2
    S. Lehtola, C. Steigemann, M. J.T. Oliveira, and M. A.L. Marques.,  SoftwareX 7, 1–5 (2018) (10.1016/j.softx.2017.11.002)

   => Composite Functional: B3LYP <= 

    B3LYP Hyb-GGA Exchange-Correlation Functional

    P. J. Stephens, F. J. Devlin, C. F. Chabalowski, and M. J. Frisch.,  J. Phys. Chem. 98, 11623 (1994) (10.1021/j100096a001)

    Deriv               =              1
    GGA                 =           TRUE
    Meta                =          FALSE

    Exchange Hybrid     =           TRUE
    MP2 Hybrid          =          FALSE

   => Exchange Functionals <=

    0.0800   Slater exchange
    0.7200         Becke 88

   => Exact (HF) Exchange <=

    0.2000               HF 

   => Correlation Functionals <=

    0.1900   Vosko, Wilk & Nusair (VWN5_RPA)
    0.8100   Lee, Yang & Parr

   => LibXC Density Thresholds  <==

    XC_HYB_GGA_XC_B3LYP:  1.00E-15 

   => Molecular Quadrature <=

    Radial Scheme          =       TREUTLER
    Pruning Scheme         =           NONE
    Nuclear Scheme         =       TREUTLER

    Blocking Scheme        =         OCTREE
    BS radius alpha        =              1
    Pruning alpha          =              1
    Radial Points          =             75
    Spherical Points       =            302
    Total Points           =          43010
    Total Blocks           =            390
    Max Points             =            255
    Max Functions          =             60
    Weights Tolerance      =       1.00E-15

   => Loading Basis Set <=

    Name: (CC-PVTZ AUX)
    Role: JKFIT
    Keyword: DF_BASIS_SCF
    atoms 1-2 entry C          line   125 file /Users/joseantoniorodriguesromero/anaconda3/share/psi4/basis/cc-pvtz-jkfit.gbs 

   => Loading Basis Set <=

    Name: CC-PVTZ
    Role: ORBITAL
    Keyword: BASIS
    atoms 1-2 entry C          line   186 file /Users/joseantoniorodriguesromero/anaconda3/share/psi4/basis/cc-pvtz.gbs 

  Reading orbitals from file /tmp/scan_CC_32.default.49922.180.npy, no projection.

  ==> Integral Setup <==

  DFHelper Memory: AOs need 0.005 GiB; user supplied 0.293 GiB. 
  Using in-core AOs.

  ==> MemDFJK: Density-Fitted J/K Matrices <==

    J tasked:                   Yes
    K tasked:                   Yes
    wK tasked:                   No
    OpenMP threads:               1
    Memory [MiB]:               300
    Algorithm:                 Core
    Schwarz Cutoff:           1E-12
    Mask sparsity (%):       0.0000
    Fitting Condition:        1E-10

   => Auxiliary Basis Set <=

  Basis Set: (CC-PVTZ AUX)
    Blend: CC-PVTZ-JKFIT
    Number of shells: 50
    Number of basis functions: 158
    Number of Cartesian functions: 192
    Spherical Harmonics?: true
    Max angular momentum: 4

  Cached 100.0% of DFT collocation blocks in 0.073 [GiB].

  Minimum eigenvalue in the overlap matrix is 3.4119610978E-03.
  Reciprocal condition number of the overlap matrix is 9.3890951098E-04.
    Using symmetric orthogonalization.

  ==> Pre-Iterations <==

  SCF Guess: Orbitals guess was supplied from a previous computation.

   -------------------------------------------------------
    Irrep   Nso     Nmo     Nalpha   Nbeta   Ndocc  Nsocc
   -------------------------------------------------------
     Ag        13      13       3       2       2       1
     B1g        3       3       0       0       0       0
     B2g        7       7       0       0       0       0
     B3g        7       7       0       0       0       0
     Au         3       3       0       0       0       0
     B1u       13      13       2       2       2       0
     B2u        7       7       1       0       0       1
     B3u        7       7       1       0       0       1
   -------------------------------------------------------
    Total      60      60       7       4       4       3
   -------------------------------------------------------

  ==> Iterations <==

                           Total Energy        Delta E     RMS |[F,P]|

   @DF-UKS iter   0:   -75.50486303649862   -7.55049e+01   6.08619e-12 
   @DF-UKS iter   1:   -75.50486303649851    1.13687e-13   2.19089e-12 DIIS
  Energy and wave function converged.


  ==> Post-Iterations <==

   Electrons on quadrature grid:
      Nalpha   =    7.0000003465 ; deviation = 3.465e-07
      Nbeta    =    4.0000002472 ; deviation = 2.472e-07
      Ntotal   =   11.0000005937 ; deviation = 5.937e-07 

   @Spin Contamination Metric:   2.828342896E-03
   @S^2 Expected:                3.750000000E+00
   @S^2 Observed:                3.752828343E+00
   @S   Expected:                1.500000000E+00
   @S   Observed:                1.500000000E+00

    Orbital Energies [Eh]
    ---------------------

    Alpha Occupied:                                                       

       1Ag   -10.719738     1B1u  -10.719207     2Ag    -1.179858  
       2B1u   -0.831636     3Ag    -0.705222     1B3u   -0.704288  
       1B2u   -0.704288  

    Alpha Virtual:                                                        

       1B2g   -0.433444     1B3g   -0.433444     3B1u   -0.113312  
       2B3u    0.002284     2B2u    0.002284     4Ag     0.017411  
       4B1u    0.038244     5Ag     0.038392     2B2g    0.096234  
       2B3g    0.096234     1B1g    0.223357     6Ag     0.223357  
       5B1u    0.339419     3B3u    0.341458     3B2u    0.341458  
       1Au     0.494804     6B1u    0.494804     3B2g    0.804928  
       3B3g    0.804928     7Ag     0.822423     7B1u    0.847521  
       4B2u    1.526440     4B3u    1.526440     8Ag     1.608807  
       4B2g    1.700942     4B3g    1.700942     2B1g    2.000146  
       9Ag     2.000146     5B3u    2.011856     5B2u    2.011856  
       8B1u    2.096922     6B2u    2.157950     6B3u    2.157950  
      10Ag     2.196607     5B3g    2.394575     5B2g    2.394575  
       3B1g    2.494692    11Ag     2.494694     2Au     2.572941  
       9B1u    2.572943    10B1u    2.632392     6B2g    2.680247  
       6B3g    2.680247     3Au     2.874956    11B1u    2.874957  
       7B3u    2.877948     7B2u    2.877948    12B1u    3.244141  
      12Ag     3.431084    13Ag     3.625117     7B3g    3.737172  
       7B2g    3.737172    13B1u    8.216756  

    Beta Occupied:                                                        

       1Ag   -10.694656     1B1u  -10.694422     2Ag    -1.079092  
       2B1u   -0.712542  

    Beta Virtual:                                                         

       1B2u   -0.542296     1B3u   -0.542296     3Ag    -0.536580  
       1B3g   -0.336187     1B2g   -0.336187     3B1u   -0.065841  
       2B2u    0.029353     2B3u    0.029353     4Ag     0.048197  
       5Ag     0.073185     4B1u    0.098191     2B2g    0.119530  
       2B3g    0.119530     1B1g    0.277025     6Ag     0.277025  
       5B1u    0.363174     3B2u    0.403223     3B3u    0.403223  
       1Au     0.539325     6B1u    0.539325     3B3g    0.846630  
       3B2g    0.846630     7Ag     0.873829     7B1u    0.891343  
       4B2u    1.584302     4B3u    1.584302     8Ag     1.671167  
       4B3g    1.757934     4B2g    1.757934     2B1g    2.069032  
       9Ag     2.069033     5B2u    2.080900     5B3u    2.080900  
       8B1u    2.153698     6B2u    2.226334     6B3u    2.226334  
      10Ag     2.274247     5B3g    2.461752     5B2g    2.461752  
       3B1g    2.582345    11Ag     2.582349     2Au     2.656747  
       9B1u    2.656751    10B1u    2.709004     6B3g    2.761764  
       6B2g    2.761764     3Au     2.944720    11B1u    2.944722  
       7B2u    2.961120     7B3u    2.961120    12B1u    3.314421  
      12Ag     3.489424    13Ag     3.683900     7B3g    3.804971  
       7B2g    3.804971    13B1u    8.259462  

    Final Occupation by Irrep:
             Ag   B1g   B2g   B3g    Au   B1u   B2u   B3u 
    DOCC [     2,    0,    0,    0,    0,    2,    0,    0 ]
    SOCC [     1,    0,    0,    0,    0,    0,    1,    1 ]
    NA   [     3,    0,    0,    0,    0,    2,    1,    1 ]
    NB   [     2,    0,    0,    0,    0,    2,    0,    0 ]

  @DF-UKS Final Energy:   -75.50486303649851

   => Energetics <=

    Nuclear Repulsion Energy =             13.1024006724526956
    One-Electron Energy =                -122.5214407149708791
    Two-Electron Energy =                  42.1606099511992838
    DFT Exchange-Correlation Energy =      -8.2464329451795990
    Empirical Dispersion Energy =           0.0000000000000000
    VV10 Nonlocal Energy =                  0.0000000000000000
    Total Energy =                        -75.5048630364985058

  UHF NO Occupations:
  HONO-2 :    1B2u 1.0000000
  HONO-1 :    1B3u 1.0000000
  HONO-0 :    3 Ag 1.0000000
  LUNO+0 :    3B1u 0.0013268
  LUNO+1 :    4 Ag 0.0000867
  LUNO+2 :    4B1u 0.0000009
  LUNO+3 :    5 Ag 0.0000007


Computation Completed


Properties will be evaluated at   0.000000,   0.000000,   0.000000 [a0]

Properties computed using the B3LYP density matrix


 Multipole Moments:

 ------------------------------------------------------------------------------------
     Multipole            Electronic (a.u.)      Nuclear  (a.u.)        Total (a.u.)
 ------------------------------------------------------------------------------------

 L = 1.  Multiply by 2.5417464519 to convert [e a0] to [Debye]
 Dipole X            :          0.0000000            0.0000000            0.0000000
 Dipole Y            :          0.0000000            0.0000000            0.0000000
 Dipole Z            :          0.0000000            0.0000000            0.0000000
 Magnitude           :                                                    0.0000000

 L = 2.  Multiply by 1.3450342976 to convert [e a0^2] to [Debye ang]
 Quadrupole XX       :         -6.4733604            0.0000000           -6.4733604
 Quadrupole XY       :          0.0000000            0.0000000            0.0000000
 Quadrupole XZ       :          0.0000000            0.0000000            0.0000000
 Quadrupole YY       :         -6.4733604            0.0000000           -6.4733604
 Quadrupole YZ       :          0.0000000            0.0000000            0.0000000
 Quadrupole ZZ       :        -27.6833971           22.6477209           -5.0356762
 Traceless XX        :          7.0700122           -7.5492403           -0.4792281
 Traceless YY        :          7.0700122           -7.5492403           -0.4792281
 Traceless ZZ        :        -14.1400245           15.0984806            0.9584561

 ------------------------------------------------------------------------------------
  ==> Computing MBIS Charges <==

  Electron Count from Grid (Expected Number): 11.00000 (11.00000)
  Difference:  0.00000

  MBIS Charges: (a.u.)
   Center  Symbol  Z      Pop.       Charge
      1       C    6    5.500000    0.500000
      2       C    6    5.500000    0.500000

  MBIS Dipoles: [e a0]
   Center  Symbol  Z        X           Y           Z
      1       C    6   -0.000000    0.000000   -0.082519
      2       C    6   -0.000000    0.000000    0.082519

  MBIS Quadrupoles: [e a0^2]
   Center  Symbol  Z      XX        XY        XZ        YY        YZ        ZZ
      1       C    6   -3.2367   -0.0000   -0.0000   -3.2367   -0.0000   -3.6882
      2       C    6   -3.2367    0.0000    0.0000   -3.2367    0.0000   -3.6882

  MBIS Octupoles: [e a0^3]
   Center  Symbol  Z      XXX       XXY       XXZ       XYY       XYZ       XZZ       YYY       YYZ       YZZ       ZZZ
      1       C    6   -0.0000   -0.0000   -0.0852   -0.0000    0.0000   -0.0000    0.0000   -0.0852    0.0000   -0.3451
      2       C    6   -0.0000    0.0000    0.0852   -0.0000    0.0000   -0.0000    0.0000    0.0852    0.0000    0.3451

  MBIS Radial Moments:
   Center  Symbol  Z      [a0^2]      [a0^3]      [a0^4]      
      1       C    6   10.161582   22.330422   58.423491
      2       C    6   10.161582   22.330422   58.423491

  MBIS Valence Widths: [a0]
   Center  Symbol  Z     Width
      1       C    6    0.474606
      2       C    6    0.474606

*** tstop() called on Mac.lan at Sun Aug 10 18:22:32 2025
Module time:
	user time   =       3.79 seconds =       0.06 minutes
	system time =       0.77 seconds =       0.01 minutes
	total time  =          0 seconds =       0.00 minutes
Total time:
	user time   =    1176.00 seconds =      19.60 minutes
	system time =    1015.68 seconds =      16.93 minutes
	total time  =        366 seconds =       6.10 minutes

    Psi4 stopped on: Sunday, 10 August 2025 06:22PM
    Psi4 wall time for execution: 0:06:06.12

*** Psi4 exiting successfully. Buy a developer a beer!
