
    -----------------------------------------------------------------------
          Psi4: An Open-Source Ab Initio Electronic Structure Package
                               Psi4 1.9.1 release

                         Git: Rev {} zzzzzzz 


    D. G. A. Smith, L. A. Burns, A. C. Simmonett, R. M. Parrish,
    M. C. Schieber, R. Galvelis, P. Kraus, H. Kruse, R. Di Remigio,
    A. Alenaizan, A. M. James, S. Lehtola, J. P. Misiewicz, M. Scheurer,
    R. A. Shaw, J. B. Schriber, Y. Xie, Z. L. Glick, D. A. Sirianni,
    J. S. O'Brien, J. M. Waldrop, A. Kumar, E. G. Hohenstein,
    B. P. Pritchard, B. R. Brooks, H. F. Schaefer III, A. Yu. Sokolov,
    K. Patkowski, A. E. DePrince III, U. Bozkaya, R. A. King,
    F. A. Evangelista, J. M. Turney, T. D. Crawford, C. D. Sherrill,
    J. Chem. Phys. 152(18) 184108 (2020). https://doi.org/10.1063/5.0006002

                            Additional Code Authors
    E. T. Seidl, C. L. Janssen, E. F. Valeev, M. L. Leininger,
    J. F. Gonthier, R. M. Richard, H. R. McAlexander, M. Saitow, X. Wang,
    P. Verma, M. H. Lechner, A. Jiang, S. Behnle, A. G. Heide,
    M. F. Herbst, and D. L. Poole

             Previous Authors, Complete List of Code Contributors,
                       and Citations for Specific Modules
    https://github.com/psi4/psi4/blob/master/codemeta.json
    https://github.com/psi4/psi4/graphs/contributors
    http://psicode.org/psi4manual/master/introduction.html#citing-psifour

    -----------------------------------------------------------------------


    Psi4 started on: Sunday, 10 August 2025 06:38PM

    Process ID: 50479
    Host:       Mac.lan
    PSIDATADIR: /Users/joseantoniorodriguesromero/anaconda3/share/psi4
    Memory:     500.0 MiB
    Threads:    1
    
  ==> Input File <==

--------------------------------------------------------------------------
molecule { 
1 2
O           0.000000           0.000000           0.000000
C           0.000000           0.000000           1.440723
}

set { 
basis              cc-pvtz
reference          uks
maxiter            500
DAMPING_PERCENTAGE 1
E_CONVERGENCE      1.0E-8
D_CONVERGENCE      1.0E-8
DIIS_MAX_VECS      400
MBIS_MAXITER       8000
guess              read
}

E, wfn = energy('b3lyp', restart_file='last_wfn', return_wfn=True)
properties('b3lyp','MBIS_CHARGES', wfn=wfn)
wfn.to_file('last_wfn')
--------------------------------------------------------------------------

Scratch directory: /tmp/
 Found user provided orbital data. Setting orbital guess to READ 
 Copying restart file <last_wfn.npy> to </tmp/scan_CO_39.default.50479.180.npy> for internal processing
   => Libint2 <=

    Primary   basis highest AM E, G, H:  6, 6, 3
    Auxiliary basis highest AM E, G, H:  7, 7, 4
    Onebody   basis highest AM E, G, H:  -, -, -
    Solid Harmonics ordering:            Gaussian

*** tstart() called on Mac.lan
*** at Sun Aug 10 18:38:25 2025

   => Loading Basis Set <=

    Name: CC-PVTZ
    Role: ORBITAL
    Keyword: BASIS
    atoms 1 entry O          line   262 file /Users/joseantoniorodriguesromero/anaconda3/share/psi4/basis/cc-pvtz.gbs 
    atoms 2 entry C          line   186 file /Users/joseantoniorodriguesromero/anaconda3/share/psi4/basis/cc-pvtz.gbs 


         ---------------------------------------------------------
                                   SCF
               by Justin Turney, Rob Parrish, Andy Simmonett
                          and Daniel G. A. Smith
                              UKS Reference
                        1 Threads,    500 MiB Core
         ---------------------------------------------------------

  ==> Geometry <==

    Molecular point group: c2v
    Full point group: C_inf_v

    Geometry (in Angstrom), charge = 1, multiplicity = 2:

       Center              X                  Y                   Z               Mass       
    ------------   -----------------  -----------------  -----------------  -----------------
         O            0.000000000000     0.000000000000    -0.617564876869    15.994914619570
         C            0.000000000000     0.000000000000     0.823158123131    12.000000000000

  Running in c2v symmetry.

  Rotational constants: A = ************  B =      1.18454  C =      1.18454 [cm^-1]
  Rotational constants: A = ************  B =  35511.75989  C =  35511.75989 [MHz]
  Nuclear repulsion =   17.630388431475030

  Charge       = 1
  Multiplicity = 2
  Electrons    = 13
  Nalpha       = 7
  Nbeta        = 6

  ==> Algorithm <==

  SCF Algorithm Type is DF.
  DIIS enabled.
  MOM disabled.
  Fractional occupation disabled.
  Guess Type is READ.
  Energy threshold   = 1.00e-08
  Density threshold  = 1.00e-08
  Integral threshold = 1.00e-12

  ==> Primary Basis <==

  Basis Set: CC-PVTZ
    Blend: CC-PVTZ
    Number of shells: 20
    Number of basis functions: 60
    Number of Cartesian functions: 70
    Spherical Harmonics?: true
    Max angular momentum: 3

  ==> DFT Potential <==

   => LibXC <=

    Version 6.2.2
    S. Lehtola, C. Steigemann, M. J.T. Oliveira, and M. A.L. Marques.,  SoftwareX 7, 1–5 (2018) (10.1016/j.softx.2017.11.002)

   => Composite Functional: B3LYP <= 

    B3LYP Hyb-GGA Exchange-Correlation Functional

    P. J. Stephens, F. J. Devlin, C. F. Chabalowski, and M. J. Frisch.,  J. Phys. Chem. 98, 11623 (1994) (10.1021/j100096a001)

    Deriv               =              1
    GGA                 =           TRUE
    Meta                =          FALSE

    Exchange Hybrid     =           TRUE
    MP2 Hybrid          =          FALSE

   => Exchange Functionals <=

    0.0800   Slater exchange
    0.7200         Becke 88

   => Exact (HF) Exchange <=

    0.2000               HF 

   => Correlation Functionals <=

    0.1900   Vosko, Wilk & Nusair (VWN5_RPA)
    0.8100   Lee, Yang & Parr

   => LibXC Density Thresholds  <==

    XC_HYB_GGA_XC_B3LYP:  1.00E-15 

   => Molecular Quadrature <=

    Radial Scheme          =       TREUTLER
    Pruning Scheme         =           NONE
    Nuclear Scheme         =       TREUTLER

    Blocking Scheme        =         OCTREE
    BS radius alpha        =              1
    Pruning alpha          =              1
    Radial Points          =             75
    Spherical Points       =            302
    Total Points           =          43325
    Total Blocks           =            391
    Max Points             =            256
    Max Functions          =             60
    Weights Tolerance      =       1.00E-15

   => Loading Basis Set <=

    Name: (CC-PVTZ AUX)
    Role: JKFIT
    Keyword: DF_BASIS_SCF
    atoms 1 entry O          line   229 file /Users/joseantoniorodriguesromero/anaconda3/share/psi4/basis/cc-pvtz-jkfit.gbs 
    atoms 2 entry C          line   125 file /Users/joseantoniorodriguesromero/anaconda3/share/psi4/basis/cc-pvtz-jkfit.gbs 

   => Loading Basis Set <=

    Name: CC-PVTZ
    Role: ORBITAL
    Keyword: BASIS
    atoms 1 entry O          line   262 file /Users/joseantoniorodriguesromero/anaconda3/share/psi4/basis/cc-pvtz.gbs 
    atoms 2 entry C          line   186 file /Users/joseantoniorodriguesromero/anaconda3/share/psi4/basis/cc-pvtz.gbs 

  Reading orbitals from file /tmp/scan_CO_39.default.50479.180.npy, no projection.

  ==> Integral Setup <==

  DFHelper Memory: AOs need 0.005 GiB; user supplied 0.295 GiB. 
  Using in-core AOs.

  ==> MemDFJK: Density-Fitted J/K Matrices <==

    J tasked:                   Yes
    K tasked:                   Yes
    wK tasked:                   No
    OpenMP threads:               1
    Memory [MiB]:               301
    Algorithm:                 Core
    Schwarz Cutoff:           1E-12
    Mask sparsity (%):       0.0000
    Fitting Condition:        1E-10

   => Auxiliary Basis Set <=

  Basis Set: (CC-PVTZ AUX)
    Blend: CC-PVTZ-JKFIT
    Number of shells: 50
    Number of basis functions: 158
    Number of Cartesian functions: 192
    Spherical Harmonics?: true
    Max angular momentum: 4

  Cached 100.0% of DFT collocation blocks in 0.071 [GiB].

  Minimum eigenvalue in the overlap matrix is 6.8944785222E-03.
  Reciprocal condition number of the overlap matrix is 1.8576078202E-03.
    Using symmetric orthogonalization.

  ==> Pre-Iterations <==

  SCF Guess: Orbitals guess was supplied from a previous computation.

   -------------------------------------------------------
    Irrep   Nso     Nmo     Nalpha   Nbeta   Ndocc  Nsocc
   -------------------------------------------------------
     A1        26      26       5       4       4       1
     A2         6       6       0       0       0       0
     B1        14      14       1       1       1       0
     B2        14      14       1       1       1       0
   -------------------------------------------------------
    Total      60      60       7       6       6       1
   -------------------------------------------------------

  ==> Iterations <==

                           Total Energy        Delta E     RMS |[F,P]|

   @DF-UKS iter   0:  -112.68439664944322   -1.12684e+02   1.25491e-03 
   @DF-UKS iter   1:  -112.71346673534953   -2.90701e-02   6.20694e-04 ADIIS/DIIS
   @DF-UKS iter   2:  -112.71107456551431    2.39217e-03   2.46143e-03 ADIIS/DIIS/DAMP=1%
   @DF-UKS iter   3:  -112.71226924900320   -1.19468e-03   4.10054e-04 ADIIS/DIIS/DAMP=1%
   @DF-UKS iter   4:  -112.71375727934598   -1.48803e-03   5.37583e-05 DIIS/DAMP=1%
   @DF-UKS iter   5:  -112.71362401358552    1.33266e-04   3.19282e-05 DIIS/DAMP=1%
   @DF-UKS iter   6:  -112.71367426742432   -5.02538e-05   6.99224e-06 DIIS/DAMP=1%
   @DF-UKS iter   7:  -112.71365800479384    1.62626e-05   6.35790e-06 DIIS/DAMP=1%
   @DF-UKS iter   8:  -112.71366166907686   -3.66428e-06   2.79302e-06 DIIS/DAMP=1%
   @DF-UKS iter   9:  -112.71366152558821    1.43489e-07   6.52635e-07 DIIS/DAMP=1%
   @DF-UKS iter  10:  -112.71366011630222    1.40929e-06   1.20874e-07 DIIS/DAMP=1%
   @DF-UKS iter  11:  -112.71365984376166    2.72541e-07   4.06846e-08 DIIS/DAMP=1%
   @DF-UKS iter  12:  -112.71365986239104   -1.86294e-08   6.52280e-09 DIIS/DAMP=1%
   @DF-UKS iter  13:  -112.71365986406389   -1.67284e-09   2.10248e-09 DIIS/DAMP=1%
  Energy and wave function converged.


  ==> Post-Iterations <==

   Electrons on quadrature grid:
      Nalpha   =    6.9999995936 ; deviation = -4.064e-07
      Nbeta    =    5.9999994936 ; deviation = -5.064e-07
      Ntotal   =   12.9999990872 ; deviation = -9.128e-07 

   @Spin Contamination Metric:   3.116518966E-02
   @S^2 Expected:                7.500000000E-01
   @S^2 Observed:                7.811651897E-01
   @S   Expected:                5.000000000E-01
   @S   Observed:                5.000000000E-01

    Orbital Energies [Eh]
    ---------------------

    Alpha Occupied:                                                       

       1A1   -19.669691     2A1   -10.855875     3A1    -1.418274  
       4A1    -1.003476     5A1    -0.839720     1B2    -0.770018  
       1B1    -0.770018  

    Alpha Virtual:                                                        

       2B2    -0.521015     2B1    -0.521015     6A1    -0.266799  
       7A1    -0.010943     8A1    -0.001023     3B2     0.004201  
       3B1     0.004201     9A1     0.244493     1A2     0.297433  
      10A1     0.297433     4B1     0.305551     4B2     0.305551  
       5B1     0.419987     5B2     0.419987    11A1     0.665714  
      12A1     0.874050    13A1     1.122497     2A2     1.122497  
       6B1     1.306093     6B2     1.306093    14A1     1.573368  
       7B2     1.590606     7B1     1.590606    15A1     1.776700  
       8B1     2.232767     8B2     2.232767     3A2     2.278652  
      16A1     2.278653     9B2     2.426327     9B1     2.426327  
       4A2     2.466511    17A1     2.466513    18A1     2.515865  
      10B1     2.683673    10B2     2.683673    19A1     2.743651  
      20A1     3.328881    11B1     3.372085    11B2     3.372085  
      12B2     4.719390    12B1     4.719390    21A1     4.720402  
      22A1     4.806075     5A2     4.806077    13B2     5.147044  
      13B1     5.147044    23A1     5.638154     6A2     5.796304  
      24A1     5.796337    14B1     6.166406    14B2     6.166406  
      25A1     6.801603    26A1     8.295312  

    Beta Occupied:                                                        

       1A1   -19.664852     2A1   -10.837872     3A1    -1.399707  
       4A1    -0.934528     1B2    -0.770621     1B1    -0.770621  

    Beta Virtual:                                                         

       5A1    -0.659533     2B2    -0.489298     2B1    -0.489298  
       6A1    -0.216735     7A1    -0.000796     3B2     0.012825  
       3B1     0.012825     8A1     0.040433     9A1     0.261194  
       4B1     0.309246     4B2     0.309246     1A2     0.313886  
      10A1     0.313886     5B1     0.446245     5B2     0.446245  
      11A1     0.703716    12A1     0.884889    13A1     1.118565  
       2A2     1.118565     6B1     1.331654     6B2     1.331654  
      14A1     1.608025     7B2     1.609315     7B1     1.609315  
      15A1     1.827938     8B1     2.258474     8B2     2.258474  
       3A2     2.309052    16A1     2.309052     9B2     2.464129  
       9B1     2.464129     4A2     2.507449    17A1     2.507451  
      18A1     2.567126    10B1     2.747383    10B2     2.747383  
      19A1     2.821323    20A1     3.369577    11B1     3.372707  
      11B2     3.372707    12B2     4.706806    12B1     4.706806  
      21A1     4.743676    22A1     4.815217     5A2     4.815219  
      13B2     5.172056    13B1     5.172056    23A1     5.686328  
       6A2     5.782037    24A1     5.782071    14B1     6.196163  
      14B2     6.196163    25A1     6.839265    26A1     8.305337  

    Final Occupation by Irrep:
             A1    A2    B1    B2 
    DOCC [     4,    0,    1,    1 ]
    SOCC [     1,    0,    0,    0 ]
    NA   [     5,    0,    1,    1 ]
    NB   [     4,    0,    1,    1 ]

  @DF-UKS Final Energy:  -112.71365986406389

   => Energetics <=

    Nuclear Repulsion Energy =             17.6303884314750299
    One-Electron Energy =                -183.2492329216721600
    Two-Electron Energy =                  63.6435109728944326
    DFT Exchange-Correlation Energy =     -10.7383263467612000
    Empirical Dispersion Energy =           0.0000000000000000
    VV10 Nonlocal Energy =                  0.0000000000000000
    Total Energy =                       -112.7136598640638852

  UHF NO Occupations:
  HONO-2 :    1 B1 1.9939496
  HONO-1 :    1 B2 1.9939496
  HONO-0 :    5 A1 1.0000000
  LUNO+0 :    2 B1 0.0060504
  LUNO+1 :    2 B2 0.0060504
  LUNO+2 :    6 A1 0.0034200
  LUNO+3 :    7 A1 0.0001039


Computation Completed


Properties will be evaluated at   0.000000,   0.000000,   0.000000 [a0]

Properties computed using the SCF density matrix


 Multipole Moments:

 ------------------------------------------------------------------------------------
     Multipole            Electronic (a.u.)      Nuclear  (a.u.)        Total (a.u.)
 ------------------------------------------------------------------------------------

 L = 1.  Multiply by 2.5417464519 to convert [e a0] to [Debye]
 Dipole X            :          0.0000000            0.0000000            0.0000000
 Dipole Y            :          0.0000000            0.0000000            0.0000000
 Dipole Z            :          1.1920028           -0.0029674            1.1890354
 Magnitude           :                                                    1.1890354

 ------------------------------------------------------------------------------------

*** tstop() called on Mac.lan at Sun Aug 10 18:38:27 2025
Module time:
	user time   =      16.61 seconds =       0.28 minutes
	system time =       2.07 seconds =       0.03 minutes
	total time  =          2 seconds =       0.03 minutes
Total time:
	user time   =      16.61 seconds =       0.28 minutes
	system time =       2.07 seconds =       0.03 minutes
	total time  =          2 seconds =       0.03 minutes

*** tstart() called on Mac.lan
*** at Sun Aug 10 18:38:27 2025

   => Libint2 <=

    Primary   basis highest AM E, G, H:  6, 6, 3
    Auxiliary basis highest AM E, G, H:  7, 7, 4
    Onebody   basis highest AM E, G, H:  -, -, -
    Solid Harmonics ordering:            Gaussian
   => Loading Basis Set <=

    Name: CC-PVTZ
    Role: ORBITAL
    Keyword: BASIS
    atoms 1 entry O          line   262 file /Users/joseantoniorodriguesromero/anaconda3/share/psi4/basis/cc-pvtz.gbs 
    atoms 2 entry C          line   186 file /Users/joseantoniorodriguesromero/anaconda3/share/psi4/basis/cc-pvtz.gbs 


         ---------------------------------------------------------
                                   SCF
               by Justin Turney, Rob Parrish, Andy Simmonett
                          and Daniel G. A. Smith
                              UKS Reference
                        1 Threads,    500 MiB Core
         ---------------------------------------------------------

  ==> Geometry <==

    Molecular point group: c2v
    Full point group: C_inf_v

    Geometry (in Angstrom), charge = 1, multiplicity = 2:

       Center              X                  Y                   Z               Mass       
    ------------   -----------------  -----------------  -----------------  -----------------
         O            0.000000000000     0.000000000000    -0.617564876869    15.994914619570
         C            0.000000000000     0.000000000000     0.823158123131    12.000000000000

  Running in c2v symmetry.

  Rotational constants: A = ************  B =      1.18454  C =      1.18454 [cm^-1]
  Rotational constants: A = ************  B =  35511.75989  C =  35511.75989 [MHz]
  Nuclear repulsion =   17.630388431475030

  Charge       = 1
  Multiplicity = 2
  Electrons    = 13
  Nalpha       = 7
  Nbeta        = 6

  ==> Algorithm <==

  SCF Algorithm Type is DF.
  DIIS enabled.
  MOM disabled.
  Fractional occupation disabled.
  Guess Type is READ.
  Energy threshold   = 1.00e-08
  Density threshold  = 1.00e-08
  Integral threshold = 1.00e-12

  ==> Primary Basis <==

  Basis Set: CC-PVTZ
    Blend: CC-PVTZ
    Number of shells: 20
    Number of basis functions: 60
    Number of Cartesian functions: 70
    Spherical Harmonics?: true
    Max angular momentum: 3

  ==> DFT Potential <==

   => LibXC <=

    Version 6.2.2
    S. Lehtola, C. Steigemann, M. J.T. Oliveira, and M. A.L. Marques.,  SoftwareX 7, 1–5 (2018) (10.1016/j.softx.2017.11.002)

   => Composite Functional: B3LYP <= 

    B3LYP Hyb-GGA Exchange-Correlation Functional

    P. J. Stephens, F. J. Devlin, C. F. Chabalowski, and M. J. Frisch.,  J. Phys. Chem. 98, 11623 (1994) (10.1021/j100096a001)

    Deriv               =              1
    GGA                 =           TRUE
    Meta                =          FALSE

    Exchange Hybrid     =           TRUE
    MP2 Hybrid          =          FALSE

   => Exchange Functionals <=

    0.0800   Slater exchange
    0.7200         Becke 88

   => Exact (HF) Exchange <=

    0.2000               HF 

   => Correlation Functionals <=

    0.1900   Vosko, Wilk & Nusair (VWN5_RPA)
    0.8100   Lee, Yang & Parr

   => LibXC Density Thresholds  <==

    XC_HYB_GGA_XC_B3LYP:  1.00E-15 

   => Molecular Quadrature <=

    Radial Scheme          =       TREUTLER
    Pruning Scheme         =           NONE
    Nuclear Scheme         =       TREUTLER

    Blocking Scheme        =         OCTREE
    BS radius alpha        =              1
    Pruning alpha          =              1
    Radial Points          =             75
    Spherical Points       =            302
    Total Points           =          43325
    Total Blocks           =            391
    Max Points             =            256
    Max Functions          =             60
    Weights Tolerance      =       1.00E-15

   => Loading Basis Set <=

    Name: (CC-PVTZ AUX)
    Role: JKFIT
    Keyword: DF_BASIS_SCF
    atoms 1 entry O          line   229 file /Users/joseantoniorodriguesromero/anaconda3/share/psi4/basis/cc-pvtz-jkfit.gbs 
    atoms 2 entry C          line   125 file /Users/joseantoniorodriguesromero/anaconda3/share/psi4/basis/cc-pvtz-jkfit.gbs 

   => Loading Basis Set <=

    Name: CC-PVTZ
    Role: ORBITAL
    Keyword: BASIS
    atoms 1 entry O          line   262 file /Users/joseantoniorodriguesromero/anaconda3/share/psi4/basis/cc-pvtz.gbs 
    atoms 2 entry C          line   186 file /Users/joseantoniorodriguesromero/anaconda3/share/psi4/basis/cc-pvtz.gbs 

  Reading orbitals from file /tmp/scan_CO_39.default.50479.180.npy, no projection.

  ==> Integral Setup <==

  DFHelper Memory: AOs need 0.005 GiB; user supplied 0.295 GiB. 
  Using in-core AOs.

  ==> MemDFJK: Density-Fitted J/K Matrices <==

    J tasked:                   Yes
    K tasked:                   Yes
    wK tasked:                   No
    OpenMP threads:               1
    Memory [MiB]:               301
    Algorithm:                 Core
    Schwarz Cutoff:           1E-12
    Mask sparsity (%):       0.0000
    Fitting Condition:        1E-10

   => Auxiliary Basis Set <=

  Basis Set: (CC-PVTZ AUX)
    Blend: CC-PVTZ-JKFIT
    Number of shells: 50
    Number of basis functions: 158
    Number of Cartesian functions: 192
    Spherical Harmonics?: true
    Max angular momentum: 4

  Cached 100.0% of DFT collocation blocks in 0.071 [GiB].

  Minimum eigenvalue in the overlap matrix is 6.8944785222E-03.
  Reciprocal condition number of the overlap matrix is 1.8576078202E-03.
    Using symmetric orthogonalization.

  ==> Pre-Iterations <==

  SCF Guess: Orbitals guess was supplied from a previous computation.

   -------------------------------------------------------
    Irrep   Nso     Nmo     Nalpha   Nbeta   Ndocc  Nsocc
   -------------------------------------------------------
     A1        26      26       5       4       4       1
     A2         6       6       0       0       0       0
     B1        14      14       1       1       1       0
     B2        14      14       1       1       1       0
   -------------------------------------------------------
    Total      60      60       7       6       6       1
   -------------------------------------------------------

  ==> Iterations <==

                           Total Energy        Delta E     RMS |[F,P]|

   @DF-UKS iter   0:  -112.71365986291002   -1.12714e+02   5.20590e-10 
   @DF-UKS iter   1:  -112.71365986290995    7.10543e-14   1.33357e-09 DIIS
  Energy and wave function converged.


  ==> Post-Iterations <==

   Electrons on quadrature grid:
      Nalpha   =    6.9999995936 ; deviation = -4.064e-07
      Nbeta    =    5.9999994936 ; deviation = -5.064e-07
      Ntotal   =   12.9999990872 ; deviation = -9.128e-07 

   @Spin Contamination Metric:   3.116522826E-02
   @S^2 Expected:                7.500000000E-01
   @S^2 Observed:                7.811652283E-01
   @S   Expected:                5.000000000E-01
   @S   Observed:                5.000000000E-01

    Orbital Energies [Eh]
    ---------------------

    Alpha Occupied:                                                       

       1A1   -19.669691     2A1   -10.855875     3A1    -1.418274  
       4A1    -1.003476     5A1    -0.839720     1B2    -0.770018  
       1B1    -0.770018  

    Alpha Virtual:                                                        

       2B2    -0.521015     2B1    -0.521015     6A1    -0.266799  
       7A1    -0.010943     8A1    -0.001023     3B2     0.004201  
       3B1     0.004201     9A1     0.244493     1A2     0.297433  
      10A1     0.297433     4B1     0.305551     4B2     0.305551  
       5B1     0.419987     5B2     0.419987    11A1     0.665714  
      12A1     0.874050    13A1     1.122497     2A2     1.122497  
       6B1     1.306093     6B2     1.306093    14A1     1.573368  
       7B2     1.590606     7B1     1.590606    15A1     1.776700  
       8B1     2.232767     8B2     2.232767     3A2     2.278652  
      16A1     2.278653     9B2     2.426327     9B1     2.426327  
       4A2     2.466511    17A1     2.466513    18A1     2.515865  
      10B1     2.683673    10B2     2.683673    19A1     2.743651  
      20A1     3.328881    11B1     3.372085    11B2     3.372085  
      12B2     4.719390    12B1     4.719390    21A1     4.720402  
      22A1     4.806075     5A2     4.806077    13B2     5.147044  
      13B1     5.147044    23A1     5.638154     6A2     5.796304  
      24A1     5.796337    14B1     6.166406    14B2     6.166406  
      25A1     6.801603    26A1     8.295312  

    Beta Occupied:                                                        

       1A1   -19.664852     2A1   -10.837872     3A1    -1.399707  
       4A1    -0.934528     1B2    -0.770621     1B1    -0.770621  

    Beta Virtual:                                                         

       5A1    -0.659533     2B2    -0.489298     2B1    -0.489298  
       6A1    -0.216735     7A1    -0.000796     3B2     0.012825  
       3B1     0.012825     8A1     0.040433     9A1     0.261194  
       4B1     0.309246     4B2     0.309246     1A2     0.313886  
      10A1     0.313886     5B1     0.446245     5B2     0.446245  
      11A1     0.703716    12A1     0.884889    13A1     1.118565  
       2A2     1.118565     6B1     1.331654     6B2     1.331654  
      14A1     1.608025     7B2     1.609315     7B1     1.609315  
      15A1     1.827938     8B1     2.258474     8B2     2.258474  
       3A2     2.309052    16A1     2.309052     9B2     2.464129  
       9B1     2.464129     4A2     2.507449    17A1     2.507451  
      18A1     2.567126    10B1     2.747383    10B2     2.747383  
      19A1     2.821323    20A1     3.369577    11B1     3.372707  
      11B2     3.372707    12B2     4.706806    12B1     4.706806  
      21A1     4.743676    22A1     4.815218     5A2     4.815219  
      13B2     5.172056    13B1     5.172056    23A1     5.686328  
       6A2     5.782037    24A1     5.782071    14B1     6.196163  
      14B2     6.196163    25A1     6.839265    26A1     8.305337  

    Final Occupation by Irrep:
             A1    A2    B1    B2 
    DOCC [     4,    0,    1,    1 ]
    SOCC [     1,    0,    0,    0 ]
    NA   [     5,    0,    1,    1 ]
    NB   [     4,    0,    1,    1 ]

  @DF-UKS Final Energy:  -112.71365986290995

   => Energetics <=

    Nuclear Repulsion Energy =             17.6303884314750299
    One-Electron Energy =                -183.2492328683212008
    Two-Electron Energy =                  63.6435108696419078
    DFT Exchange-Correlation Energy =     -10.7383262957056989
    Empirical Dispersion Energy =           0.0000000000000000
    VV10 Nonlocal Energy =                  0.0000000000000000
    Total Energy =                       -112.7136598629099495

  UHF NO Occupations:
  HONO-2 :    1 B1 1.9939496
  HONO-1 :    1 B2 1.9939496
  HONO-0 :    5 A1 1.0000000
  LUNO+0 :    2 B1 0.0060504
  LUNO+1 :    2 B2 0.0060504
  LUNO+2 :    6 A1 0.0034200
  LUNO+3 :    7 A1 0.0001039


Computation Completed


Properties will be evaluated at   0.000000,   0.000000,   0.000000 [a0]

Properties computed using the B3LYP density matrix


 Multipole Moments:

 ------------------------------------------------------------------------------------
     Multipole            Electronic (a.u.)      Nuclear  (a.u.)        Total (a.u.)
 ------------------------------------------------------------------------------------

 L = 1.  Multiply by 2.5417464519 to convert [e a0] to [Debye]
 Dipole X            :          0.0000000            0.0000000            0.0000000
 Dipole Y            :          0.0000000            0.0000000            0.0000000
 Dipole Z            :          1.1920023           -0.0029674            1.1890349
 Magnitude           :                                                    1.1890349

 L = 2.  Multiply by 1.3450342976 to convert [e a0^2] to [Debye ang]
 Quadrupole XX       :         -6.4682582            0.0000000           -6.4682582
 Quadrupole XY       :          0.0000000            0.0000000            0.0000000
 Quadrupole XZ       :          0.0000000            0.0000000            0.0000000
 Quadrupole YY       :         -6.4682582            0.0000000           -6.4682582
 Quadrupole YZ       :          0.0000000            0.0000000            0.0000000
 Quadrupole ZZ       :        -28.3080173           25.4139356           -2.8940817
 Traceless XX        :          7.2799197           -8.4713119           -1.1913922
 Traceless YY        :          7.2799197           -8.4713119           -1.1913922
 Traceless ZZ        :        -14.5598394           16.9426238            2.3827844

 ------------------------------------------------------------------------------------
  ==> Computing MBIS Charges <==

  Electron Count from Grid (Expected Number): 13.00000 (13.00000)
  Difference: -0.00000

  MBIS Charges: (a.u.)
   Center  Symbol  Z      Pop.       Charge
      1       O    8    7.932530    0.067470
      2       C    6    5.067469    0.932531

  MBIS Dipoles: [e a0]
   Center  Symbol  Z        X           Y           Z
      1       O    8   -0.000000   -0.000000   -0.343947
      2       C    6   -0.000000    0.000000    0.161127

  MBIS Quadrupoles: [e a0^2]
   Center  Symbol  Z      XX        XY        XZ        YY        YZ        ZZ
      1       O    8   -3.6393   -0.0000   -0.0000   -3.6393    0.0000   -3.5581
      2       C    6   -2.8289   -0.0000    0.0000   -2.8289    0.0000   -2.9884

  MBIS Octupoles: [e a0^3]
   Center  Symbol  Z      XXX       XXY       XXZ       XYY       XYZ       XZZ       YYY       YYZ       YZZ       ZZZ
      1       O    8    0.0000   -0.0000   -0.3272   -0.0000   -0.0000    0.0000   -0.0000   -0.3272   -0.0000   -0.9661
      2       C    6   -0.0000    0.0000    0.3139   -0.0000    0.0000    0.0000    0.0000    0.3139    0.0000    0.5890

  MBIS Radial Moments:
   Center  Symbol  Z      [a0^2]      [a0^3]      [a0^4]      
      1       O    8   10.836762   19.835850   43.367565
      2       C    6    8.646260   18.602520   47.602468

  MBIS Valence Widths: [a0]
   Center  Symbol  Z     Width
      1       O    8    0.381015
      2       C    6    0.465050

*** tstop() called on Mac.lan at Sun Aug 10 18:38:28 2025
Module time:
	user time   =       5.57 seconds =       0.09 minutes
	system time =       2.38 seconds =       0.04 minutes
	total time  =          1 seconds =       0.02 minutes
Total time:
	user time   =      22.26 seconds =       0.37 minutes
	system time =       4.59 seconds =       0.08 minutes
	total time  =          3 seconds =       0.05 minutes

    Psi4 stopped on: Sunday, 10 August 2025 06:38PM
    Psi4 wall time for execution: 0:00:02.62

*** Psi4 exiting successfully. Buy a developer a beer!
