
    -----------------------------------------------------------------------
          Psi4: An Open-Source Ab Initio Electronic Structure Package
                               Psi4 1.9.1 release

                         Git: Rev {} zzzzzzz 


    D. G. A. Smith, L. A. Burns, A. C. Simmonett, R. M. Parrish,
    M. C. Schieber, R. Galvelis, P. Kraus, H. Kruse, R. Di Remigio,
    A. Alenaizan, A. M. James, S. Lehtola, J. P. Misiewicz, M. Scheurer,
    R. A. Shaw, J. B. Schriber, Y. Xie, Z. L. Glick, D. A. Sirianni,
    J. S. O'Brien, J. M. Waldrop, A. Kumar, E. G. Hohenstein,
    B. P. Pritchard, B. R. Brooks, H. F. Schaefer III, A. Yu. Sokolov,
    K. Patkowski, A. E. DePrince III, U. Bozkaya, R. A. King,
    F. A. Evangelista, J. M. Turney, T. D. Crawford, C. D. Sherrill,
    J. Chem. Phys. 152(18) 184108 (2020). https://doi.org/10.1063/5.0006002

                            Additional Code Authors
    E. T. Seidl, C. L. Janssen, E. F. Valeev, M. L. Leininger,
    J. F. Gonthier, R. M. Richard, H. R. McAlexander, M. Saitow, X. Wang,
    P. Verma, M. H. Lechner, A. Jiang, S. Behnle, A. G. Heide,
    M. F. Herbst, and D. L. Poole

             Previous Authors, Complete List of Code Contributors,
                       and Citations for Specific Modules
    https://github.com/psi4/psi4/blob/master/codemeta.json
    https://github.com/psi4/psi4/graphs/contributors
    http://psicode.org/psi4manual/master/introduction.html#citing-psifour

    -----------------------------------------------------------------------


    Psi4 started on: Sunday, 10 August 2025 06:27PM

    Process ID: 50106
    Host:       Mac.lan
    PSIDATADIR: /Users/joseantoniorodriguesromero/anaconda3/share/psi4
    Memory:     500.0 MiB
    Threads:    1
    
  ==> Input File <==

--------------------------------------------------------------------------
molecule { 
1 1
C           0.000000           0.000000           0.000000
H           0.000000           0.000000           1.224868
}

set { 
basis              cc-pvtz
reference          uks
maxiter            500
DAMPING_PERCENTAGE 1
E_CONVERGENCE      1.0E-8
D_CONVERGENCE      1.0E-8
DIIS_MAX_VECS      400
MBIS_MAXITER       8000
guess              read
}

E, wfn = energy('b3lyp', restart_file='last_wfn', return_wfn=True)
properties('b3lyp','MBIS_CHARGES', wfn=wfn)
wfn.to_file('last_wfn')
--------------------------------------------------------------------------

Scratch directory: /tmp/
 Found user provided orbital data. Setting orbital guess to READ 
 Copying restart file <last_wfn.npy> to </tmp/scan_HC_27.default.50106.180.npy> for internal processing
   => Libint2 <=

    Primary   basis highest AM E, G, H:  6, 6, 3
    Auxiliary basis highest AM E, G, H:  7, 7, 4
    Onebody   basis highest AM E, G, H:  -, -, -
    Solid Harmonics ordering:            Gaussian

*** tstart() called on Mac.lan
*** at Sun Aug 10 18:27:13 2025

   => Loading Basis Set <=

    Name: CC-PVTZ
    Role: ORBITAL
    Keyword: BASIS
    atoms 1 entry C          line   186 file /Users/joseantoniorodriguesromero/anaconda3/share/psi4/basis/cc-pvtz.gbs 
    atoms 2 entry H          line    23 file /Users/joseantoniorodriguesromero/anaconda3/share/psi4/basis/cc-pvtz.gbs 


         ---------------------------------------------------------
                                   SCF
               by Justin Turney, Rob Parrish, Andy Simmonett
                          and Daniel G. A. Smith
                              UKS Reference
                        1 Threads,    500 MiB Core
         ---------------------------------------------------------

  ==> Geometry <==

    Molecular point group: c2v
    Full point group: C_inf_v

    Geometry (in Angstrom), charge = 1, multiplicity = 1:

       Center              X                  Y                   Z               Mass       
    ------------   -----------------  -----------------  -----------------  -----------------
         C            0.000000000000     0.000000000000    -0.094900771537    12.000000000000
         H            0.000000000000     0.000000000000     1.129967228463     1.007825032230

  Running in c2v symmetry.

  Rotational constants: A = ************  B =     12.08527  C =     12.08527 [cm^-1]
  Rotational constants: A = ************  B = 362307.16382  C = 362307.16382 [MHz]
  Nuclear repulsion =    2.592167698086651

  Charge       = 1
  Multiplicity = 1
  Electrons    = 6
  Nalpha       = 3
  Nbeta        = 3

  ==> Algorithm <==

  SCF Algorithm Type is DF.
  DIIS enabled.
  MOM disabled.
  Fractional occupation disabled.
  Guess Type is READ.
  Energy threshold   = 1.00e-08
  Density threshold  = 1.00e-08
  Integral threshold = 1.00e-12

  ==> Primary Basis <==

  Basis Set: CC-PVTZ
    Blend: CC-PVTZ
    Number of shells: 16
    Number of basis functions: 44
    Number of Cartesian functions: 50
    Spherical Harmonics?: true
    Max angular momentum: 3

  ==> DFT Potential <==

   => LibXC <=

    Version 6.2.2
    S. Lehtola, C. Steigemann, M. J.T. Oliveira, and M. A.L. Marques.,  SoftwareX 7, 1–5 (2018) (10.1016/j.softx.2017.11.002)

   => Composite Functional: B3LYP <= 

    B3LYP Hyb-GGA Exchange-Correlation Functional

    P. J. Stephens, F. J. Devlin, C. F. Chabalowski, and M. J. Frisch.,  J. Phys. Chem. 98, 11623 (1994) (10.1021/j100096a001)

    Deriv               =              1
    GGA                 =           TRUE
    Meta                =          FALSE

    Exchange Hybrid     =           TRUE
    MP2 Hybrid          =          FALSE

   => Exchange Functionals <=

    0.0800   Slater exchange
    0.7200         Becke 88

   => Exact (HF) Exchange <=

    0.2000               HF 

   => Correlation Functionals <=

    0.1900   Vosko, Wilk & Nusair (VWN5_RPA)
    0.8100   Lee, Yang & Parr

   => LibXC Density Thresholds  <==

    XC_HYB_GGA_XC_B3LYP:  1.00E-15 

   => Molecular Quadrature <=

    Radial Scheme          =       TREUTLER
    Pruning Scheme         =           NONE
    Nuclear Scheme         =       TREUTLER

    Blocking Scheme        =         OCTREE
    BS radius alpha        =              1
    Pruning alpha          =              1
    Radial Points          =             75
    Spherical Points       =            302
    Total Points           =          43823
    Total Blocks           =            391
    Max Points             =            255
    Max Functions          =             44
    Weights Tolerance      =       1.00E-15

   => Loading Basis Set <=

    Name: (CC-PVTZ AUX)
    Role: JKFIT
    Keyword: DF_BASIS_SCF
    atoms 1 entry C          line   125 file /Users/joseantoniorodriguesromero/anaconda3/share/psi4/basis/cc-pvtz-jkfit.gbs 
    atoms 2 entry H          line    51 file /Users/joseantoniorodriguesromero/anaconda3/share/psi4/basis/cc-pvtz-jkfit.gbs 

   => Loading Basis Set <=

    Name: CC-PVTZ
    Role: ORBITAL
    Keyword: BASIS
    atoms 1 entry C          line   186 file /Users/joseantoniorodriguesromero/anaconda3/share/psi4/basis/cc-pvtz.gbs 
    atoms 2 entry H          line    23 file /Users/joseantoniorodriguesromero/anaconda3/share/psi4/basis/cc-pvtz.gbs 

  Reading orbitals from file /tmp/scan_HC_27.default.50106.180.npy, no projection.

  ==> Integral Setup <==

  DFHelper Memory: AOs need 0.002 GiB; user supplied 0.311 GiB. 
  Using in-core AOs.

  ==> MemDFJK: Density-Fitted J/K Matrices <==

    J tasked:                   Yes
    K tasked:                   Yes
    wK tasked:                   No
    OpenMP threads:               1
    Memory [MiB]:               318
    Algorithm:                 Core
    Schwarz Cutoff:           1E-12
    Mask sparsity (%):       0.0000
    Fitting Condition:        1E-10

   => Auxiliary Basis Set <=

  Basis Set: (CC-PVTZ AUX)
    Blend: CC-PVTZ-JKFIT
    Number of shells: 35
    Number of basis functions: 109
    Number of Cartesian functions: 131
    Spherical Harmonics?: true
    Max angular momentum: 4

  Cached 100.0% of DFT collocation blocks in 0.055 [GiB].

  Minimum eigenvalue in the overlap matrix is 4.2587732818E-03.
  Reciprocal condition number of the overlap matrix is 1.0695637395E-03.
    Using symmetric orthogonalization.

  ==> Pre-Iterations <==

  SCF Guess: Orbitals guess was supplied from a previous computation.

   -------------------------------------------------------
    Irrep   Nso     Nmo     Nalpha   Nbeta   Ndocc  Nsocc
   -------------------------------------------------------
     A1        20      20       3       3       3       0
     A2         4       4       0       0       0       0
     B1        10      10       0       0       0       0
     B2        10      10       0       0       0       0
   -------------------------------------------------------
    Total      44      44       3       3       3       0
   -------------------------------------------------------

  ==> Iterations <==

                           Total Energy        Delta E     RMS |[F,P]|

   @DF-UKS iter   0:   -38.07929586608851   -3.80793e+01   8.96654e-04 
   @DF-UKS iter   1:   -38.08900272507330   -9.70686e-03   1.52132e-04 DIIS/ADIIS
   @DF-UKS iter   2:   -38.08901093827381   -8.21320e-06   3.63127e-05 DIIS/DAMP=1%
   @DF-UKS iter   3:   -38.08901315735347   -2.21908e-06   5.47715e-06 DIIS/DAMP=1%
   @DF-UKS iter   4:   -38.08900926541759    3.89194e-06   7.71205e-07 DIIS/DAMP=1%
   @DF-UKS iter   5:   -38.08901165339562   -2.38798e-06   3.75961e-08 DIIS/DAMP=1%
   @DF-UKS iter   6:   -38.08901140236852    2.51027e-07   4.98929e-09 DIIS/DAMP=1%
   @DF-UKS iter   7:   -38.08901141221926   -9.85074e-09   2.65173e-10 DIIS/DAMP=1%
  Energy and wave function converged.


  ==> Post-Iterations <==

   Electrons on quadrature grid:
      Nalpha   =    3.0000000169 ; deviation = 1.694e-08
      Nbeta    =    3.0000000169 ; deviation = 1.694e-08
      Ntotal   =    6.0000000339 ; deviation = 3.387e-08 

   @Spin Contamination Metric:  -8.881784197E-15
   @S^2 Expected:                0.000000000E+00
   @S^2 Observed:               -8.881784197E-15
   @S   Expected:                0.000000000E+00
   @S   Observed:                0.000000000E+00

    Orbital Energies [Eh]
    ---------------------

    Alpha Occupied:                                                       

       1A1   -10.804186     2A1    -1.028155     3A1    -0.715035  

    Alpha Virtual:                                                        

       1B2    -0.542261     1B1    -0.542261     4A1    -0.250418  
       5A1    -0.013398     2B2     0.008574     2B1     0.008574  
       6A1     0.031677     7A1     0.162062     3B2     0.221282  
       3B1     0.221282     8A1     0.321016     1A2     0.321016  
       9A1     0.608309     4B1     0.683425     4B2     0.683425  
      10A1     0.954015     5B1     1.530605     5B2     1.530605  
      11A1     1.721703    12A1     1.894242     2A2     2.141829  
      13A1     2.141829     6B1     2.187623     6B2     2.187623  
       7B2     2.251463     7B1     2.251463    14A1     2.423185  
      15A1     2.493281     3A2     2.493281     8B1     2.639214  
       8B2     2.639214    16A1     2.741278     4A2     3.099522  
      17A1     3.099523     9B2     3.392896     9B1     3.392896  
      18A1     3.715126    10B1     4.065068    10B2     4.065068  
      19A1     4.160800    20A1     6.741723  

    Beta Occupied:                                                        

       1A1   -10.804186     2A1    -1.028155     3A1    -0.715035  

    Beta Virtual:                                                         

       1B2    -0.542261     1B1    -0.542261     4A1    -0.250418  
       5A1    -0.013398     2B2     0.008574     2B1     0.008574  
       6A1     0.031677     7A1     0.162062     3B2     0.221282  
       3B1     0.221282     8A1     0.321016     1A2     0.321016  
       9A1     0.608309     4B2     0.683425     4B1     0.683425  
      10A1     0.954015     5B1     1.530605     5B2     1.530605  
      11A1     1.721703    12A1     1.894242     2A2     2.141829  
      13A1     2.141829     6B1     2.187623     6B2     2.187623  
       7B2     2.251463     7B1     2.251463    14A1     2.423185  
      15A1     2.493281     3A2     2.493281     8B1     2.639214  
       8B2     2.639214    16A1     2.741278     4A2     3.099522  
      17A1     3.099523     9B2     3.392896     9B1     3.392896  
      18A1     3.715126    10B1     4.065068    10B2     4.065068  
      19A1     4.160800    20A1     6.741723  

    Final Occupation by Irrep:
             A1    A2    B1    B2 
    DOCC [     3,    0,    0,    0 ]
    SOCC [     0,    0,    0,    0 ]
    NA   [     3,    0,    0,    0 ]
    NB   [     3,    0,    0,    0 ]

  @DF-UKS Final Energy:   -38.08901141221926

   => Energetics <=

    Nuclear Repulsion Energy =              2.5921676980866506
    One-Electron Energy =                 -53.1989756900309416
    Two-Electron Energy =                  16.7620220880830360
    DFT Exchange-Correlation Energy =      -4.2442255083579905
    Empirical Dispersion Energy =           0.0000000000000000
    VV10 Nonlocal Energy =                  0.0000000000000000
    Total Energy =                        -38.0890114122192500

  UHF NO Occupations:
  HONO-2 :    1 A1 2.0000000
  HONO-1 :    2 A1 2.0000000
  HONO-0 :    3 A1 2.0000000
  LUNO+0 :    4 A1 0.0000000
  LUNO+1 :    5 A1 0.0000000
  LUNO+2 :    6 A1 0.0000000
  LUNO+3 :    7 A1 0.0000000


Computation Completed


Properties will be evaluated at   0.000000,   0.000000,   0.000000 [a0]

Properties computed using the SCF density matrix


 Multipole Moments:

 ------------------------------------------------------------------------------------
     Multipole            Electronic (a.u.)      Nuclear  (a.u.)        Total (a.u.)
 ------------------------------------------------------------------------------------

 L = 1.  Multiply by 2.5417464519 to convert [e a0] to [Debye]
 Dipole X            :          0.0000000            0.0000000            0.0000000
 Dipole Y            :          0.0000000            0.0000000            0.0000000
 Dipole Z            :         -0.3372689            1.0593098            0.7220409
 Magnitude           :                                                    0.7220409

 ------------------------------------------------------------------------------------

*** tstop() called on Mac.lan at Sun Aug 10 18:27:14 2025
Module time:
	user time   =       7.82 seconds =       0.13 minutes
	system time =       1.83 seconds =       0.03 minutes
	total time  =          1 seconds =       0.02 minutes
Total time:
	user time   =       7.82 seconds =       0.13 minutes
	system time =       1.83 seconds =       0.03 minutes
	total time  =          1 seconds =       0.02 minutes

*** tstart() called on Mac.lan
*** at Sun Aug 10 18:27:14 2025

   => Libint2 <=

    Primary   basis highest AM E, G, H:  6, 6, 3
    Auxiliary basis highest AM E, G, H:  7, 7, 4
    Onebody   basis highest AM E, G, H:  -, -, -
    Solid Harmonics ordering:            Gaussian
   => Loading Basis Set <=

    Name: CC-PVTZ
    Role: ORBITAL
    Keyword: BASIS
    atoms 1 entry C          line   186 file /Users/joseantoniorodriguesromero/anaconda3/share/psi4/basis/cc-pvtz.gbs 
    atoms 2 entry H          line    23 file /Users/joseantoniorodriguesromero/anaconda3/share/psi4/basis/cc-pvtz.gbs 


         ---------------------------------------------------------
                                   SCF
               by Justin Turney, Rob Parrish, Andy Simmonett
                          and Daniel G. A. Smith
                              UKS Reference
                        1 Threads,    500 MiB Core
         ---------------------------------------------------------

  ==> Geometry <==

    Molecular point group: c2v
    Full point group: C_inf_v

    Geometry (in Angstrom), charge = 1, multiplicity = 1:

       Center              X                  Y                   Z               Mass       
    ------------   -----------------  -----------------  -----------------  -----------------
         C            0.000000000000     0.000000000000    -0.094900771537    12.000000000000
         H            0.000000000000     0.000000000000     1.129967228463     1.007825032230

  Running in c2v symmetry.

  Rotational constants: A = ************  B =     12.08527  C =     12.08527 [cm^-1]
  Rotational constants: A = ************  B = 362307.16382  C = 362307.16382 [MHz]
  Nuclear repulsion =    2.592167698086651

  Charge       = 1
  Multiplicity = 1
  Electrons    = 6
  Nalpha       = 3
  Nbeta        = 3

  ==> Algorithm <==

  SCF Algorithm Type is DF.
  DIIS enabled.
  MOM disabled.
  Fractional occupation disabled.
  Guess Type is READ.
  Energy threshold   = 1.00e-08
  Density threshold  = 1.00e-08
  Integral threshold = 1.00e-12

  ==> Primary Basis <==

  Basis Set: CC-PVTZ
    Blend: CC-PVTZ
    Number of shells: 16
    Number of basis functions: 44
    Number of Cartesian functions: 50
    Spherical Harmonics?: true
    Max angular momentum: 3

  ==> DFT Potential <==

   => LibXC <=

    Version 6.2.2
    S. Lehtola, C. Steigemann, M. J.T. Oliveira, and M. A.L. Marques.,  SoftwareX 7, 1–5 (2018) (10.1016/j.softx.2017.11.002)

   => Composite Functional: B3LYP <= 

    B3LYP Hyb-GGA Exchange-Correlation Functional

    P. J. Stephens, F. J. Devlin, C. F. Chabalowski, and M. J. Frisch.,  J. Phys. Chem. 98, 11623 (1994) (10.1021/j100096a001)

    Deriv               =              1
    GGA                 =           TRUE
    Meta                =          FALSE

    Exchange Hybrid     =           TRUE
    MP2 Hybrid          =          FALSE

   => Exchange Functionals <=

    0.0800   Slater exchange
    0.7200         Becke 88

   => Exact (HF) Exchange <=

    0.2000               HF 

   => Correlation Functionals <=

    0.1900   Vosko, Wilk & Nusair (VWN5_RPA)
    0.8100   Lee, Yang & Parr

   => LibXC Density Thresholds  <==

    XC_HYB_GGA_XC_B3LYP:  1.00E-15 

   => Molecular Quadrature <=

    Radial Scheme          =       TREUTLER
    Pruning Scheme         =           NONE
    Nuclear Scheme         =       TREUTLER

    Blocking Scheme        =         OCTREE
    BS radius alpha        =              1
    Pruning alpha          =              1
    Radial Points          =             75
    Spherical Points       =            302
    Total Points           =          43823
    Total Blocks           =            391
    Max Points             =            255
    Max Functions          =             44
    Weights Tolerance      =       1.00E-15

   => Loading Basis Set <=

    Name: (CC-PVTZ AUX)
    Role: JKFIT
    Keyword: DF_BASIS_SCF
    atoms 1 entry C          line   125 file /Users/joseantoniorodriguesromero/anaconda3/share/psi4/basis/cc-pvtz-jkfit.gbs 
    atoms 2 entry H          line    51 file /Users/joseantoniorodriguesromero/anaconda3/share/psi4/basis/cc-pvtz-jkfit.gbs 

   => Loading Basis Set <=

    Name: CC-PVTZ
    Role: ORBITAL
    Keyword: BASIS
    atoms 1 entry C          line   186 file /Users/joseantoniorodriguesromero/anaconda3/share/psi4/basis/cc-pvtz.gbs 
    atoms 2 entry H          line    23 file /Users/joseantoniorodriguesromero/anaconda3/share/psi4/basis/cc-pvtz.gbs 

  Reading orbitals from file /tmp/scan_HC_27.default.50106.180.npy, no projection.

  ==> Integral Setup <==

  DFHelper Memory: AOs need 0.002 GiB; user supplied 0.311 GiB. 
  Using in-core AOs.

  ==> MemDFJK: Density-Fitted J/K Matrices <==

    J tasked:                   Yes
    K tasked:                   Yes
    wK tasked:                   No
    OpenMP threads:               1
    Memory [MiB]:               318
    Algorithm:                 Core
    Schwarz Cutoff:           1E-12
    Mask sparsity (%):       0.0000
    Fitting Condition:        1E-10

   => Auxiliary Basis Set <=

  Basis Set: (CC-PVTZ AUX)
    Blend: CC-PVTZ-JKFIT
    Number of shells: 35
    Number of basis functions: 109
    Number of Cartesian functions: 131
    Spherical Harmonics?: true
    Max angular momentum: 4

  Cached 100.0% of DFT collocation blocks in 0.055 [GiB].

  Minimum eigenvalue in the overlap matrix is 4.2587732818E-03.
  Reciprocal condition number of the overlap matrix is 1.0695637395E-03.
    Using symmetric orthogonalization.

  ==> Pre-Iterations <==

  SCF Guess: Orbitals guess was supplied from a previous computation.

   -------------------------------------------------------
    Irrep   Nso     Nmo     Nalpha   Nbeta   Ndocc  Nsocc
   -------------------------------------------------------
     A1        20      20       3       3       3       0
     A2         4       4       0       0       0       0
     B1        10      10       0       0       0       0
     B2        10      10       0       0       0       0
   -------------------------------------------------------
    Total      44      44       3       3       3       0
   -------------------------------------------------------

  ==> Iterations <==

                           Total Energy        Delta E     RMS |[F,P]|

   @DF-UKS iter   0:   -38.08901141066939   -3.80890e+01   1.90428e-11 
   @DF-UKS iter   1:   -38.08901141066931    7.10543e-14   1.15741e-11 DIIS
  Energy and wave function converged.


  ==> Post-Iterations <==

   Electrons on quadrature grid:
      Nalpha   =    3.0000000169 ; deviation = 1.694e-08
      Nbeta    =    3.0000000169 ; deviation = 1.694e-08
      Ntotal   =    6.0000000339 ; deviation = 3.387e-08 

   @Spin Contamination Metric:  -5.773159728E-15
   @S^2 Expected:                0.000000000E+00
   @S^2 Observed:               -5.773159728E-15
   @S   Expected:                0.000000000E+00
   @S   Observed:                0.000000000E+00

    Orbital Energies [Eh]
    ---------------------

    Alpha Occupied:                                                       

       1A1   -10.804186     2A1    -1.028155     3A1    -0.715035  

    Alpha Virtual:                                                        

       1B2    -0.542261     1B1    -0.542261     4A1    -0.250418  
       5A1    -0.013398     2B2     0.008574     2B1     0.008574  
       6A1     0.031677     7A1     0.162062     3B2     0.221282  
       3B1     0.221282     8A1     0.321016     1A2     0.321016  
       9A1     0.608309     4B2     0.683425     4B1     0.683425  
      10A1     0.954015     5B1     1.530605     5B2     1.530605  
      11A1     1.721703    12A1     1.894242     2A2     2.141829  
      13A1     2.141829     6B1     2.187623     6B2     2.187623  
       7B2     2.251463     7B1     2.251463    14A1     2.423185  
      15A1     2.493281     3A2     2.493281     8B1     2.639214  
       8B2     2.639214    16A1     2.741278     4A2     3.099522  
      17A1     3.099523     9B2     3.392896     9B1     3.392896  
      18A1     3.715126    10B1     4.065068    10B2     4.065068  
      19A1     4.160800    20A1     6.741723  

    Beta Occupied:                                                        

       1A1   -10.804186     2A1    -1.028155     3A1    -0.715035  

    Beta Virtual:                                                         

       1B2    -0.542261     1B1    -0.542261     4A1    -0.250418  
       5A1    -0.013398     2B2     0.008574     2B1     0.008574  
       6A1     0.031677     7A1     0.162062     3B2     0.221282  
       3B1     0.221282     8A1     0.321016     1A2     0.321016  
       9A1     0.608309     4B2     0.683425     4B1     0.683425  
      10A1     0.954015     5B1     1.530605     5B2     1.530605  
      11A1     1.721703    12A1     1.894242     2A2     2.141829  
      13A1     2.141829     6B1     2.187623     6B2     2.187623  
       7B2     2.251463     7B1     2.251463    14A1     2.423185  
      15A1     2.493281     3A2     2.493281     8B1     2.639214  
       8B2     2.639214    16A1     2.741278     4A2     3.099522  
      17A1     3.099523     9B2     3.392896     9B1     3.392896  
      18A1     3.715126    10B1     4.065068    10B2     4.065068  
      19A1     4.160800    20A1     6.741723  

    Final Occupation by Irrep:
             A1    A2    B1    B2 
    DOCC [     3,    0,    0,    0 ]
    SOCC [     0,    0,    0,    0 ]
    NA   [     3,    0,    0,    0 ]
    NB   [     3,    0,    0,    0 ]

  @DF-UKS Final Energy:   -38.08901141066931

   => Energetics <=

    Nuclear Repulsion Energy =              2.5921676980866506
    One-Electron Energy =                 -53.1989756956443358
    Two-Electron Energy =                  16.7620220951854897
    DFT Exchange-Correlation Energy =      -4.2442255082971094
    Empirical Dispersion Energy =           0.0000000000000000
    VV10 Nonlocal Energy =                  0.0000000000000000
    Total Energy =                        -38.0890114106693005

  UHF NO Occupations:
  HONO-2 :    1 A1 2.0000000
  HONO-1 :    2 A1 2.0000000
  HONO-0 :    3 A1 2.0000000
  LUNO+0 :    4 A1 0.0000000
  LUNO+1 :    5 A1 0.0000000
  LUNO+2 :    6 A1 0.0000000
  LUNO+3 :    7 A1 0.0000000


Computation Completed


Properties will be evaluated at   0.000000,   0.000000,   0.000000 [a0]

Properties computed using the B3LYP density matrix


 Multipole Moments:

 ------------------------------------------------------------------------------------
     Multipole            Electronic (a.u.)      Nuclear  (a.u.)        Total (a.u.)
 ------------------------------------------------------------------------------------

 L = 1.  Multiply by 2.5417464519 to convert [e a0] to [Debye]
 Dipole X            :          0.0000000            0.0000000            0.0000000
 Dipole Y            :          0.0000000            0.0000000            0.0000000
 Dipole Z            :         -0.3372689            1.0593098            0.7220409
 Magnitude           :                                                    0.7220409

 L = 2.  Multiply by 1.3450342976 to convert [e a0^2] to [Debye ang]
 Quadrupole XX       :         -2.9680536            0.0000000           -2.9680536
 Quadrupole XY       :          0.0000000            0.0000000            0.0000000
 Quadrupole XZ       :          0.0000000            0.0000000            0.0000000
 Quadrupole YY       :         -2.9680536            0.0000000           -2.9680536
 Quadrupole YZ       :          0.0000000            0.0000000            0.0000000
 Quadrupole ZZ       :         -7.6790151            4.7525976           -2.9264175
 Traceless XX        :          1.5703205           -1.5841992           -0.0138787
 Traceless YY        :          1.5703205           -1.5841992           -0.0138787
 Traceless ZZ        :         -3.1406410            3.1683984            0.0277574

 ------------------------------------------------------------------------------------
  ==> Computing MBIS Charges <==

  Electron Count from Grid (Expected Number):  6.00000 ( 6.00000)
  Difference:  0.00000

  MBIS Charges: (a.u.)
   Center  Symbol  Z      Pop.       Charge
      1       C    6    5.206276    0.793724
      2       H    1    0.793724    0.206276

  MBIS Dipoles: [e a0]
   Center  Symbol  Z        X           Y           Z
      1       C    6    0.000000   -0.000000    0.307517
      2       H    1    0.000000   -0.000000    0.116401

  MBIS Quadrupoles: [e a0^2]
   Center  Symbol  Z      XX        XY        XZ        YY        YZ        ZZ
      1       C    6   -2.5495    0.0000   -0.0000   -2.5495   -0.0000   -3.8501
      2       H    1   -0.4185   -0.0000    0.0000   -0.4185   -0.0000   -0.4292

  MBIS Octupoles: [e a0^3]
   Center  Symbol  Z      XXX       XXY       XXZ       XYY       XYZ       XZZ       YYY       YYZ       YZZ       ZZZ
      1       C    6    0.0000   -0.0000    0.3525    0.0000   -0.0000    0.0000    0.0000    0.3525   -0.0000    0.9296
      2       H    1    0.0000   -0.0000    0.0206    0.0000   -0.0000    0.0000   -0.0000    0.0206   -0.0000    0.0928

  MBIS Radial Moments:
   Center  Symbol  Z      [a0^2]      [a0^3]      [a0^4]      
      1       C    6    8.949223   19.124542   48.732226
      2       H    1    1.266180    2.213997    4.632620

  MBIS Valence Widths: [a0]
   Center  Symbol  Z     Width
      1       C    6    0.463627
      2       H    1    0.372557

*** tstop() called on Mac.lan at Sun Aug 10 18:27:15 2025
Module time:
	user time   =       3.76 seconds =       0.06 minutes
	system time =       1.45 seconds =       0.02 minutes
	total time  =          1 seconds =       0.02 minutes
Total time:
	user time   =      11.69 seconds =       0.19 minutes
	system time =       3.41 seconds =       0.06 minutes
	total time  =          2 seconds =       0.03 minutes

    Psi4 stopped on: Sunday, 10 August 2025 06:27PM
    Psi4 wall time for execution: 0:00:01.49

*** Psi4 exiting successfully. Buy a developer a beer!
