
    -----------------------------------------------------------------------
          Psi4: An Open-Source Ab Initio Electronic Structure Package
                               Psi4 1.9.1 release

                         Git: Rev {} zzzzzzz 


    D. G. A. Smith, L. A. Burns, A. C. Simmonett, R. M. Parrish,
    M. C. Schieber, R. Galvelis, P. Kraus, H. Kruse, R. Di Remigio,
    A. Alenaizan, A. M. James, S. Lehtola, J. P. Misiewicz, M. Scheurer,
    R. A. Shaw, J. B. Schriber, Y. Xie, Z. L. Glick, D. A. Sirianni,
    J. S. O'Brien, J. M. Waldrop, A. Kumar, E. G. Hohenstein,
    B. P. Pritchard, B. R. Brooks, H. F. Schaefer III, A. Yu. Sokolov,
    K. Patkowski, A. E. DePrince III, U. Bozkaya, R. A. King,
    F. A. Evangelista, J. M. Turney, T. D. Crawford, C. D. Sherrill,
    J. Chem. Phys. 152(18) 184108 (2020). https://doi.org/10.1063/5.0006002

                            Additional Code Authors
    E. T. Seidl, C. L. Janssen, E. F. Valeev, M. L. Leininger,
    J. F. Gonthier, R. M. Richard, H. R. McAlexander, M. Saitow, X. Wang,
    P. Verma, M. H. Lechner, A. Jiang, S. Behnle, A. G. Heide,
    M. F. Herbst, and D. L. Poole

             Previous Authors, Complete List of Code Contributors,
                       and Citations for Specific Modules
    https://github.com/psi4/psi4/blob/master/codemeta.json
    https://github.com/psi4/psi4/graphs/contributors
    http://psicode.org/psi4manual/master/introduction.html#citing-psifour

    -----------------------------------------------------------------------


    Psi4 started on: Sunday, 10 August 2025 06:28PM

    Process ID: 50168
    Host:       Mac.lan
    PSIDATADIR: /Users/joseantoniorodriguesromero/anaconda3/share/psi4
    Memory:     500.0 MiB
    Threads:    1
    
  ==> Input File <==

--------------------------------------------------------------------------
molecule { 
1 3
O           0.000000           0.000000           0.000000
H           0.000000           0.000000           0.909065
}

set { 
basis              cc-pvtz
reference          uks
maxiter            500
DAMPING_PERCENTAGE 1
E_CONVERGENCE      1.0E-8
D_CONVERGENCE      1.0E-8
DIIS_MAX_VECS      400
MBIS_MAXITER       8000
guess              read
}

E, wfn = energy('b3lyp', restart_file='last_wfn', return_wfn=True)
properties('b3lyp','MBIS_CHARGES', wfn=wfn)
wfn.to_file('last_wfn')
--------------------------------------------------------------------------

Scratch directory: /tmp/
 Found user provided orbital data. Setting orbital guess to READ 
 Copying restart file <last_wfn.npy> to </tmp/scan_HO_16.default.50168.180.npy> for internal processing
   => Libint2 <=

    Primary   basis highest AM E, G, H:  6, 6, 3
    Auxiliary basis highest AM E, G, H:  7, 7, 4
    Onebody   basis highest AM E, G, H:  -, -, -
    Solid Harmonics ordering:            Gaussian

*** tstart() called on Mac.lan
*** at Sun Aug 10 18:28:39 2025

   => Loading Basis Set <=

    Name: CC-PVTZ
    Role: ORBITAL
    Keyword: BASIS
    atoms 1 entry O          line   262 file /Users/joseantoniorodriguesromero/anaconda3/share/psi4/basis/cc-pvtz.gbs 
    atoms 2 entry H          line    23 file /Users/joseantoniorodriguesromero/anaconda3/share/psi4/basis/cc-pvtz.gbs 


         ---------------------------------------------------------
                                   SCF
               by Justin Turney, Rob Parrish, Andy Simmonett
                          and Daniel G. A. Smith
                              UKS Reference
                        1 Threads,    500 MiB Core
         ---------------------------------------------------------

  ==> Geometry <==

    Molecular point group: c2v
    Full point group: C_inf_v

    Geometry (in Angstrom), charge = 1, multiplicity = 3:

       Center              X                  Y                   Z               Mass       
    ------------   -----------------  -----------------  -----------------  -----------------
         O            0.000000000000     0.000000000000    -0.053884167004    15.994914619570
         H            0.000000000000     0.000000000000     0.855180832996     1.007825032230

  Running in c2v symmetry.

  Rotational constants: A = ************  B =     21.51585  C =     21.51585 [cm^-1]
  Rotational constants: A = ************  B = 645028.88384  C = 645028.88384 [MHz]
  Nuclear repulsion =    4.656892175322997

  Charge       = 1
  Multiplicity = 3
  Electrons    = 8
  Nalpha       = 5
  Nbeta        = 3

  ==> Algorithm <==

  SCF Algorithm Type is DF.
  DIIS enabled.
  MOM disabled.
  Fractional occupation disabled.
  Guess Type is READ.
  Energy threshold   = 1.00e-08
  Density threshold  = 1.00e-08
  Integral threshold = 1.00e-12

  ==> Primary Basis <==

  Basis Set: CC-PVTZ
    Blend: CC-PVTZ
    Number of shells: 16
    Number of basis functions: 44
    Number of Cartesian functions: 50
    Spherical Harmonics?: true
    Max angular momentum: 3

  ==> DFT Potential <==

   => LibXC <=

    Version 6.2.2
    S. Lehtola, C. Steigemann, M. J.T. Oliveira, and M. A.L. Marques.,  SoftwareX 7, 1–5 (2018) (10.1016/j.softx.2017.11.002)

   => Composite Functional: B3LYP <= 

    B3LYP Hyb-GGA Exchange-Correlation Functional

    P. J. Stephens, F. J. Devlin, C. F. Chabalowski, and M. J. Frisch.,  J. Phys. Chem. 98, 11623 (1994) (10.1021/j100096a001)

    Deriv               =              1
    GGA                 =           TRUE
    Meta                =          FALSE

    Exchange Hybrid     =           TRUE
    MP2 Hybrid          =          FALSE

   => Exchange Functionals <=

    0.0800   Slater exchange
    0.7200         Becke 88

   => Exact (HF) Exchange <=

    0.2000               HF 

   => Correlation Functionals <=

    0.1900   Vosko, Wilk & Nusair (VWN5_RPA)
    0.8100   Lee, Yang & Parr

   => LibXC Density Thresholds  <==

    XC_HYB_GGA_XC_B3LYP:  1.00E-15 

   => Molecular Quadrature <=

    Radial Scheme          =       TREUTLER
    Pruning Scheme         =           NONE
    Nuclear Scheme         =       TREUTLER

    Blocking Scheme        =         OCTREE
    BS radius alpha        =              1
    Pruning alpha          =              1
    Radial Points          =             75
    Spherical Points       =            302
    Total Points           =          44121
    Total Blocks           =            390
    Max Points             =            256
    Max Functions          =             44
    Weights Tolerance      =       1.00E-15

   => Loading Basis Set <=

    Name: (CC-PVTZ AUX)
    Role: JKFIT
    Keyword: DF_BASIS_SCF
    atoms 1 entry O          line   229 file /Users/joseantoniorodriguesromero/anaconda3/share/psi4/basis/cc-pvtz-jkfit.gbs 
    atoms 2 entry H          line    51 file /Users/joseantoniorodriguesromero/anaconda3/share/psi4/basis/cc-pvtz-jkfit.gbs 

   => Loading Basis Set <=

    Name: CC-PVTZ
    Role: ORBITAL
    Keyword: BASIS
    atoms 1 entry O          line   262 file /Users/joseantoniorodriguesromero/anaconda3/share/psi4/basis/cc-pvtz.gbs 
    atoms 2 entry H          line    23 file /Users/joseantoniorodriguesromero/anaconda3/share/psi4/basis/cc-pvtz.gbs 

  Reading orbitals from file /tmp/scan_HO_16.default.50168.180.npy, no projection.

  ==> Integral Setup <==

  DFHelper Memory: AOs need 0.002 GiB; user supplied 0.312 GiB. 
  Using in-core AOs.

  ==> MemDFJK: Density-Fitted J/K Matrices <==

    J tasked:                   Yes
    K tasked:                   Yes
    wK tasked:                   No
    OpenMP threads:               1
    Memory [MiB]:               319
    Algorithm:                 Core
    Schwarz Cutoff:           1E-12
    Mask sparsity (%):       0.0000
    Fitting Condition:        1E-10

   => Auxiliary Basis Set <=

  Basis Set: (CC-PVTZ AUX)
    Blend: CC-PVTZ-JKFIT
    Number of shells: 35
    Number of basis functions: 109
    Number of Cartesian functions: 131
    Spherical Harmonics?: true
    Max angular momentum: 4

  Cached 100.0% of DFT collocation blocks in 0.055 [GiB].

  Minimum eigenvalue in the overlap matrix is 3.2620305184E-03.
  Reciprocal condition number of the overlap matrix is 8.1143231991E-04.
    Using symmetric orthogonalization.

  ==> Pre-Iterations <==

  SCF Guess: Orbitals guess was supplied from a previous computation.

   -------------------------------------------------------
    Irrep   Nso     Nmo     Nalpha   Nbeta   Ndocc  Nsocc
   -------------------------------------------------------
     A1        20      20       3       3       3       0
     A2         4       4       0       0       0       0
     B1        10      10       1       0       0       1
     B2        10      10       1       0       0       1
   -------------------------------------------------------
    Total      44      44       5       3       3       2
   -------------------------------------------------------

  ==> Iterations <==

                           Total Energy        Delta E     RMS |[F,P]|

   @DF-UKS iter   0:   -75.28075641287697   -7.52808e+01   1.98395e-03 
   @DF-UKS iter   1:   -75.26765412786688    1.31023e-02   2.48408e-04 DIIS/ADIIS
   @DF-UKS iter   2:   -75.26766385148819   -9.72362e-06   1.13748e-04 DIIS/ADIIS/DAMP=1%
   @DF-UKS iter   3:   -75.26772017242112   -5.63209e-05   2.35020e-05 DIIS/DAMP=1%
   @DF-UKS iter   4:   -75.26765588586080    6.42866e-05   2.86332e-06 DIIS/DAMP=1%
   @DF-UKS iter   5:   -75.26766736546544   -1.14796e-05   3.46410e-07 DIIS/DAMP=1%
   @DF-UKS iter   6:   -75.26766601527650    1.35019e-06   5.77822e-08 DIIS/DAMP=1%
   @DF-UKS iter   7:   -75.26766613699371   -1.21717e-07   3.08557e-09 DIIS/DAMP=1%
   @DF-UKS iter   8:   -75.26766612372774    1.32660e-08   2.50095e-10 DIIS/DAMP=1%
   @DF-UKS iter   9:   -75.26766612361500    1.12735e-10   2.41521e-11 DIIS/DAMP=1%
  Energy and wave function converged.


  ==> Post-Iterations <==

   Electrons on quadrature grid:
      Nalpha   =    4.9999999740 ; deviation = -2.602e-08
      Nbeta    =    2.9999999919 ; deviation = -8.091e-09
      Ntotal   =    7.9999999659 ; deviation = -3.412e-08 

   @Spin Contamination Metric:   3.965141278E-03
   @S^2 Expected:                2.000000000E+00
   @S^2 Observed:                2.003965141E+00
   @S   Expected:                1.000000000E+00
   @S   Observed:                1.000000000E+00

    Orbital Energies [Eh]
    ---------------------

    Alpha Occupied:                                                       

       1A1   -19.828400     2A1    -1.610963     3A1    -1.015397  
       1B2    -0.966018     1B1    -0.966018  

    Alpha Virtual:                                                        

       4A1    -0.278830     5A1     0.031742     2B1     0.135189  
       2B2     0.135189     6A1     0.155024     3B1     0.325017  
       3B2     0.325017     7A1     0.450504     8A1     0.910087  
       1A2     0.910087     9A1     0.927807     4B1     1.311713  
       4B2     1.311713    10A1     1.415881    11A1     2.025448  
      12A1     2.765295     2A2     2.765296     5B1     2.837667  
       5B2     2.837667     6B1     3.132680     6B2     3.132680  
      13A1     3.299786     7B1     3.653443     7B2     3.653443  
      14A1     3.932973    15A1     4.220541     8B1     4.485933  
       8B2     4.485933    16A1     4.868908     3A2     4.868908  
       4A2     5.515810    17A1     5.515810     9B2     5.768365  
       9B1     5.768365    18A1     5.992546    10B1     6.246211  
      10B2     6.246211    19A1     6.548767    20A1    10.208649  

    Beta Occupied:                                                        

       1A1   -19.772408     2A1    -1.463106     3A1    -0.957186  

    Beta Virtual:                                                         

       1B2    -0.662298     1B1    -0.662298     4A1    -0.263314  
       5A1     0.044230     6A1     0.167291     2B1     0.204777  
       2B2     0.204777     3B1     0.340155     3B2     0.340155  
       7A1     0.498152     8A1     0.951882     9A1     1.022003  
       1A2     1.022003     4B1     1.364908     4B2     1.364908  
      10A1     1.445636    11A1     2.040142     2A2     2.781540  
      12A1     2.781540     5B2     2.921013     5B1     2.921013  
       6B1     3.184938     6B2     3.184938    13A1     3.310482  
       7B1     3.693018     7B2     3.693018    14A1     3.988386  
      15A1     4.279159     8B1     4.638319     8B2     4.638319  
      16A1     4.965749     3A2     4.965749     4A2     5.727315  
      17A1     5.727316     9B2     5.877946     9B1     5.877946  
      18A1     6.042897    10B1     6.304741    10B2     6.304741  
      19A1     6.601578    20A1    10.279165  

    Final Occupation by Irrep:
             A1    A2    B1    B2 
    DOCC [     3,    0,    0,    0 ]
    SOCC [     0,    0,    1,    1 ]
    NA   [     3,    0,    1,    1 ]
    NB   [     3,    0,    0,    0 ]

  @DF-UKS Final Energy:   -75.26766612361500

   => Energetics <=

    Nuclear Repulsion Energy =              4.6568921753229970
    One-Electron Energy =                -108.3064740108211197
    Two-Electron Energy =                  35.2883147663375354
    DFT Exchange-Correlation Energy =      -6.9063990544544112
    Empirical Dispersion Energy =           0.0000000000000000
    VV10 Nonlocal Energy =                  0.0000000000000000
    Total Energy =                        -75.2676661236150011

  UHF NO Occupations:
  HONO-2 :    3 A1 1.9984977
  HONO-1 :    1 B1 1.0000000
  HONO-0 :    1 B2 1.0000000
  LUNO+0 :    4 A1 0.0015023
  LUNO+1 :    5 A1 0.0004800
  LUNO+2 :    6 A1 0.0000015
  LUNO+3 :    7 A1 0.0000000


Computation Completed


Properties will be evaluated at   0.000000,   0.000000,   0.000000 [a0]

Properties computed using the SCF density matrix


 Multipole Moments:

 ------------------------------------------------------------------------------------
     Multipole            Electronic (a.u.)      Nuclear  (a.u.)        Total (a.u.)
 ------------------------------------------------------------------------------------

 L = 1.  Multiply by 2.5417464519 to convert [e a0] to [Debye]
 Dipole X            :          0.0000000            0.0000000            0.0000000
 Dipole Y            :          0.0000000            0.0000000            0.0000000
 Dipole Z            :         -0.0145447            0.8014470            0.7869023
 Magnitude           :                                                    0.7869023

 ------------------------------------------------------------------------------------

*** tstop() called on Mac.lan at Sun Aug 10 18:28:40 2025
Module time:
	user time   =       9.94 seconds =       0.17 minutes
	system time =       1.79 seconds =       0.03 minutes
	total time  =          1 seconds =       0.02 minutes
Total time:
	user time   =       9.94 seconds =       0.17 minutes
	system time =       1.79 seconds =       0.03 minutes
	total time  =          1 seconds =       0.02 minutes

*** tstart() called on Mac.lan
*** at Sun Aug 10 18:28:40 2025

   => Libint2 <=

    Primary   basis highest AM E, G, H:  6, 6, 3
    Auxiliary basis highest AM E, G, H:  7, 7, 4
    Onebody   basis highest AM E, G, H:  -, -, -
    Solid Harmonics ordering:            Gaussian
   => Loading Basis Set <=

    Name: CC-PVTZ
    Role: ORBITAL
    Keyword: BASIS
    atoms 1 entry O          line   262 file /Users/joseantoniorodriguesromero/anaconda3/share/psi4/basis/cc-pvtz.gbs 
    atoms 2 entry H          line    23 file /Users/joseantoniorodriguesromero/anaconda3/share/psi4/basis/cc-pvtz.gbs 


         ---------------------------------------------------------
                                   SCF
               by Justin Turney, Rob Parrish, Andy Simmonett
                          and Daniel G. A. Smith
                              UKS Reference
                        1 Threads,    500 MiB Core
         ---------------------------------------------------------

  ==> Geometry <==

    Molecular point group: c2v
    Full point group: C_inf_v

    Geometry (in Angstrom), charge = 1, multiplicity = 3:

       Center              X                  Y                   Z               Mass       
    ------------   -----------------  -----------------  -----------------  -----------------
         O            0.000000000000     0.000000000000    -0.053884167004    15.994914619570
         H            0.000000000000     0.000000000000     0.855180832996     1.007825032230

  Running in c2v symmetry.

  Rotational constants: A = ************  B =     21.51585  C =     21.51585 [cm^-1]
  Rotational constants: A = ************  B = 645028.88384  C = 645028.88384 [MHz]
  Nuclear repulsion =    4.656892175322997

  Charge       = 1
  Multiplicity = 3
  Electrons    = 8
  Nalpha       = 5
  Nbeta        = 3

  ==> Algorithm <==

  SCF Algorithm Type is DF.
  DIIS enabled.
  MOM disabled.
  Fractional occupation disabled.
  Guess Type is READ.
  Energy threshold   = 1.00e-08
  Density threshold  = 1.00e-08
  Integral threshold = 1.00e-12

  ==> Primary Basis <==

  Basis Set: CC-PVTZ
    Blend: CC-PVTZ
    Number of shells: 16
    Number of basis functions: 44
    Number of Cartesian functions: 50
    Spherical Harmonics?: true
    Max angular momentum: 3

  ==> DFT Potential <==

   => LibXC <=

    Version 6.2.2
    S. Lehtola, C. Steigemann, M. J.T. Oliveira, and M. A.L. Marques.,  SoftwareX 7, 1–5 (2018) (10.1016/j.softx.2017.11.002)

   => Composite Functional: B3LYP <= 

    B3LYP Hyb-GGA Exchange-Correlation Functional

    P. J. Stephens, F. J. Devlin, C. F. Chabalowski, and M. J. Frisch.,  J. Phys. Chem. 98, 11623 (1994) (10.1021/j100096a001)

    Deriv               =              1
    GGA                 =           TRUE
    Meta                =          FALSE

    Exchange Hybrid     =           TRUE
    MP2 Hybrid          =          FALSE

   => Exchange Functionals <=

    0.0800   Slater exchange
    0.7200         Becke 88

   => Exact (HF) Exchange <=

    0.2000               HF 

   => Correlation Functionals <=

    0.1900   Vosko, Wilk & Nusair (VWN5_RPA)
    0.8100   Lee, Yang & Parr

   => LibXC Density Thresholds  <==

    XC_HYB_GGA_XC_B3LYP:  1.00E-15 

   => Molecular Quadrature <=

    Radial Scheme          =       TREUTLER
    Pruning Scheme         =           NONE
    Nuclear Scheme         =       TREUTLER

    Blocking Scheme        =         OCTREE
    BS radius alpha        =              1
    Pruning alpha          =              1
    Radial Points          =             75
    Spherical Points       =            302
    Total Points           =          44121
    Total Blocks           =            390
    Max Points             =            256
    Max Functions          =             44
    Weights Tolerance      =       1.00E-15

   => Loading Basis Set <=

    Name: (CC-PVTZ AUX)
    Role: JKFIT
    Keyword: DF_BASIS_SCF
    atoms 1 entry O          line   229 file /Users/joseantoniorodriguesromero/anaconda3/share/psi4/basis/cc-pvtz-jkfit.gbs 
    atoms 2 entry H          line    51 file /Users/joseantoniorodriguesromero/anaconda3/share/psi4/basis/cc-pvtz-jkfit.gbs 

   => Loading Basis Set <=

    Name: CC-PVTZ
    Role: ORBITAL
    Keyword: BASIS
    atoms 1 entry O          line   262 file /Users/joseantoniorodriguesromero/anaconda3/share/psi4/basis/cc-pvtz.gbs 
    atoms 2 entry H          line    23 file /Users/joseantoniorodriguesromero/anaconda3/share/psi4/basis/cc-pvtz.gbs 

  Reading orbitals from file /tmp/scan_HO_16.default.50168.180.npy, no projection.

  ==> Integral Setup <==

  DFHelper Memory: AOs need 0.002 GiB; user supplied 0.312 GiB. 
  Using in-core AOs.

  ==> MemDFJK: Density-Fitted J/K Matrices <==

    J tasked:                   Yes
    K tasked:                   Yes
    wK tasked:                   No
    OpenMP threads:               1
    Memory [MiB]:               319
    Algorithm:                 Core
    Schwarz Cutoff:           1E-12
    Mask sparsity (%):       0.0000
    Fitting Condition:        1E-10

   => Auxiliary Basis Set <=

  Basis Set: (CC-PVTZ AUX)
    Blend: CC-PVTZ-JKFIT
    Number of shells: 35
    Number of basis functions: 109
    Number of Cartesian functions: 131
    Spherical Harmonics?: true
    Max angular momentum: 4

  Cached 100.0% of DFT collocation blocks in 0.055 [GiB].

  Minimum eigenvalue in the overlap matrix is 3.2620305184E-03.
  Reciprocal condition number of the overlap matrix is 8.1143231991E-04.
    Using symmetric orthogonalization.

  ==> Pre-Iterations <==

  SCF Guess: Orbitals guess was supplied from a previous computation.

   -------------------------------------------------------
    Irrep   Nso     Nmo     Nalpha   Nbeta   Ndocc  Nsocc
   -------------------------------------------------------
     A1        20      20       3       3       3       0
     A2         4       4       0       0       0       0
     B1        10      10       1       0       0       1
     B2        10      10       1       0       0       1
   -------------------------------------------------------
    Total      44      44       5       3       3       2
   -------------------------------------------------------

  ==> Iterations <==

                           Total Energy        Delta E     RMS |[F,P]|

   @DF-UKS iter   0:   -75.26766612361772   -7.52677e+01   2.03011e-12 
   @DF-UKS iter   1:   -75.26766612361784   -1.27898e-13   8.05493e-13 DIIS
  Energy and wave function converged.


  ==> Post-Iterations <==

   Electrons on quadrature grid:
      Nalpha   =    4.9999999740 ; deviation = -2.602e-08
      Nbeta    =    2.9999999919 ; deviation = -8.091e-09
      Ntotal   =    7.9999999659 ; deviation = -3.412e-08 

   @Spin Contamination Metric:   3.965141276E-03
   @S^2 Expected:                2.000000000E+00
   @S^2 Observed:                2.003965141E+00
   @S   Expected:                1.000000000E+00
   @S   Observed:                1.000000000E+00

    Orbital Energies [Eh]
    ---------------------

    Alpha Occupied:                                                       

       1A1   -19.828400     2A1    -1.610963     3A1    -1.015397  
       1B2    -0.966018     1B1    -0.966018  

    Alpha Virtual:                                                        

       4A1    -0.278830     5A1     0.031742     2B1     0.135189  
       2B2     0.135189     6A1     0.155024     3B1     0.325017  
       3B2     0.325017     7A1     0.450504     8A1     0.910087  
       1A2     0.910087     9A1     0.927807     4B1     1.311713  
       4B2     1.311713    10A1     1.415881    11A1     2.025448  
      12A1     2.765295     2A2     2.765296     5B1     2.837667  
       5B2     2.837667     6B1     3.132680     6B2     3.132680  
      13A1     3.299786     7B1     3.653443     7B2     3.653443  
      14A1     3.932973    15A1     4.220541     8B1     4.485933  
       8B2     4.485933    16A1     4.868908     3A2     4.868908  
       4A2     5.515810    17A1     5.515810     9B2     5.768365  
       9B1     5.768365    18A1     5.992546    10B1     6.246211  
      10B2     6.246211    19A1     6.548767    20A1    10.208649  

    Beta Occupied:                                                        

       1A1   -19.772408     2A1    -1.463106     3A1    -0.957186  

    Beta Virtual:                                                         

       1B2    -0.662298     1B1    -0.662298     4A1    -0.263314  
       5A1     0.044230     6A1     0.167291     2B1     0.204777  
       2B2     0.204777     3B1     0.340155     3B2     0.340155  
       7A1     0.498152     8A1     0.951882     9A1     1.022003  
       1A2     1.022003     4B1     1.364908     4B2     1.364908  
      10A1     1.445636    11A1     2.040142     2A2     2.781540  
      12A1     2.781540     5B2     2.921013     5B1     2.921013  
       6B1     3.184938     6B2     3.184938    13A1     3.310482  
       7B1     3.693018     7B2     3.693018    14A1     3.988386  
      15A1     4.279159     8B1     4.638319     8B2     4.638319  
      16A1     4.965749     3A2     4.965749     4A2     5.727315  
      17A1     5.727316     9B2     5.877946     9B1     5.877946  
      18A1     6.042897    10B1     6.304741    10B2     6.304741  
      19A1     6.601578    20A1    10.279165  

    Final Occupation by Irrep:
             A1    A2    B1    B2 
    DOCC [     3,    0,    0,    0 ]
    SOCC [     0,    0,    1,    1 ]
    NA   [     3,    0,    1,    1 ]
    NB   [     3,    0,    0,    0 ]

  @DF-UKS Final Energy:   -75.26766612361784

   => Energetics <=

    Nuclear Repulsion Energy =              4.6568921753229970
    One-Electron Energy =                -108.3064740108686692
    Two-Electron Energy =                  35.2883147663580772
    DFT Exchange-Correlation Energy =      -6.9063990544302323
    Empirical Dispersion Energy =           0.0000000000000000
    VV10 Nonlocal Energy =                  0.0000000000000000
    Total Energy =                        -75.2676661236178290

  UHF NO Occupations:
  HONO-2 :    3 A1 1.9984977
  HONO-1 :    1 B1 1.0000000
  HONO-0 :    1 B2 1.0000000
  LUNO+0 :    4 A1 0.0015023
  LUNO+1 :    5 A1 0.0004800
  LUNO+2 :    6 A1 0.0000015
  LUNO+3 :    7 A1 0.0000000


Computation Completed


Properties will be evaluated at   0.000000,   0.000000,   0.000000 [a0]

Properties computed using the B3LYP density matrix


 Multipole Moments:

 ------------------------------------------------------------------------------------
     Multipole            Electronic (a.u.)      Nuclear  (a.u.)        Total (a.u.)
 ------------------------------------------------------------------------------------

 L = 1.  Multiply by 2.5417464519 to convert [e a0] to [Debye]
 Dipole X            :          0.0000000            0.0000000            0.0000000
 Dipole Y            :          0.0000000            0.0000000            0.0000000
 Dipole Z            :         -0.0145447            0.8014470            0.7869023
 Magnitude           :                                                    0.7869023

 L = 2.  Multiply by 1.3450342976 to convert [e a0^2] to [Debye ang]
 Quadrupole XX       :         -2.9696571            0.0000000           -2.9696571
 Quadrupole XY       :          0.0000000            0.0000000            0.0000000
 Quadrupole XZ       :          0.0000000            0.0000000            0.0000000
 Quadrupole YY       :         -2.9696571            0.0000000           -2.9696571
 Quadrupole YZ       :          0.0000000            0.0000000            0.0000000
 Quadrupole ZZ       :         -4.6363643            2.6945908           -1.9417735
 Traceless XX        :          0.5555691           -0.8981969           -0.3426279
 Traceless YY        :          0.5555691           -0.8981969           -0.3426279
 Traceless ZZ        :         -1.1111381            1.7963939            0.6852558

 ------------------------------------------------------------------------------------
  ==> Computing MBIS Charges <==

  Electron Count from Grid (Expected Number):  8.00000 ( 8.00000)
  Difference: -0.00000

  MBIS Charges: (a.u.)
   Center  Symbol  Z      Pop.       Charge
      1       O    8    7.492175    0.507825
      2       H    1    0.507825    0.492175

  MBIS Dipoles: [e a0]
   Center  Symbol  Z        X           Y           Z
      1       O    8    0.000000   -0.000000    0.000228
      2       H    1   -0.000000   -0.000000    0.043000

  MBIS Quadrupoles: [e a0^2]
   Center  Symbol  Z      XX        XY        XZ        YY        YZ        ZZ
      1       O    8   -2.7857   -0.0000    0.0000   -2.7857   -0.0000   -3.1926
      2       H    1   -0.1840    0.0000   -0.0000   -0.1840   -0.0000   -0.1788

  MBIS Octupoles: [e a0^3]
   Center  Symbol  Z      XXX       XXY       XXZ       XYY       XYZ       XZZ       YYY       YYZ       YZZ       ZZZ
      1       O    8    0.0000   -0.0000    0.0151    0.0000   -0.0000   -0.0000   -0.0000    0.0151   -0.0000   -0.0108
      2       H    1   -0.0000   -0.0000    0.0053    0.0000    0.0000   -0.0000   -0.0000    0.0053   -0.0000    0.0233

  MBIS Radial Moments:
   Center  Symbol  Z      [a0^2]      [a0^3]      [a0^4]      
      1       O    8    8.763894   14.799278   29.949315
      2       H    1    0.546781    0.803597    1.415473

  MBIS Valence Widths: [a0]
   Center  Symbol  Z     Width
      1       O    8    0.354734
      2       H    1    0.303026

*** tstop() called on Mac.lan at Sun Aug 10 18:28:40 2025
Module time:
	user time   =       2.88 seconds =       0.05 minutes
	system time =       2.18 seconds =       0.04 minutes
	total time  =          0 seconds =       0.00 minutes
Total time:
	user time   =      12.91 seconds =       0.22 minutes
	system time =       4.10 seconds =       0.07 minutes
	total time  =          1 seconds =       0.02 minutes

    Psi4 stopped on: Sunday, 10 August 2025 06:28PM
    Psi4 wall time for execution: 0:00:01.66

*** Psi4 exiting successfully. Buy a developer a beer!
