
    -----------------------------------------------------------------------
          Psi4: An Open-Source Ab Initio Electronic Structure Package
                               Psi4 1.9.1 release

                         Git: Rev {} zzzzzzz 


    D. G. A. Smith, L. A. Burns, A. C. Simmonett, R. M. Parrish,
    M. C. Schieber, R. Galvelis, P. Kraus, H. Kruse, R. Di Remigio,
    A. Alenaizan, A. M. James, S. Lehtola, J. P. Misiewicz, M. Scheurer,
    R. A. Shaw, J. B. Schriber, Y. Xie, Z. L. Glick, D. A. Sirianni,
    J. S. O'Brien, J. M. Waldrop, A. Kumar, E. G. Hohenstein,
    B. P. Pritchard, B. R. Brooks, H. F. Schaefer III, A. Yu. Sokolov,
    K. Patkowski, A. E. DePrince III, U. Bozkaya, R. A. King,
    F. A. Evangelista, J. M. Turney, T. D. Crawford, C. D. Sherrill,
    J. Chem. Phys. 152(18) 184108 (2020). https://doi.org/10.1063/5.0006002

                            Additional Code Authors
    E. T. Seidl, C. L. Janssen, E. F. Valeev, M. L. Leininger,
    J. F. Gonthier, R. M. Richard, H. R. McAlexander, M. Saitow, X. Wang,
    P. Verma, M. H. Lechner, A. Jiang, S. Behnle, A. G. Heide,
    M. F. Herbst, and D. L. Poole

             Previous Authors, Complete List of Code Contributors,
                       and Citations for Specific Modules
    https://github.com/psi4/psi4/blob/master/codemeta.json
    https://github.com/psi4/psi4/graphs/contributors
    http://psicode.org/psi4manual/master/introduction.html#citing-psifour

    -----------------------------------------------------------------------


    Psi4 started on: Sunday, 10 August 2025 06:32PM

    Process ID: 50304
    Host:       Mac.lan
    PSIDATADIR: /Users/joseantoniorodriguesromero/anaconda3/share/psi4
    Memory:     500.0 MiB
    Threads:    1
    
  ==> Input File <==

--------------------------------------------------------------------------
molecule { 
1 3
N           0.000000           0.000000           0.000000
C           0.000000           0.000000           1.055626
}

set { 
basis              cc-pvtz
reference          uks
maxiter            500
DAMPING_PERCENTAGE 1
E_CONVERGENCE      1.0E-8
D_CONVERGENCE      1.0E-8
DIIS_MAX_VECS      400
MBIS_MAXITER       8000
guess              read
}

E, wfn = energy('b3lyp', restart_file='last_wfn', return_wfn=True)
properties('b3lyp','MBIS_CHARGES', wfn=wfn)
wfn.to_file('last_wfn')
--------------------------------------------------------------------------

Scratch directory: /tmp/
 Found user provided orbital data. Setting orbital guess to READ 
 Copying restart file <last_wfn.npy> to </tmp/scan_CN_15.default.50304.180.npy> for internal processing
   => Libint2 <=

    Primary   basis highest AM E, G, H:  6, 6, 3
    Auxiliary basis highest AM E, G, H:  7, 7, 4
    Onebody   basis highest AM E, G, H:  -, -, -
    Solid Harmonics ordering:            Gaussian

*** tstart() called on Mac.lan
*** at Sun Aug 10 18:32:51 2025

   => Loading Basis Set <=

    Name: CC-PVTZ
    Role: ORBITAL
    Keyword: BASIS
    atoms 1 entry N          line   224 file /Users/joseantoniorodriguesromero/anaconda3/share/psi4/basis/cc-pvtz.gbs 
    atoms 2 entry C          line   186 file /Users/joseantoniorodriguesromero/anaconda3/share/psi4/basis/cc-pvtz.gbs 


         ---------------------------------------------------------
                                   SCF
               by Justin Turney, Rob Parrish, Andy Simmonett
                          and Daniel G. A. Smith
                              UKS Reference
                        1 Threads,    500 MiB Core
         ---------------------------------------------------------

  ==> Geometry <==

    Molecular point group: c2v
    Full point group: C_inf_v

    Geometry (in Angstrom), charge = 1, multiplicity = 3:

       Center              X                  Y                   Z               Mass       
    ------------   -----------------  -----------------  -----------------  -----------------
         N            0.000000000000     0.000000000000    -0.487154403277    14.003074004430
         C            0.000000000000     0.000000000000     0.568471596723    12.000000000000

  Running in c2v symmetry.

  Rotational constants: A = ************  B =      2.34097  C =      2.34097 [cm^-1]
  Rotational constants: A = ************  B =  70180.60449  C =  70180.60449 [MHz]
  Nuclear repulsion =   21.054277602237917

  Charge       = 1
  Multiplicity = 3
  Electrons    = 12
  Nalpha       = 7
  Nbeta        = 5

  ==> Algorithm <==

  SCF Algorithm Type is DF.
  DIIS enabled.
  MOM disabled.
  Fractional occupation disabled.
  Guess Type is READ.
  Energy threshold   = 1.00e-08
  Density threshold  = 1.00e-08
  Integral threshold = 1.00e-12

  ==> Primary Basis <==

  Basis Set: CC-PVTZ
    Blend: CC-PVTZ
    Number of shells: 20
    Number of basis functions: 60
    Number of Cartesian functions: 70
    Spherical Harmonics?: true
    Max angular momentum: 3

  ==> DFT Potential <==

   => LibXC <=

    Version 6.2.2
    S. Lehtola, C. Steigemann, M. J.T. Oliveira, and M. A.L. Marques.,  SoftwareX 7, 1–5 (2018) (10.1016/j.softx.2017.11.002)

   => Composite Functional: B3LYP <= 

    B3LYP Hyb-GGA Exchange-Correlation Functional

    P. J. Stephens, F. J. Devlin, C. F. Chabalowski, and M. J. Frisch.,  J. Phys. Chem. 98, 11623 (1994) (10.1021/j100096a001)

    Deriv               =              1
    GGA                 =           TRUE
    Meta                =          FALSE

    Exchange Hybrid     =           TRUE
    MP2 Hybrid          =          FALSE

   => Exchange Functionals <=

    0.0800   Slater exchange
    0.7200         Becke 88

   => Exact (HF) Exchange <=

    0.2000               HF 

   => Correlation Functionals <=

    0.1900   Vosko, Wilk & Nusair (VWN5_RPA)
    0.8100   Lee, Yang & Parr

   => LibXC Density Thresholds  <==

    XC_HYB_GGA_XC_B3LYP:  1.00E-15 

   => Molecular Quadrature <=

    Radial Scheme          =       TREUTLER
    Pruning Scheme         =           NONE
    Nuclear Scheme         =       TREUTLER

    Blocking Scheme        =         OCTREE
    BS radius alpha        =              1
    Pruning alpha          =              1
    Radial Points          =             75
    Spherical Points       =            302
    Total Points           =          43220
    Total Blocks           =            390
    Max Points             =            256
    Max Functions          =             60
    Weights Tolerance      =       1.00E-15

   => Loading Basis Set <=

    Name: (CC-PVTZ AUX)
    Role: JKFIT
    Keyword: DF_BASIS_SCF
    atoms 1 entry N          line   177 file /Users/joseantoniorodriguesromero/anaconda3/share/psi4/basis/cc-pvtz-jkfit.gbs 
    atoms 2 entry C          line   125 file /Users/joseantoniorodriguesromero/anaconda3/share/psi4/basis/cc-pvtz-jkfit.gbs 

   => Loading Basis Set <=

    Name: CC-PVTZ
    Role: ORBITAL
    Keyword: BASIS
    atoms 1 entry N          line   224 file /Users/joseantoniorodriguesromero/anaconda3/share/psi4/basis/cc-pvtz.gbs 
    atoms 2 entry C          line   186 file /Users/joseantoniorodriguesromero/anaconda3/share/psi4/basis/cc-pvtz.gbs 

  Reading orbitals from file /tmp/scan_CN_15.default.50304.180.npy, no projection.

  ==> Integral Setup <==

  DFHelper Memory: AOs need 0.005 GiB; user supplied 0.294 GiB. 
  Using in-core AOs.

  ==> MemDFJK: Density-Fitted J/K Matrices <==

    J tasked:                   Yes
    K tasked:                   Yes
    wK tasked:                   No
    OpenMP threads:               1
    Memory [MiB]:               300
    Algorithm:                 Core
    Schwarz Cutoff:           1E-12
    Mask sparsity (%):       0.0000
    Fitting Condition:        1E-10

   => Auxiliary Basis Set <=

  Basis Set: (CC-PVTZ AUX)
    Blend: CC-PVTZ-JKFIT
    Number of shells: 50
    Number of basis functions: 158
    Number of Cartesian functions: 192
    Spherical Harmonics?: true
    Max angular momentum: 4

  Cached 100.0% of DFT collocation blocks in 0.072 [GiB].

  Minimum eigenvalue in the overlap matrix is 1.5971661500E-03.
  Reciprocal condition number of the overlap matrix is 3.8117116142E-04.
    Using symmetric orthogonalization.

  ==> Pre-Iterations <==

  SCF Guess: Orbitals guess was supplied from a previous computation.

   -------------------------------------------------------
    Irrep   Nso     Nmo     Nalpha   Nbeta   Ndocc  Nsocc
   -------------------------------------------------------
     A1        26      26       5       4       4       1
     A2         6       6       0       0       0       0
     B1        14      14       1       0       0       1
     B2        14      14       1       1       1       0
   -------------------------------------------------------
    Total      60      60       7       5       5       2
   -------------------------------------------------------

  ==> Iterations <==

                           Total Energy        Delta E     RMS |[F,P]|

   @DF-UKS iter   0:   -92.18736329346419   -9.21874e+01   3.19027e-03 
   @DF-UKS iter   1:   -92.16373641827155    2.36269e-02   2.39978e-04 DIIS/ADIIS
   @DF-UKS iter   2:   -92.16377095053974   -3.45323e-05   1.36779e-04 DIIS/ADIIS/DAMP=1%
   @DF-UKS iter   3:   -92.16388208939985   -1.11139e-04   6.52419e-05 DIIS/DAMP=1%
   @DF-UKS iter   4:   -92.16374851679581    1.33573e-04   5.17262e-05 DIIS/DAMP=1%
   @DF-UKS iter   5:   -92.16378872387659   -4.02071e-05   1.00156e-05 DIIS/DAMP=1%
   @DF-UKS iter   6:   -92.16378270510563    6.01877e-06   2.02191e-06 DIIS/DAMP=1%
   @DF-UKS iter   7:   -92.16378158590142    1.11920e-06   6.03282e-07 DIIS/DAMP=1%
   @DF-UKS iter   8:   -92.16378219088014   -6.04979e-07   9.35226e-08 DIIS/DAMP=1%
   @DF-UKS iter   9:   -92.16378208504489    1.05835e-07   7.85523e-09 DIIS/DAMP=1%
   @DF-UKS iter  10:   -92.16378209911217   -1.40673e-08   4.28111e-09 DIIS/DAMP=1%
   @DF-UKS iter  11:   -92.16378210391072   -4.79855e-09   1.86573e-10 DIIS/DAMP=1%
  Energy and wave function converged.


  ==> Post-Iterations <==

   Electrons on quadrature grid:
      Nalpha   =    6.9999998356 ; deviation = -1.644e-07
      Nbeta    =    4.9999998809 ; deviation = -1.191e-07
      Ntotal   =   11.9999997165 ; deviation = -2.835e-07 

   @Spin Contamination Metric:   4.492910793E-03
   @S^2 Expected:                2.000000000E+00
   @S^2 Observed:                2.004492911E+00
   @S   Expected:                1.000000000E+00
   @S   Observed:                1.000000000E+00

    Orbital Energies [Eh]
    ---------------------

    Alpha Occupied:                                                       

       1A1   -14.817708     2A1   -10.743146     3A1    -1.478943  
       1B1    -0.888464     4A1    -0.880979     1B2    -0.841779  
       5A1    -0.803480  

    Alpha Virtual:                                                        

       2B1    -0.387351     2B2    -0.353592     6A1    -0.099144  
       3B1    -0.024791     3B2    -0.013600     7A1    -0.012426  
       8A1     0.150692     4B1     0.210294     4B2     0.226845  
       1A2     0.249892     9A1     0.250295    10A1     0.337331  
       5B1     0.498622     5B2     0.520818    11A1     0.580513  
       2A2     0.817187    12A1     0.818077    13A1     1.035401  
       6B1     1.191200     6B2     1.213781    14A1     1.445510  
       7B1     1.504975     7B2     1.529931    15A1     1.870441  
       8B1     2.189888     8B2     2.190121    16A1     2.310971  
       3A2     2.316925    17A1     2.340164     9B1     2.396529  
       9B2     2.423260     4A2     2.497875    18A1     2.498119  
      10B1     2.551715    10B2     2.589653    19A1     2.755655  
      11B1     3.048314    11B2     3.078330    12B1     3.533079  
      12B2     3.533232    20A1     3.775171    21A1     4.033795  
       5A2     4.033916     6A2     4.245874    22A1     4.246617  
      13B1     4.439785    13B2     4.473989    23A1     4.730407  
      24A1     5.027409    14B1     5.379784    14B2     5.415181  
      25A1     6.197179    26A1    13.935546  

    Beta Occupied:                                                        

       1A1   -14.803445     2A1   -10.714113     3A1    -1.409969  
       1B2    -0.816785     4A1    -0.795531  

    Beta Virtual:                                                         

       1B1    -0.695573     5A1    -0.609595     2B2    -0.313893  
       2B1    -0.283030     6A1    -0.082105     3B2    -0.004412  
       3B1     0.003292     7A1     0.029575     8A1     0.165395  
       4B2     0.231371     4B1     0.240233     1A2     0.285940  
       9A1     0.289199    10A1     0.404399     5B2     0.555907  
       5B1     0.561675    11A1     0.599693     2A2     0.846062  
      12A1     0.848908    13A1     1.096453     6B2     1.227047  
       6B1     1.230963    14A1     1.486688     7B2     1.555289  
       7B1     1.565693    15A1     1.932632     8B2     2.243253  
       8B1     2.245245     3A2     2.363651    16A1     2.367475  
      17A1     2.393187     9B2     2.494203     9B1     2.513563  
       4A2     2.587011    18A1     2.595089    10B2     2.618752  
      10B1     2.634816    19A1     2.866098    11B2     3.118422  
      11B1     3.129138    12B2     3.572253    12B1     3.573570  
      20A1     3.823744     5A2     4.084269    21A1     4.091579  
       6A2     4.281844    22A1     4.285003    13B2     4.487945  
      13B1     4.495846    23A1     4.774177    24A1     5.060475  
      14B2     5.445867    14B1     5.458281    25A1     6.233350  
      26A1    13.976648  

    Final Occupation by Irrep:
             A1    A2    B1    B2 
    DOCC [     4,    0,    0,    1 ]
    SOCC [     1,    0,    1,    0 ]
    NA   [     5,    0,    1,    1 ]
    NB   [     4,    0,    0,    1 ]

  @DF-UKS Final Energy:   -92.16378210391072

   => Energetics <=

    Nuclear Repulsion Energy =             21.0542776022379172
    One-Electron Energy =                -160.4768700100502201
    Two-Electron Energy =                  56.9313348141579354
    DFT Exchange-Correlation Energy =      -9.6725245102563413
    Empirical Dispersion Energy =           0.0000000000000000
    VV10 Nonlocal Energy =                  0.0000000000000000
    Total Energy =                        -92.1637821039107195

  UHF NO Occupations:
  HONO-2 :    1 B2 1.9984649
  HONO-1 :    1 B1 1.0000000
  HONO-0 :    5 A1 1.0000000
  LUNO+0 :    2 B2 0.0015351
  LUNO+1 :    6 A1 0.0004513
  LUNO+2 :    7 A1 0.0002604
  LUNO+3 :    8 A1 0.0000006


Computation Completed


Properties will be evaluated at   0.000000,   0.000000,   0.000000 [a0]

Properties computed using the SCF density matrix


 Multipole Moments:

 ------------------------------------------------------------------------------------
     Multipole            Electronic (a.u.)      Nuclear  (a.u.)        Total (a.u.)
 ------------------------------------------------------------------------------------

 L = 1.  Multiply by 2.5417464519 to convert [e a0] to [Debye]
 Dipole X            :          0.0000000            0.0000000            0.0000000
 Dipole Y            :          0.0000000            0.0000000            0.0000000
 Dipole Z            :          0.8227699            0.0014149            0.8241848
 Magnitude           :                                                    0.8241848

 ------------------------------------------------------------------------------------

*** tstop() called on Mac.lan at Sun Aug 10 18:32:53 2025
Module time:
	user time   =      14.96 seconds =       0.25 minutes
	system time =       2.53 seconds =       0.04 minutes
	total time  =          2 seconds =       0.03 minutes
Total time:
	user time   =      14.96 seconds =       0.25 minutes
	system time =       2.53 seconds =       0.04 minutes
	total time  =          2 seconds =       0.03 minutes

*** tstart() called on Mac.lan
*** at Sun Aug 10 18:32:53 2025

   => Libint2 <=

    Primary   basis highest AM E, G, H:  6, 6, 3
    Auxiliary basis highest AM E, G, H:  7, 7, 4
    Onebody   basis highest AM E, G, H:  -, -, -
    Solid Harmonics ordering:            Gaussian
   => Loading Basis Set <=

    Name: CC-PVTZ
    Role: ORBITAL
    Keyword: BASIS
    atoms 1 entry N          line   224 file /Users/joseantoniorodriguesromero/anaconda3/share/psi4/basis/cc-pvtz.gbs 
    atoms 2 entry C          line   186 file /Users/joseantoniorodriguesromero/anaconda3/share/psi4/basis/cc-pvtz.gbs 


         ---------------------------------------------------------
                                   SCF
               by Justin Turney, Rob Parrish, Andy Simmonett
                          and Daniel G. A. Smith
                              UKS Reference
                        1 Threads,    500 MiB Core
         ---------------------------------------------------------

  ==> Geometry <==

    Molecular point group: c2v
    Full point group: C_inf_v

    Geometry (in Angstrom), charge = 1, multiplicity = 3:

       Center              X                  Y                   Z               Mass       
    ------------   -----------------  -----------------  -----------------  -----------------
         N            0.000000000000     0.000000000000    -0.487154403277    14.003074004430
         C            0.000000000000     0.000000000000     0.568471596723    12.000000000000

  Running in c2v symmetry.

  Rotational constants: A = ************  B =      2.34097  C =      2.34097 [cm^-1]
  Rotational constants: A = ************  B =  70180.60449  C =  70180.60449 [MHz]
  Nuclear repulsion =   21.054277602237917

  Charge       = 1
  Multiplicity = 3
  Electrons    = 12
  Nalpha       = 7
  Nbeta        = 5

  ==> Algorithm <==

  SCF Algorithm Type is DF.
  DIIS enabled.
  MOM disabled.
  Fractional occupation disabled.
  Guess Type is READ.
  Energy threshold   = 1.00e-08
  Density threshold  = 1.00e-08
  Integral threshold = 1.00e-12

  ==> Primary Basis <==

  Basis Set: CC-PVTZ
    Blend: CC-PVTZ
    Number of shells: 20
    Number of basis functions: 60
    Number of Cartesian functions: 70
    Spherical Harmonics?: true
    Max angular momentum: 3

  ==> DFT Potential <==

   => LibXC <=

    Version 6.2.2
    S. Lehtola, C. Steigemann, M. J.T. Oliveira, and M. A.L. Marques.,  SoftwareX 7, 1–5 (2018) (10.1016/j.softx.2017.11.002)

   => Composite Functional: B3LYP <= 

    B3LYP Hyb-GGA Exchange-Correlation Functional

    P. J. Stephens, F. J. Devlin, C. F. Chabalowski, and M. J. Frisch.,  J. Phys. Chem. 98, 11623 (1994) (10.1021/j100096a001)

    Deriv               =              1
    GGA                 =           TRUE
    Meta                =          FALSE

    Exchange Hybrid     =           TRUE
    MP2 Hybrid          =          FALSE

   => Exchange Functionals <=

    0.0800   Slater exchange
    0.7200         Becke 88

   => Exact (HF) Exchange <=

    0.2000               HF 

   => Correlation Functionals <=

    0.1900   Vosko, Wilk & Nusair (VWN5_RPA)
    0.8100   Lee, Yang & Parr

   => LibXC Density Thresholds  <==

    XC_HYB_GGA_XC_B3LYP:  1.00E-15 

   => Molecular Quadrature <=

    Radial Scheme          =       TREUTLER
    Pruning Scheme         =           NONE
    Nuclear Scheme         =       TREUTLER

    Blocking Scheme        =         OCTREE
    BS radius alpha        =              1
    Pruning alpha          =              1
    Radial Points          =             75
    Spherical Points       =            302
    Total Points           =          43220
    Total Blocks           =            390
    Max Points             =            256
    Max Functions          =             60
    Weights Tolerance      =       1.00E-15

   => Loading Basis Set <=

    Name: (CC-PVTZ AUX)
    Role: JKFIT
    Keyword: DF_BASIS_SCF
    atoms 1 entry N          line   177 file /Users/joseantoniorodriguesromero/anaconda3/share/psi4/basis/cc-pvtz-jkfit.gbs 
    atoms 2 entry C          line   125 file /Users/joseantoniorodriguesromero/anaconda3/share/psi4/basis/cc-pvtz-jkfit.gbs 

   => Loading Basis Set <=

    Name: CC-PVTZ
    Role: ORBITAL
    Keyword: BASIS
    atoms 1 entry N          line   224 file /Users/joseantoniorodriguesromero/anaconda3/share/psi4/basis/cc-pvtz.gbs 
    atoms 2 entry C          line   186 file /Users/joseantoniorodriguesromero/anaconda3/share/psi4/basis/cc-pvtz.gbs 

  Reading orbitals from file /tmp/scan_CN_15.default.50304.180.npy, no projection.

  ==> Integral Setup <==

  DFHelper Memory: AOs need 0.005 GiB; user supplied 0.294 GiB. 
  Using in-core AOs.

  ==> MemDFJK: Density-Fitted J/K Matrices <==

    J tasked:                   Yes
    K tasked:                   Yes
    wK tasked:                   No
    OpenMP threads:               1
    Memory [MiB]:               300
    Algorithm:                 Core
    Schwarz Cutoff:           1E-12
    Mask sparsity (%):       0.0000
    Fitting Condition:        1E-10

   => Auxiliary Basis Set <=

  Basis Set: (CC-PVTZ AUX)
    Blend: CC-PVTZ-JKFIT
    Number of shells: 50
    Number of basis functions: 158
    Number of Cartesian functions: 192
    Spherical Harmonics?: true
    Max angular momentum: 4

  Cached 100.0% of DFT collocation blocks in 0.072 [GiB].

  Minimum eigenvalue in the overlap matrix is 1.5971661500E-03.
  Reciprocal condition number of the overlap matrix is 3.8117116142E-04.
    Using symmetric orthogonalization.

  ==> Pre-Iterations <==

  SCF Guess: Orbitals guess was supplied from a previous computation.

   -------------------------------------------------------
    Irrep   Nso     Nmo     Nalpha   Nbeta   Ndocc  Nsocc
   -------------------------------------------------------
     A1        26      26       5       4       4       1
     A2         6       6       0       0       0       0
     B1        14      14       1       0       0       1
     B2        14      14       1       1       1       0
   -------------------------------------------------------
    Total      60      60       7       5       5       2
   -------------------------------------------------------

  ==> Iterations <==

                           Total Energy        Delta E     RMS |[F,P]|

   @DF-UKS iter   0:   -92.16378210299447   -9.21638e+01   5.68521e-11 
   @DF-UKS iter   1:   -92.16378210299445    2.84217e-14   1.07457e-10 DIIS
  Energy and wave function converged.


  ==> Post-Iterations <==

   Electrons on quadrature grid:
      Nalpha   =    6.9999998356 ; deviation = -1.644e-07
      Nbeta    =    4.9999998809 ; deviation = -1.191e-07
      Ntotal   =   11.9999997165 ; deviation = -2.835e-07 

   @Spin Contamination Metric:   4.492910820E-03
   @S^2 Expected:                2.000000000E+00
   @S^2 Observed:                2.004492911E+00
   @S   Expected:                1.000000000E+00
   @S   Observed:                1.000000000E+00

    Orbital Energies [Eh]
    ---------------------

    Alpha Occupied:                                                       

       1A1   -14.817708     2A1   -10.743146     3A1    -1.478943  
       1B1    -0.888464     4A1    -0.880979     1B2    -0.841779  
       5A1    -0.803480  

    Alpha Virtual:                                                        

       2B1    -0.387351     2B2    -0.353592     6A1    -0.099144  
       3B1    -0.024791     3B2    -0.013600     7A1    -0.012426  
       8A1     0.150692     4B1     0.210294     4B2     0.226845  
       1A2     0.249892     9A1     0.250295    10A1     0.337331  
       5B1     0.498622     5B2     0.520818    11A1     0.580513  
       2A2     0.817187    12A1     0.818077    13A1     1.035401  
       6B1     1.191200     6B2     1.213781    14A1     1.445510  
       7B1     1.504975     7B2     1.529931    15A1     1.870441  
       8B1     2.189888     8B2     2.190121    16A1     2.310971  
       3A2     2.316925    17A1     2.340164     9B1     2.396529  
       9B2     2.423260     4A2     2.497875    18A1     2.498119  
      10B1     2.551715    10B2     2.589653    19A1     2.755655  
      11B1     3.048314    11B2     3.078330    12B1     3.533079  
      12B2     3.533232    20A1     3.775171    21A1     4.033795  
       5A2     4.033916     6A2     4.245874    22A1     4.246617  
      13B1     4.439785    13B2     4.473989    23A1     4.730407  
      24A1     5.027409    14B1     5.379784    14B2     5.415181  
      25A1     6.197179    26A1    13.935546  

    Beta Occupied:                                                        

       1A1   -14.803445     2A1   -10.714113     3A1    -1.409969  
       1B2    -0.816785     4A1    -0.795531  

    Beta Virtual:                                                         

       1B1    -0.695573     5A1    -0.609595     2B2    -0.313893  
       2B1    -0.283030     6A1    -0.082105     3B2    -0.004412  
       3B1     0.003292     7A1     0.029575     8A1     0.165395  
       4B2     0.231371     4B1     0.240233     1A2     0.285940  
       9A1     0.289199    10A1     0.404399     5B2     0.555907  
       5B1     0.561675    11A1     0.599693     2A2     0.846062  
      12A1     0.848908    13A1     1.096453     6B2     1.227047  
       6B1     1.230963    14A1     1.486688     7B2     1.555289  
       7B1     1.565693    15A1     1.932632     8B2     2.243253  
       8B1     2.245245     3A2     2.363651    16A1     2.367475  
      17A1     2.393187     9B2     2.494203     9B1     2.513563  
       4A2     2.587011    18A1     2.595089    10B2     2.618752  
      10B1     2.634816    19A1     2.866098    11B2     3.118422  
      11B1     3.129138    12B2     3.572253    12B1     3.573570  
      20A1     3.823744     5A2     4.084269    21A1     4.091579  
       6A2     4.281844    22A1     4.285003    13B2     4.487945  
      13B1     4.495846    23A1     4.774177    24A1     5.060475  
      14B2     5.445867    14B1     5.458281    25A1     6.233350  
      26A1    13.976648  

    Final Occupation by Irrep:
             A1    A2    B1    B2 
    DOCC [     4,    0,    0,    1 ]
    SOCC [     1,    0,    1,    0 ]
    NA   [     5,    0,    1,    1 ]
    NB   [     4,    0,    0,    1 ]

  @DF-UKS Final Energy:   -92.16378210299445

   => Energetics <=

    Nuclear Repulsion Energy =             21.0542776022379172
    One-Electron Energy =                -160.4768700056669388
    Two-Electron Energy =                  56.9313348101445627
    DFT Exchange-Correlation Energy =      -9.6725245097100050
    Empirical Dispersion Energy =           0.0000000000000000
    VV10 Nonlocal Energy =                  0.0000000000000000
    Total Energy =                        -92.1637821029944462

  UHF NO Occupations:
  HONO-2 :    1 B2 1.9984649
  HONO-1 :    5 A1 1.0000000
  HONO-0 :    1 B1 1.0000000
  LUNO+0 :    2 B2 0.0015351
  LUNO+1 :    6 A1 0.0004513
  LUNO+2 :    7 A1 0.0002604
  LUNO+3 :    8 A1 0.0000006


Computation Completed


Properties will be evaluated at   0.000000,   0.000000,   0.000000 [a0]

Properties computed using the B3LYP density matrix


 Multipole Moments:

 ------------------------------------------------------------------------------------
     Multipole            Electronic (a.u.)      Nuclear  (a.u.)        Total (a.u.)
 ------------------------------------------------------------------------------------

 L = 1.  Multiply by 2.5417464519 to convert [e a0] to [Debye]
 Dipole X            :          0.0000000            0.0000000            0.0000000
 Dipole Y            :          0.0000000            0.0000000            0.0000000
 Dipole Z            :          0.8227699            0.0014149            0.8241848
 Magnitude           :                                                    0.8241848

 L = 2.  Multiply by 1.3450342976 to convert [e a0^2] to [Debye ang]
 Quadrupole XX       :         -5.3950969            0.0000000           -5.3950969
 Quadrupole XY       :          0.0000000            0.0000000            0.0000000
 Quadrupole XZ       :          0.0000000            0.0000000            0.0000000
 Quadrupole YY       :         -6.3024201            0.0000000           -6.3024201
 Quadrupole YZ       :          0.0000000            0.0000000            0.0000000
 Quadrupole ZZ       :        -17.9449798           12.8565320           -5.0884478
 Traceless XX        :          4.4857354           -4.2855107            0.2002247
 Traceless YY        :          3.5784121           -4.2855107           -0.7070985
 Traceless ZZ        :         -8.0641475            8.5710213            0.5068738

 ------------------------------------------------------------------------------------
  ==> Computing MBIS Charges <==

  Electron Count from Grid (Expected Number): 12.00000 (12.00000)
  Difference: -0.00000

  MBIS Charges: (a.u.)
   Center  Symbol  Z      Pop.       Charge
      1       N    7    6.864088    0.135912
      2       C    6    5.135912    0.864088

  MBIS Dipoles: [e a0]
   Center  Symbol  Z        X           Y           Z
      1       N    7    0.000000    0.000000   -0.089812
      2       C    6   -0.000000    0.000000    0.110864

  MBIS Quadrupoles: [e a0^2]
   Center  Symbol  Z      XX        XY        XZ        YY        YZ        ZZ
      1       N    7   -3.0511    0.0000   -0.0000   -3.5611   -0.0000   -3.8143
      2       C    6   -2.3440    0.0000   -0.0000   -2.7413    0.0000   -2.7900

  MBIS Octupoles: [e a0^3]
   Center  Symbol  Z      XXX       XXY       XXZ       XYY       XYZ       XZZ       YYY       YYZ       YZZ       ZZZ
      1       N    7    0.0000   -0.0000   -0.0137    0.0000    0.0000   -0.0000   -0.0000   -0.1650    0.0000   -0.0736
      2       C    6   -0.0000   -0.0000   -0.0291   -0.0000    0.0000    0.0000    0.0000    0.0877    0.0000    0.0133

  MBIS Radial Moments:
   Center  Symbol  Z      [a0^2]      [a0^3]      [a0^4]      
      1       N    7   10.426583   20.208766   46.763029
      2       C    6    7.875296   16.054463   39.155550

  MBIS Valence Widths: [a0]
   Center  Symbol  Z     Width
      1       N    7    0.410382
      2       C    6    0.435344

*** tstop() called on Mac.lan at Sun Aug 10 18:32:54 2025
Module time:
	user time   =       3.65 seconds =       0.06 minutes
	system time =       2.26 seconds =       0.04 minutes
	total time  =          1 seconds =       0.02 minutes
Total time:
	user time   =      18.71 seconds =       0.31 minutes
	system time =       4.93 seconds =       0.08 minutes
	total time  =          3 seconds =       0.05 minutes

    Psi4 stopped on: Sunday, 10 August 2025 06:32PM
    Psi4 wall time for execution: 0:00:02.29

*** Psi4 exiting successfully. Buy a developer a beer!
