
    -----------------------------------------------------------------------
          Psi4: An Open-Source Ab Initio Electronic Structure Package
                               Psi4 1.9.1 release

                         Git: Rev {} zzzzzzz 


    D. G. A. Smith, L. A. Burns, A. C. Simmonett, R. M. Parrish,
    M. C. Schieber, R. Galvelis, P. Kraus, H. Kruse, R. Di Remigio,
    A. Alenaizan, A. M. James, S. Lehtola, J. P. Misiewicz, M. Scheurer,
    R. A. Shaw, J. B. Schriber, Y. Xie, Z. L. Glick, D. A. Sirianni,
    J. S. O'Brien, J. M. Waldrop, A. Kumar, E. G. Hohenstein,
    B. P. Pritchard, B. R. Brooks, H. F. Schaefer III, A. Yu. Sokolov,
    K. Patkowski, A. E. DePrince III, U. Bozkaya, R. A. King,
    F. A. Evangelista, J. M. Turney, T. D. Crawford, C. D. Sherrill,
    J. Chem. Phys. 152(18) 184108 (2020). https://doi.org/10.1063/5.0006002

                            Additional Code Authors
    E. T. Seidl, C. L. Janssen, E. F. Valeev, M. L. Leininger,
    J. F. Gonthier, R. M. Richard, H. R. McAlexander, M. Saitow, X. Wang,
    P. Verma, M. H. Lechner, A. Jiang, S. Behnle, A. G. Heide,
    M. F. Herbst, and D. L. Poole

             Previous Authors, Complete List of Code Contributors,
                       and Citations for Specific Modules
    https://github.com/psi4/psi4/blob/master/codemeta.json
    https://github.com/psi4/psi4/graphs/contributors
    http://psicode.org/psi4manual/master/introduction.html#citing-psifour

    -----------------------------------------------------------------------


    Psi4 started on: Sunday, 10 August 2025 06:29PM

    Process ID: 50226
    Host:       Mac.lan
    PSIDATADIR: /Users/joseantoniorodriguesromero/anaconda3/share/psi4
    Memory:     500.0 MiB
    Threads:    1
    
  ==> Input File <==

--------------------------------------------------------------------------
molecule { 
1 3
O           0.000000           0.000000           0.000000
H           0.000000           0.000000           1.290490
}

set { 
basis              cc-pvtz
reference          uks
maxiter            500
DAMPING_PERCENTAGE 1
E_CONVERGENCE      1.0E-8
D_CONVERGENCE      1.0E-8
DIIS_MAX_VECS      400
MBIS_MAXITER       8000
guess              read
}

E, wfn = energy('b3lyp', restart_file='last_wfn', return_wfn=True)
properties('b3lyp','MBIS_CHARGES', wfn=wfn)
wfn.to_file('last_wfn')
--------------------------------------------------------------------------

Scratch directory: /tmp/
 Found user provided orbital data. Setting orbital guess to READ 
 Copying restart file <last_wfn.npy> to </tmp/scan_HO_36.default.50226.180.npy> for internal processing
   => Libint2 <=

    Primary   basis highest AM E, G, H:  6, 6, 3
    Auxiliary basis highest AM E, G, H:  7, 7, 4
    Onebody   basis highest AM E, G, H:  -, -, -
    Solid Harmonics ordering:            Gaussian

*** tstart() called on Mac.lan
*** at Sun Aug 10 18:29:58 2025

   => Loading Basis Set <=

    Name: CC-PVTZ
    Role: ORBITAL
    Keyword: BASIS
    atoms 1 entry O          line   262 file /Users/joseantoniorodriguesromero/anaconda3/share/psi4/basis/cc-pvtz.gbs 
    atoms 2 entry H          line    23 file /Users/joseantoniorodriguesromero/anaconda3/share/psi4/basis/cc-pvtz.gbs 


         ---------------------------------------------------------
                                   SCF
               by Justin Turney, Rob Parrish, Andy Simmonett
                          and Daniel G. A. Smith
                              UKS Reference
                        1 Threads,    500 MiB Core
         ---------------------------------------------------------

  ==> Geometry <==

    Molecular point group: c2v
    Full point group: C_inf_v

    Geometry (in Angstrom), charge = 1, multiplicity = 3:

       Center              X                  Y                   Z               Mass       
    ------------   -----------------  -----------------  -----------------  -----------------
         O            0.000000000000     0.000000000000    -0.076492856591    15.994914619570
         H            0.000000000000     0.000000000000     1.213997143409     1.007825032230

  Running in c2v symmetry.

  Rotational constants: A = ************  B =     10.67675  C =     10.67675 [cm^-1]
  Rotational constants: A = ************  B = 320080.89288  C = 320080.89288 [MHz]
  Nuclear repulsion =    3.280473064773846

  Charge       = 1
  Multiplicity = 3
  Electrons    = 8
  Nalpha       = 5
  Nbeta        = 3

  ==> Algorithm <==

  SCF Algorithm Type is DF.
  DIIS enabled.
  MOM disabled.
  Fractional occupation disabled.
  Guess Type is READ.
  Energy threshold   = 1.00e-08
  Density threshold  = 1.00e-08
  Integral threshold = 1.00e-12

  ==> Primary Basis <==

  Basis Set: CC-PVTZ
    Blend: CC-PVTZ
    Number of shells: 16
    Number of basis functions: 44
    Number of Cartesian functions: 50
    Spherical Harmonics?: true
    Max angular momentum: 3

  ==> DFT Potential <==

   => LibXC <=

    Version 6.2.2
    S. Lehtola, C. Steigemann, M. J.T. Oliveira, and M. A.L. Marques.,  SoftwareX 7, 1–5 (2018) (10.1016/j.softx.2017.11.002)

   => Composite Functional: B3LYP <= 

    B3LYP Hyb-GGA Exchange-Correlation Functional

    P. J. Stephens, F. J. Devlin, C. F. Chabalowski, and M. J. Frisch.,  J. Phys. Chem. 98, 11623 (1994) (10.1021/j100096a001)

    Deriv               =              1
    GGA                 =           TRUE
    Meta                =          FALSE

    Exchange Hybrid     =           TRUE
    MP2 Hybrid          =          FALSE

   => Exchange Functionals <=

    0.0800   Slater exchange
    0.7200         Becke 88

   => Exact (HF) Exchange <=

    0.2000               HF 

   => Correlation Functionals <=

    0.1900   Vosko, Wilk & Nusair (VWN5_RPA)
    0.8100   Lee, Yang & Parr

   => LibXC Density Thresholds  <==

    XC_HYB_GGA_XC_B3LYP:  1.00E-15 

   => Molecular Quadrature <=

    Radial Scheme          =       TREUTLER
    Pruning Scheme         =           NONE
    Nuclear Scheme         =       TREUTLER

    Blocking Scheme        =         OCTREE
    BS radius alpha        =              1
    Pruning alpha          =              1
    Radial Points          =             75
    Spherical Points       =            302
    Total Points           =          44188
    Total Blocks           =            392
    Max Points             =            256
    Max Functions          =             44
    Weights Tolerance      =       1.00E-15

   => Loading Basis Set <=

    Name: (CC-PVTZ AUX)
    Role: JKFIT
    Keyword: DF_BASIS_SCF
    atoms 1 entry O          line   229 file /Users/joseantoniorodriguesromero/anaconda3/share/psi4/basis/cc-pvtz-jkfit.gbs 
    atoms 2 entry H          line    51 file /Users/joseantoniorodriguesromero/anaconda3/share/psi4/basis/cc-pvtz-jkfit.gbs 

   => Loading Basis Set <=

    Name: CC-PVTZ
    Role: ORBITAL
    Keyword: BASIS
    atoms 1 entry O          line   262 file /Users/joseantoniorodriguesromero/anaconda3/share/psi4/basis/cc-pvtz.gbs 
    atoms 2 entry H          line    23 file /Users/joseantoniorodriguesromero/anaconda3/share/psi4/basis/cc-pvtz.gbs 

  Reading orbitals from file /tmp/scan_HO_36.default.50226.180.npy, no projection.

  ==> Integral Setup <==

  DFHelper Memory: AOs need 0.002 GiB; user supplied 0.312 GiB. 
  Using in-core AOs.

  ==> MemDFJK: Density-Fitted J/K Matrices <==

    J tasked:                   Yes
    K tasked:                   Yes
    wK tasked:                   No
    OpenMP threads:               1
    Memory [MiB]:               319
    Algorithm:                 Core
    Schwarz Cutoff:           1E-12
    Mask sparsity (%):       0.0000
    Fitting Condition:        1E-10

   => Auxiliary Basis Set <=

  Basis Set: (CC-PVTZ AUX)
    Blend: CC-PVTZ-JKFIT
    Number of shells: 35
    Number of basis functions: 109
    Number of Cartesian functions: 131
    Spherical Harmonics?: true
    Max angular momentum: 4

  Cached 100.0% of DFT collocation blocks in 0.054 [GiB].

  Minimum eigenvalue in the overlap matrix is 1.4439168773E-02.
  Reciprocal condition number of the overlap matrix is 4.0407682766E-03.
    Using symmetric orthogonalization.

  ==> Pre-Iterations <==

  SCF Guess: Orbitals guess was supplied from a previous computation.

   -------------------------------------------------------
    Irrep   Nso     Nmo     Nalpha   Nbeta   Ndocc  Nsocc
   -------------------------------------------------------
     A1        20      20       3       3       3       0
     A2         4       4       0       0       0       0
     B1        10      10       1       0       0       1
     B2        10      10       1       0       0       1
   -------------------------------------------------------
    Total      44      44       5       3       3       2
   -------------------------------------------------------

  ==> Iterations <==

                           Total Energy        Delta E     RMS |[F,P]|

   @DF-UKS iter   0:   -75.24818968723919   -7.52482e+01   7.74287e-04 
   @DF-UKS iter   1:   -75.25897050438874   -1.07808e-02   2.37531e-04 ADIIS/DIIS
   @DF-UKS iter   2:   -75.25897597893110   -5.47454e-06   1.86753e-04 ADIIS/DIIS/DAMP=1%
   @DF-UKS iter   3:   -75.25887307831375    1.02901e-04   3.77543e-05 DIIS/DAMP=1%
   @DF-UKS iter   4:   -75.25900252777254   -1.29449e-04   7.22226e-06 DIIS/DAMP=1%
   @DF-UKS iter   5:   -75.25898061637712    2.19114e-05   2.64249e-06 DIIS/DAMP=1%
   @DF-UKS iter   6:   -75.25898471888280   -4.10251e-06   1.85165e-07 DIIS/DAMP=1%
   @DF-UKS iter   7:   -75.25898371889851    9.99984e-07   2.72983e-08 DIIS/DAMP=1%
   @DF-UKS iter   8:   -75.25898378239978   -6.35013e-08   3.20500e-09 DIIS/DAMP=1%
   @DF-UKS iter   9:   -75.25898377147956    1.09202e-08   2.85548e-10 DIIS/DAMP=1%
   @DF-UKS iter  10:   -75.25898377305347   -1.57391e-09   2.28773e-11 DIIS/DAMP=1%
  Energy and wave function converged.


  ==> Post-Iterations <==

   Electrons on quadrature grid:
      Nalpha   =    5.0000000354 ; deviation = 3.544e-08
      Nbeta    =    2.9999999977 ; deviation = -2.333e-09
      Ntotal   =    8.0000000331 ; deviation = 3.310e-08 

   @Spin Contamination Metric:   1.160476634E-02
   @S^2 Expected:                2.000000000E+00
   @S^2 Observed:                2.011604766E+00
   @S   Expected:                1.000000000E+00
   @S   Observed:                1.000000000E+00

    Orbital Energies [Eh]
    ---------------------

    Alpha Occupied:                                                       

       1A1   -19.788813     2A1    -1.499219     1B2    -0.911642  
       1B1    -0.911642     3A1    -0.910154  

    Alpha Virtual:                                                        

       4A1    -0.415015     5A1    -0.031035     2B1     0.131739  
       2B2     0.131739     6A1     0.211521     3B2     0.330285  
       3B1     0.330285     7A1     0.457963     8A1     0.695599  
       9A1     0.956788     1A2     0.956788     4B1     1.150756  
       4B2     1.150756    10A1     1.620567    11A1     1.941026  
       2A2     2.767840    12A1     2.767843    13A1     2.771260  
       5B1     2.774517     5B2     2.774517     6B1     3.167404  
       6B2     3.167404     7B2     3.299832     7B1     3.299832  
      14A1     3.411201    15A1     4.278963     8B1     4.536809  
       8B2     4.536809    16A1     4.606246     3A2     4.606246  
       9B1     5.016065     9B2     5.016065    17A1     5.437789  
      18A1     5.548555     4A2     5.548558    10B1     5.854019  
      10B2     5.854019    19A1     6.391123    20A1     7.375741  

    Beta Occupied:                                                        

       1A1   -19.731468     2A1    -1.335435     3A1    -0.859873  

    Beta Virtual:                                                         

       1B2    -0.609555     1B1    -0.609555     4A1    -0.406393  
       5A1    -0.034380     2B1     0.184632     2B2     0.184632  
       6A1     0.231389     3B2     0.348923     3B1     0.348923  
       7A1     0.503905     8A1     0.716082     1A2     1.069471  
       9A1     1.069471     4B1     1.205557     4B2     1.205557  
      10A1     1.658825    11A1     1.918725     2A2     2.754305  
      12A1     2.754307    13A1     2.787161     5B1     2.817503  
       5B2     2.817503     6B1     3.224395     6B2     3.224395  
       7B1     3.327006     7B2     3.327006    14A1     3.416661  
      15A1     4.316068     8B1     4.688363     8B2     4.688363  
      16A1     4.706211     3A2     4.706211     9B1     5.092107  
       9B2     5.092107    17A1     5.490442    18A1     5.763064  
       4A2     5.763067    10B1     5.962208    10B2     5.962208  
      19A1     6.480925    20A1     7.456964  

    Final Occupation by Irrep:
             A1    A2    B1    B2 
    DOCC [     3,    0,    0,    0 ]
    SOCC [     0,    0,    1,    1 ]
    NA   [     3,    0,    1,    1 ]
    NB   [     3,    0,    0,    0 ]

  @DF-UKS Final Energy:   -75.25898377305347

   => Energetics <=

    Nuclear Repulsion Energy =              3.2804730647738456
    One-Electron Energy =                -106.2300715170727443
    Two-Electron Energy =                  34.5068502246005906
    DFT Exchange-Correlation Energy =      -6.8162355453551644
    Empirical Dispersion Energy =           0.0000000000000000
    VV10 Nonlocal Energy =                  0.0000000000000000
    Total Energy =                        -75.2589837730534725

  UHF NO Occupations:
  HONO-2 :    3 A1 1.9950553
  HONO-1 :    1 B1 1.0000000
  HONO-0 :    1 B2 1.0000000
  LUNO+0 :    4 A1 0.0049447
  LUNO+1 :    5 A1 0.0008689
  LUNO+2 :    6 A1 0.0000014
  LUNO+3 :    7 A1 0.0000000


Computation Completed


Properties will be evaluated at   0.000000,   0.000000,   0.000000 [a0]

Properties computed using the SCF density matrix


 Multipole Moments:

 ------------------------------------------------------------------------------------
     Multipole            Electronic (a.u.)      Nuclear  (a.u.)        Total (a.u.)
 ------------------------------------------------------------------------------------

 L = 1.  Multiply by 2.5417464519 to convert [e a0] to [Debye]
 Dipole X            :          0.0000000            0.0000000            0.0000000
 Dipole Y            :          0.0000000            0.0000000            0.0000000
 Dipole Z            :          0.0377995            1.1377177            1.1755173
 Magnitude           :                                                    1.1755173

 ------------------------------------------------------------------------------------

*** tstop() called on Mac.lan at Sun Aug 10 18:30:02 2025
Module time:
	user time   =      44.18 seconds =       0.74 minutes
	system time =       2.54 seconds =       0.04 minutes
	total time  =          4 seconds =       0.07 minutes
Total time:
	user time   =      44.18 seconds =       0.74 minutes
	system time =       2.54 seconds =       0.04 minutes
	total time  =          4 seconds =       0.07 minutes

*** tstart() called on Mac.lan
*** at Sun Aug 10 18:30:02 2025

   => Libint2 <=

    Primary   basis highest AM E, G, H:  6, 6, 3
    Auxiliary basis highest AM E, G, H:  7, 7, 4
    Onebody   basis highest AM E, G, H:  -, -, -
    Solid Harmonics ordering:            Gaussian
   => Loading Basis Set <=

    Name: CC-PVTZ
    Role: ORBITAL
    Keyword: BASIS
    atoms 1 entry O          line   262 file /Users/joseantoniorodriguesromero/anaconda3/share/psi4/basis/cc-pvtz.gbs 
    atoms 2 entry H          line    23 file /Users/joseantoniorodriguesromero/anaconda3/share/psi4/basis/cc-pvtz.gbs 


         ---------------------------------------------------------
                                   SCF
               by Justin Turney, Rob Parrish, Andy Simmonett
                          and Daniel G. A. Smith
                              UKS Reference
                        1 Threads,    500 MiB Core
         ---------------------------------------------------------

  ==> Geometry <==

    Molecular point group: c2v
    Full point group: C_inf_v

    Geometry (in Angstrom), charge = 1, multiplicity = 3:

       Center              X                  Y                   Z               Mass       
    ------------   -----------------  -----------------  -----------------  -----------------
         O            0.000000000000     0.000000000000    -0.076492856591    15.994914619570
         H            0.000000000000     0.000000000000     1.213997143409     1.007825032230

  Running in c2v symmetry.

  Rotational constants: A = ************  B =     10.67675  C =     10.67675 [cm^-1]
  Rotational constants: A = ************  B = 320080.89288  C = 320080.89288 [MHz]
  Nuclear repulsion =    3.280473064773846

  Charge       = 1
  Multiplicity = 3
  Electrons    = 8
  Nalpha       = 5
  Nbeta        = 3

  ==> Algorithm <==

  SCF Algorithm Type is DF.
  DIIS enabled.
  MOM disabled.
  Fractional occupation disabled.
  Guess Type is READ.
  Energy threshold   = 1.00e-08
  Density threshold  = 1.00e-08
  Integral threshold = 1.00e-12

  ==> Primary Basis <==

  Basis Set: CC-PVTZ
    Blend: CC-PVTZ
    Number of shells: 16
    Number of basis functions: 44
    Number of Cartesian functions: 50
    Spherical Harmonics?: true
    Max angular momentum: 3

  ==> DFT Potential <==

   => LibXC <=

    Version 6.2.2
    S. Lehtola, C. Steigemann, M. J.T. Oliveira, and M. A.L. Marques.,  SoftwareX 7, 1–5 (2018) (10.1016/j.softx.2017.11.002)

   => Composite Functional: B3LYP <= 

    B3LYP Hyb-GGA Exchange-Correlation Functional

    P. J. Stephens, F. J. Devlin, C. F. Chabalowski, and M. J. Frisch.,  J. Phys. Chem. 98, 11623 (1994) (10.1021/j100096a001)

    Deriv               =              1
    GGA                 =           TRUE
    Meta                =          FALSE

    Exchange Hybrid     =           TRUE
    MP2 Hybrid          =          FALSE

   => Exchange Functionals <=

    0.0800   Slater exchange
    0.7200         Becke 88

   => Exact (HF) Exchange <=

    0.2000               HF 

   => Correlation Functionals <=

    0.1900   Vosko, Wilk & Nusair (VWN5_RPA)
    0.8100   Lee, Yang & Parr

   => LibXC Density Thresholds  <==

    XC_HYB_GGA_XC_B3LYP:  1.00E-15 

   => Molecular Quadrature <=

    Radial Scheme          =       TREUTLER
    Pruning Scheme         =           NONE
    Nuclear Scheme         =       TREUTLER

    Blocking Scheme        =         OCTREE
    BS radius alpha        =              1
    Pruning alpha          =              1
    Radial Points          =             75
    Spherical Points       =            302
    Total Points           =          44188
    Total Blocks           =            392
    Max Points             =            256
    Max Functions          =             44
    Weights Tolerance      =       1.00E-15

   => Loading Basis Set <=

    Name: (CC-PVTZ AUX)
    Role: JKFIT
    Keyword: DF_BASIS_SCF
    atoms 1 entry O          line   229 file /Users/joseantoniorodriguesromero/anaconda3/share/psi4/basis/cc-pvtz-jkfit.gbs 
    atoms 2 entry H          line    51 file /Users/joseantoniorodriguesromero/anaconda3/share/psi4/basis/cc-pvtz-jkfit.gbs 

   => Loading Basis Set <=

    Name: CC-PVTZ
    Role: ORBITAL
    Keyword: BASIS
    atoms 1 entry O          line   262 file /Users/joseantoniorodriguesromero/anaconda3/share/psi4/basis/cc-pvtz.gbs 
    atoms 2 entry H          line    23 file /Users/joseantoniorodriguesromero/anaconda3/share/psi4/basis/cc-pvtz.gbs 

  Reading orbitals from file /tmp/scan_HO_36.default.50226.180.npy, no projection.

  ==> Integral Setup <==

  DFHelper Memory: AOs need 0.002 GiB; user supplied 0.312 GiB. 
  Using in-core AOs.

  ==> MemDFJK: Density-Fitted J/K Matrices <==

    J tasked:                   Yes
    K tasked:                   Yes
    wK tasked:                   No
    OpenMP threads:               1
    Memory [MiB]:               319
    Algorithm:                 Core
    Schwarz Cutoff:           1E-12
    Mask sparsity (%):       0.0000
    Fitting Condition:        1E-10

   => Auxiliary Basis Set <=

  Basis Set: (CC-PVTZ AUX)
    Blend: CC-PVTZ-JKFIT
    Number of shells: 35
    Number of basis functions: 109
    Number of Cartesian functions: 131
    Spherical Harmonics?: true
    Max angular momentum: 4

  Cached 100.0% of DFT collocation blocks in 0.054 [GiB].

  Minimum eigenvalue in the overlap matrix is 1.4439168773E-02.
  Reciprocal condition number of the overlap matrix is 4.0407682766E-03.
    Using symmetric orthogonalization.

  ==> Pre-Iterations <==

  SCF Guess: Orbitals guess was supplied from a previous computation.

   -------------------------------------------------------
    Irrep   Nso     Nmo     Nalpha   Nbeta   Ndocc  Nsocc
   -------------------------------------------------------
     A1        20      20       3       3       3       0
     A2         4       4       0       0       0       0
     B1        10      10       1       0       0       1
     B2        10      10       1       0       0       1
   -------------------------------------------------------
    Total      44      44       5       3       3       2
   -------------------------------------------------------

  ==> Iterations <==

                           Total Energy        Delta E     RMS |[F,P]|

   @DF-UKS iter   0:   -75.25898377298745   -7.52590e+01   2.24093e-12 
   @DF-UKS iter   1:   -75.25898377298745    0.00000e+00   1.95578e-12 DIIS
  Energy and wave function converged.


  ==> Post-Iterations <==

   Electrons on quadrature grid:
      Nalpha   =    5.0000000354 ; deviation = 3.544e-08
      Nbeta    =    2.9999999977 ; deviation = -2.333e-09
      Ntotal   =    8.0000000331 ; deviation = 3.310e-08 

   @Spin Contamination Metric:   1.160476632E-02
   @S^2 Expected:                2.000000000E+00
   @S^2 Observed:                2.011604766E+00
   @S   Expected:                1.000000000E+00
   @S   Observed:                1.000000000E+00

    Orbital Energies [Eh]
    ---------------------

    Alpha Occupied:                                                       

       1A1   -19.788813     2A1    -1.499219     1B2    -0.911642  
       1B1    -0.911642     3A1    -0.910154  

    Alpha Virtual:                                                        

       4A1    -0.415015     5A1    -0.031035     2B1     0.131739  
       2B2     0.131739     6A1     0.211521     3B2     0.330285  
       3B1     0.330285     7A1     0.457963     8A1     0.695599  
       9A1     0.956788     1A2     0.956788     4B1     1.150756  
       4B2     1.150756    10A1     1.620567    11A1     1.941026  
       2A2     2.767840    12A1     2.767843    13A1     2.771260  
       5B1     2.774517     5B2     2.774517     6B1     3.167404  
       6B2     3.167404     7B2     3.299832     7B1     3.299832  
      14A1     3.411201    15A1     4.278963     8B1     4.536809  
       8B2     4.536809    16A1     4.606246     3A2     4.606246  
       9B1     5.016065     9B2     5.016065    17A1     5.437789  
      18A1     5.548555     4A2     5.548558    10B1     5.854019  
      10B2     5.854019    19A1     6.391123    20A1     7.375741  

    Beta Occupied:                                                        

       1A1   -19.731468     2A1    -1.335435     3A1    -0.859873  

    Beta Virtual:                                                         

       1B2    -0.609555     1B1    -0.609555     4A1    -0.406393  
       5A1    -0.034380     2B1     0.184632     2B2     0.184632  
       6A1     0.231389     3B2     0.348923     3B1     0.348923  
       7A1     0.503905     8A1     0.716082     1A2     1.069471  
       9A1     1.069471     4B1     1.205557     4B2     1.205557  
      10A1     1.658825    11A1     1.918725     2A2     2.754305  
      12A1     2.754307    13A1     2.787161     5B1     2.817503  
       5B2     2.817503     6B2     3.224395     6B1     3.224395  
       7B1     3.327006     7B2     3.327006    14A1     3.416661  
      15A1     4.316068     8B1     4.688363     8B2     4.688363  
      16A1     4.706211     3A2     4.706211     9B1     5.092107  
       9B2     5.092107    17A1     5.490442    18A1     5.763064  
       4A2     5.763067    10B1     5.962208    10B2     5.962208  
      19A1     6.480925    20A1     7.456964  

    Final Occupation by Irrep:
             A1    A2    B1    B2 
    DOCC [     3,    0,    0,    0 ]
    SOCC [     0,    0,    1,    1 ]
    NA   [     3,    0,    1,    1 ]
    NB   [     3,    0,    0,    0 ]

  @DF-UKS Final Energy:   -75.25898377298745

   => Energetics <=

    Nuclear Repulsion Energy =              3.2804730647738456
    One-Electron Energy =                -106.2300715184574074
    Two-Electron Energy =                  34.5068502262262626
    DFT Exchange-Correlation Energy =      -6.8162355455301515
    Empirical Dispersion Energy =           0.0000000000000000
    VV10 Nonlocal Energy =                  0.0000000000000000
    Total Energy =                        -75.2589837729874489

  UHF NO Occupations:
  HONO-2 :    3 A1 1.9950553
  HONO-1 :    1 B2 1.0000000
  HONO-0 :    1 B1 1.0000000
  LUNO+0 :    4 A1 0.0049447
  LUNO+1 :    5 A1 0.0008689
  LUNO+2 :    6 A1 0.0000014
  LUNO+3 :    7 A1 0.0000000


Computation Completed


Properties will be evaluated at   0.000000,   0.000000,   0.000000 [a0]

Properties computed using the B3LYP density matrix


 Multipole Moments:

 ------------------------------------------------------------------------------------
     Multipole            Electronic (a.u.)      Nuclear  (a.u.)        Total (a.u.)
 ------------------------------------------------------------------------------------

 L = 1.  Multiply by 2.5417464519 to convert [e a0] to [Debye]
 Dipole X            :          0.0000000            0.0000000            0.0000000
 Dipole Y            :          0.0000000            0.0000000            0.0000000
 Dipole Z            :          0.0377995            1.1377177            1.1755173
 Magnitude           :                                                    1.1755173

 L = 2.  Multiply by 1.3450342976 to convert [e a0^2] to [Debye ang]
 Quadrupole XX       :         -3.1686176            0.0000000           -3.1686176
 Quadrupole XY       :          0.0000000            0.0000000            0.0000000
 Quadrupole XZ       :          0.0000000            0.0000000            0.0000000
 Quadrupole YY       :         -3.1686176            0.0000000           -3.1686176
 Quadrupole YZ       :          0.0000000            0.0000000            0.0000000
 Quadrupole ZZ       :         -5.7826972            5.4301552           -0.3525420
 Traceless XX        :          0.8713599           -1.8100517           -0.9386919
 Traceless YY        :          0.8713599           -1.8100517           -0.9386919
 Traceless ZZ        :         -1.7427197            3.6201035            1.8773837

 ------------------------------------------------------------------------------------
  ==> Computing MBIS Charges <==

  Electron Count from Grid (Expected Number):  8.00000 ( 8.00000)
  Difference:  0.00000

  MBIS Charges: (a.u.)
   Center  Symbol  Z      Pop.       Charge
      1       O    8    7.565937    0.434063
      2       H    1    0.434063    0.565937

  MBIS Dipoles: [e a0]
   Center  Symbol  Z        X           Y           Z
      1       O    8   -0.000000   -0.000000   -0.130368
      2       H    1    0.000000    0.000000    0.070302

  MBIS Quadrupoles: [e a0^2]
   Center  Symbol  Z      XX        XY        XZ        YY        YZ        ZZ
      1       O    8   -2.9262    0.0000   -0.0000   -2.9262   -0.0000   -3.4792
      2       H    1   -0.2424   -0.0000    0.0000   -0.2424    0.0000   -0.2212

  MBIS Octupoles: [e a0^3]
   Center  Symbol  Z      XXX       XXY       XXZ       XYY       XYZ       XZZ       YYY       YYZ       YZZ       ZZZ
      1       O    8   -0.0000   -0.0000   -0.1037    0.0000   -0.0000    0.0000   -0.0000   -0.1037    0.0000   -0.4074
      2       H    1    0.0000    0.0000    0.0271    0.0000   -0.0000    0.0000    0.0000    0.0271    0.0000    0.0879

  MBIS Radial Moments:
   Center  Symbol  Z      [a0^2]      [a0^3]      [a0^4]      
      1       O    8    9.331591   16.217174   33.690184
      2       H    1    0.706031    1.255150    2.654403

  MBIS Valence Widths: [a0]
   Center  Symbol  Z     Width
      1       O    8    0.364143
      2       H    1    0.374356

*** tstop() called on Mac.lan at Sun Aug 10 18:30:04 2025
Module time:
	user time   =      10.95 seconds =       0.18 minutes
	system time =       2.48 seconds =       0.04 minutes
	total time  =          2 seconds =       0.03 minutes
Total time:
	user time   =      55.16 seconds =       0.92 minutes
	system time =       5.18 seconds =       0.09 minutes
	total time  =          6 seconds =       0.10 minutes

    Psi4 stopped on: Sunday, 10 August 2025 06:30PM
    Psi4 wall time for execution: 0:00:06.09

*** Psi4 exiting successfully. Buy a developer a beer!
