
    -----------------------------------------------------------------------
          Psi4: An Open-Source Ab Initio Electronic Structure Package
                               Psi4 1.9.1 release

                         Git: Rev {} zzzzzzz 


    D. G. A. Smith, L. A. Burns, A. C. Simmonett, R. M. Parrish,
    M. C. Schieber, R. Galvelis, P. Kraus, H. Kruse, R. Di Remigio,
    A. Alenaizan, A. M. James, S. Lehtola, J. P. Misiewicz, M. Scheurer,
    R. A. Shaw, J. B. Schriber, Y. Xie, Z. L. Glick, D. A. Sirianni,
    J. S. O'Brien, J. M. Waldrop, A. Kumar, E. G. Hohenstein,
    B. P. Pritchard, B. R. Brooks, H. F. Schaefer III, A. Yu. Sokolov,
    K. Patkowski, A. E. DePrince III, U. Bozkaya, R. A. King,
    F. A. Evangelista, J. M. Turney, T. D. Crawford, C. D. Sherrill,
    J. Chem. Phys. 152(18) 184108 (2020). https://doi.org/10.1063/5.0006002

                            Additional Code Authors
    E. T. Seidl, C. L. Janssen, E. F. Valeev, M. L. Leininger,
    J. F. Gonthier, R. M. Richard, H. R. McAlexander, M. Saitow, X. Wang,
    P. Verma, M. H. Lechner, A. Jiang, S. Behnle, A. G. Heide,
    M. F. Herbst, and D. L. Poole

             Previous Authors, Complete List of Code Contributors,
                       and Citations for Specific Modules
    https://github.com/psi4/psi4/blob/master/codemeta.json
    https://github.com/psi4/psi4/graphs/contributors
    http://psicode.org/psi4manual/master/introduction.html#citing-psifour

    -----------------------------------------------------------------------


    Psi4 started on: Sunday, 10 August 2025 05:21PM

    Process ID: 48691
    Host:       Mac.lan
    PSIDATADIR: /Users/joseantoniorodriguesromero/anaconda3/share/psi4
    Memory:     500.0 MiB
    Threads:    1
    
  ==> Input File <==

--------------------------------------------------------------------------
molecule { 
0 2
O           0.000000           0.000000           0.000000
N           0.000000           0.000000           1.571591
}

set { 
basis              cc-pvtz
reference          uks
maxiter            500
DAMPING_PERCENTAGE 1
E_CONVERGENCE      1.0E-8
D_CONVERGENCE      1.0E-8
DIIS_MAX_VECS      400
MBIS_MAXITER       8000
guess              read
}

E, wfn = energy('b3lyp', restart_file='last_wfn', return_wfn=True)
properties('b3lyp','MBIS_CHARGES', wfn=wfn)
wfn.to_file('last_wfn')
--------------------------------------------------------------------------

Scratch directory: /tmp/
 Found user provided orbital data. Setting orbital guess to READ 
 Copying restart file <last_wfn.npy> to </tmp/scan_NO_43.default.48691.180.npy> for internal processing
   => Libint2 <=

    Primary   basis highest AM E, G, H:  6, 6, 3
    Auxiliary basis highest AM E, G, H:  7, 7, 4
    Onebody   basis highest AM E, G, H:  -, -, -
    Solid Harmonics ordering:            Gaussian

*** tstart() called on Mac.lan
*** at Sun Aug 10 17:21:25 2025

   => Loading Basis Set <=

    Name: CC-PVTZ
    Role: ORBITAL
    Keyword: BASIS
    atoms 1 entry O          line   262 file /Users/joseantoniorodriguesromero/anaconda3/share/psi4/basis/cc-pvtz.gbs 
    atoms 2 entry N          line   224 file /Users/joseantoniorodriguesromero/anaconda3/share/psi4/basis/cc-pvtz.gbs 


         ---------------------------------------------------------
                                   SCF
               by Justin Turney, Rob Parrish, Andy Simmonett
                          and Daniel G. A. Smith
                              UKS Reference
                        1 Threads,    500 MiB Core
         ---------------------------------------------------------

  ==> Geometry <==

    Molecular point group: c2v
    Full point group: C_inf_v

    Geometry (in Angstrom), charge = 0, multiplicity = 2:

       Center              X                  Y                   Z               Mass       
    ------------   -----------------  -----------------  -----------------  -----------------
         O            0.000000000000     0.000000000000    -0.733619355402    15.994914619570
         N            0.000000000000     0.000000000000     0.837971644598    14.003074004430

  Running in c2v symmetry.

  Rotational constants: A = ************  B =      0.91412  C =      0.91412 [cm^-1]
  Rotational constants: A = ************  B =  27404.69412  C =  27404.69412 [MHz]
  Nuclear repulsion =   18.856002482528854

  Charge       = 0
  Multiplicity = 2
  Electrons    = 15
  Nalpha       = 8
  Nbeta        = 7

  ==> Algorithm <==

  SCF Algorithm Type is DF.
  DIIS enabled.
  MOM disabled.
  Fractional occupation disabled.
  Guess Type is READ.
  Energy threshold   = 1.00e-08
  Density threshold  = 1.00e-08
  Integral threshold = 1.00e-12

  ==> Primary Basis <==

  Basis Set: CC-PVTZ
    Blend: CC-PVTZ
    Number of shells: 20
    Number of basis functions: 60
    Number of Cartesian functions: 70
    Spherical Harmonics?: true
    Max angular momentum: 3

  ==> DFT Potential <==

   => LibXC <=

    Version 6.2.2
    S. Lehtola, C. Steigemann, M. J.T. Oliveira, and M. A.L. Marques.,  SoftwareX 7, 1–5 (2018) (10.1016/j.softx.2017.11.002)

   => Composite Functional: B3LYP <= 

    B3LYP Hyb-GGA Exchange-Correlation Functional

    P. J. Stephens, F. J. Devlin, C. F. Chabalowski, and M. J. Frisch.,  J. Phys. Chem. 98, 11623 (1994) (10.1021/j100096a001)

    Deriv               =              1
    GGA                 =           TRUE
    Meta                =          FALSE

    Exchange Hybrid     =           TRUE
    MP2 Hybrid          =          FALSE

   => Exchange Functionals <=

    0.0800   Slater exchange
    0.7200         Becke 88

   => Exact (HF) Exchange <=

    0.2000               HF 

   => Correlation Functionals <=

    0.1900   Vosko, Wilk & Nusair (VWN5_RPA)
    0.8100   Lee, Yang & Parr

   => LibXC Density Thresholds  <==

    XC_HYB_GGA_XC_B3LYP:  1.00E-15 

   => Molecular Quadrature <=

    Radial Scheme          =       TREUTLER
    Pruning Scheme         =           NONE
    Nuclear Scheme         =       TREUTLER

    Blocking Scheme        =         OCTREE
    BS radius alpha        =              1
    Pruning alpha          =              1
    Radial Points          =             75
    Spherical Points       =            302
    Total Points           =          42754
    Total Blocks           =            388
    Max Points             =            255
    Max Functions          =             60
    Weights Tolerance      =       1.00E-15

   => Loading Basis Set <=

    Name: (CC-PVTZ AUX)
    Role: JKFIT
    Keyword: DF_BASIS_SCF
    atoms 1 entry O          line   229 file /Users/joseantoniorodriguesromero/anaconda3/share/psi4/basis/cc-pvtz-jkfit.gbs 
    atoms 2 entry N          line   177 file /Users/joseantoniorodriguesromero/anaconda3/share/psi4/basis/cc-pvtz-jkfit.gbs 

   => Loading Basis Set <=

    Name: CC-PVTZ
    Role: ORBITAL
    Keyword: BASIS
    atoms 1 entry O          line   262 file /Users/joseantoniorodriguesromero/anaconda3/share/psi4/basis/cc-pvtz.gbs 
    atoms 2 entry N          line   224 file /Users/joseantoniorodriguesromero/anaconda3/share/psi4/basis/cc-pvtz.gbs 

  Reading orbitals from file /tmp/scan_NO_43.default.48691.180.npy, no projection.

  ==> Integral Setup <==

  DFHelper Memory: AOs need 0.005 GiB; user supplied 0.296 GiB. 
  Using in-core AOs.

  ==> MemDFJK: Density-Fitted J/K Matrices <==

    J tasked:                   Yes
    K tasked:                   Yes
    wK tasked:                   No
    OpenMP threads:               1
    Memory [MiB]:               303
    Algorithm:                 Core
    Schwarz Cutoff:           1E-12
    Mask sparsity (%):       0.0000
    Fitting Condition:        1E-10

   => Auxiliary Basis Set <=

  Basis Set: (CC-PVTZ AUX)
    Blend: CC-PVTZ-JKFIT
    Number of shells: 50
    Number of basis functions: 158
    Number of Cartesian functions: 192
    Spherical Harmonics?: true
    Max angular momentum: 4

  Cached 100.0% of DFT collocation blocks in 0.070 [GiB].

  Minimum eigenvalue in the overlap matrix is 1.0789719179E-02.
  Reciprocal condition number of the overlap matrix is 3.1653699109E-03.
    Using symmetric orthogonalization.

  ==> Pre-Iterations <==

  SCF Guess: Orbitals guess was supplied from a previous computation.

   -------------------------------------------------------
    Irrep   Nso     Nmo     Nalpha   Nbeta   Ndocc  Nsocc
   -------------------------------------------------------
     A1        26      26       5       5       5       0
     A2         6       6       0       0       0       0
     B1        14      14       2       1       1       1
     B2        14      14       1       1       1       0
   -------------------------------------------------------
    Total      60      60       8       7       7       1
   -------------------------------------------------------

  ==> Iterations <==

                           Total Energy        Delta E     RMS |[F,P]|

   @DF-UKS iter   0:  -129.79411492907178   -1.29794e+02   1.02374e-03 
   @DF-UKS iter   1:  -129.80503898583493   -1.09241e-02   4.30914e-04 DIIS/ADIIS
   @DF-UKS iter   2:  -129.80466203769413    3.76948e-04   1.06665e-03 DIIS/ADIIS/DAMP=1%
   @DF-UKS iter   3:  -129.80470973152691   -4.76938e-05   3.14857e-04 DIIS/ADIIS/DAMP=1%
   @DF-UKS iter   4:  -129.80516481348042   -4.55082e-04   6.97776e-05 DIIS/DAMP=1%
   @DF-UKS iter   5:  -129.80518500627772   -2.01928e-05   2.87703e-05 DIIS/DAMP=1%
   @DF-UKS iter   6:  -129.80517029914066    1.47071e-05   7.35804e-06 DIIS/DAMP=1%
   @DF-UKS iter   7:  -129.80519931908148   -2.90199e-05   2.62627e-06 DIIS/DAMP=1%
   @DF-UKS iter   8:  -129.80519312184799    6.19723e-06   1.02640e-06 DIIS/DAMP=1%
   @DF-UKS iter   9:  -129.80519437386459   -1.25202e-06   1.94798e-07 DIIS/DAMP=1%
   @DF-UKS iter  10:  -129.80519428532185    8.85427e-08   2.54987e-08 DIIS/DAMP=1%
   @DF-UKS iter  11:  -129.80519424945007    3.58718e-08   1.00022e-08 DIIS/DAMP=1%
   @DF-UKS iter  12:  -129.80519424899421    4.55856e-10   9.18856e-10 DIIS/DAMP=1%
  Energy and wave function converged.


  ==> Post-Iterations <==

   Electrons on quadrature grid:
      Nalpha   =    7.9999994714 ; deviation = -5.286e-07
      Nbeta    =    6.9999993787 ; deviation = -6.213e-07
      Ntotal   =   14.9999988500 ; deviation = -1.150e-06 

   @Spin Contamination Metric:   5.389122627E-01
   @S^2 Expected:                7.500000000E-01
   @S^2 Observed:                1.288912263E+00
   @S   Expected:                5.000000000E-01
   @S   Observed:                5.000000000E-01

    Orbital Energies [Eh]
    ---------------------

    Alpha Occupied:                                                       

       1A1   -19.251386     2A1   -14.510303     3A1    -1.008854  
       4A1    -0.770754     5A1    -0.439226     1B1    -0.433600  
       1B2    -0.404455     2B1    -0.313577  

    Alpha Virtual:                                                        

       2B2    -0.191071     6A1    -0.030574     7A1     0.400660  
       3B1     0.415845     3B2     0.416623     8A1     0.492231  
       9A1     0.581597     4B1     0.601619     4B2     0.621254  
       1A2     0.943121    10A1     0.943490     5B2     0.970229  
       5B1     0.973832    11A1     1.090615    12A1     1.424021  
       2A2     1.472126    13A1     1.475961     6B1     1.760782  
       6B2     1.765395    14A1     1.997910     7B1     2.716618  
       7B2     2.718763    15A1     2.983008     8B1     3.473699  
       8B2     3.497662    16A1     3.539016     3A2     3.765713  
      17A1     3.766120     9B1     3.769466     9B2     3.769490  
      10B1     3.896101    10B2     3.899322    18A1     4.199232  
       4A2     4.280149    19A1     4.280854    11B2     4.441767  
      11B1     4.442064    20A1     4.950333    12B1     5.089922  
      12B2     5.091290    21A1     5.106590     5A2     5.129436  
      22A1     5.133006    13B1     5.456224    13B2     5.462262  
      23A1     5.957869     6A2     6.158437    24A1     6.168231  
      14B1     6.436823    14B2     6.457857    25A1     7.214428  
      26A1     7.978847  

    Beta Occupied:                                                        

       1A1   -19.267952     2A1   -14.474496     3A1    -1.029139  
       4A1    -0.695768     1B2    -0.440362     5A1    -0.430261  
       1B1    -0.378938  

    Beta Virtual:                                                         

       2B2    -0.156135     2B1    -0.136531     6A1    -0.010881  
       7A1     0.412718     3B2     0.460133     3B1     0.472330  
       8A1     0.516466     4B2     0.582254     9A1     0.587147  
       4B1     0.609566     5B2     0.990637     5B1     1.006931  
       1A2     1.012488    10A1     1.012552    11A1     1.080391  
      12A1     1.438996     2A2     1.448220    13A1     1.458265  
       6B2     1.746975     6B1     1.775964    14A1     1.995021  
       7B2     2.803738     7B1     2.818145    15A1     2.998776  
       8B2     3.440909     8B1     3.488704    16A1     3.569240  
       3A2     3.836467    17A1     3.836556     9B2     3.873499  
       9B1     3.873594    10B2     3.913328    10B1     3.938762  
      18A1     4.216478     4A2     4.419749    19A1     4.419775  
      11B2     4.510703    11B1     4.526102    20A1     4.968051  
      12B2     5.049889    12B1     5.050002     5A2     5.102573  
      21A1     5.104286    22A1     5.168345    13B2     5.421241  
      13B1     5.460977    23A1     5.941716     6A2     6.107162  
      24A1     6.108619    14B2     6.387945    14B1     6.438344  
      25A1     7.205567    26A1     7.952323  

    Final Occupation by Irrep:
             A1    A2    B1    B2 
    DOCC [     5,    0,    1,    1 ]
    SOCC [     0,    0,    1,    0 ]
    NA   [     5,    0,    2,    1 ]
    NB   [     5,    0,    1,    1 ]

  @DF-UKS Final Energy:  -129.80519424899421

   => Energetics <=

    Nuclear Repulsion Energy =             18.8560024825288544
    One-Electron Energy =                -214.6514109276467934
    Two-Electron Energy =                  78.2518831937246659
    DFT Exchange-Correlation Energy =     -12.2616689976009248
    Empirical Dispersion Energy =           0.0000000000000000
    VV10 Nonlocal Energy =                  0.0000000000000000
    Total Energy =                       -129.8051942489942121

  UHF NO Occupations:
  HONO-2 :    5 A1 1.9937505
  HONO-1 :    1 B2 1.6903612
  HONO-0 :    2 B1 1.0000000
  LUNO+0 :    2 B2 0.3096388
  LUNO+1 :    6 A1 0.0062495
  LUNO+2 :    7 A1 0.0007149
  LUNO+3 :    3 B1 0.0005453


Computation Completed


Properties will be evaluated at   0.000000,   0.000000,   0.000000 [a0]

Properties computed using the SCF density matrix


 Multipole Moments:

 ------------------------------------------------------------------------------------
     Multipole            Electronic (a.u.)      Nuclear  (a.u.)        Total (a.u.)
 ------------------------------------------------------------------------------------

 L = 1.  Multiply by 2.5417464519 to convert [e a0] to [Debye]
 Dipole X            :          0.0000000            0.0000000            0.0000000
 Dipole Y            :          0.0000000            0.0000000            0.0000000
 Dipole Z            :          0.2526644           -0.0059589            0.2467055
 Magnitude           :                                                    0.2467055

 ------------------------------------------------------------------------------------

*** tstop() called on Mac.lan at Sun Aug 10 17:21:27 2025
Module time:
	user time   =      15.84 seconds =       0.26 minutes
	system time =       2.07 seconds =       0.03 minutes
	total time  =          2 seconds =       0.03 minutes
Total time:
	user time   =      15.84 seconds =       0.26 minutes
	system time =       2.07 seconds =       0.03 minutes
	total time  =          2 seconds =       0.03 minutes

*** tstart() called on Mac.lan
*** at Sun Aug 10 17:21:27 2025

   => Libint2 <=

    Primary   basis highest AM E, G, H:  6, 6, 3
    Auxiliary basis highest AM E, G, H:  7, 7, 4
    Onebody   basis highest AM E, G, H:  -, -, -
    Solid Harmonics ordering:            Gaussian
   => Loading Basis Set <=

    Name: CC-PVTZ
    Role: ORBITAL
    Keyword: BASIS
    atoms 1 entry O          line   262 file /Users/joseantoniorodriguesromero/anaconda3/share/psi4/basis/cc-pvtz.gbs 
    atoms 2 entry N          line   224 file /Users/joseantoniorodriguesromero/anaconda3/share/psi4/basis/cc-pvtz.gbs 


         ---------------------------------------------------------
                                   SCF
               by Justin Turney, Rob Parrish, Andy Simmonett
                          and Daniel G. A. Smith
                              UKS Reference
                        1 Threads,    500 MiB Core
         ---------------------------------------------------------

  ==> Geometry <==

    Molecular point group: c2v
    Full point group: C_inf_v

    Geometry (in Angstrom), charge = 0, multiplicity = 2:

       Center              X                  Y                   Z               Mass       
    ------------   -----------------  -----------------  -----------------  -----------------
         O            0.000000000000     0.000000000000    -0.733619355402    15.994914619570
         N            0.000000000000     0.000000000000     0.837971644598    14.003074004430

  Running in c2v symmetry.

  Rotational constants: A = ************  B =      0.91412  C =      0.91412 [cm^-1]
  Rotational constants: A = ************  B =  27404.69412  C =  27404.69412 [MHz]
  Nuclear repulsion =   18.856002482528854

  Charge       = 0
  Multiplicity = 2
  Electrons    = 15
  Nalpha       = 8
  Nbeta        = 7

  ==> Algorithm <==

  SCF Algorithm Type is DF.
  DIIS enabled.
  MOM disabled.
  Fractional occupation disabled.
  Guess Type is READ.
  Energy threshold   = 1.00e-08
  Density threshold  = 1.00e-08
  Integral threshold = 1.00e-12

  ==> Primary Basis <==

  Basis Set: CC-PVTZ
    Blend: CC-PVTZ
    Number of shells: 20
    Number of basis functions: 60
    Number of Cartesian functions: 70
    Spherical Harmonics?: true
    Max angular momentum: 3

  ==> DFT Potential <==

   => LibXC <=

    Version 6.2.2
    S. Lehtola, C. Steigemann, M. J.T. Oliveira, and M. A.L. Marques.,  SoftwareX 7, 1–5 (2018) (10.1016/j.softx.2017.11.002)

   => Composite Functional: B3LYP <= 

    B3LYP Hyb-GGA Exchange-Correlation Functional

    P. J. Stephens, F. J. Devlin, C. F. Chabalowski, and M. J. Frisch.,  J. Phys. Chem. 98, 11623 (1994) (10.1021/j100096a001)

    Deriv               =              1
    GGA                 =           TRUE
    Meta                =          FALSE

    Exchange Hybrid     =           TRUE
    MP2 Hybrid          =          FALSE

   => Exchange Functionals <=

    0.0800   Slater exchange
    0.7200         Becke 88

   => Exact (HF) Exchange <=

    0.2000               HF 

   => Correlation Functionals <=

    0.1900   Vosko, Wilk & Nusair (VWN5_RPA)
    0.8100   Lee, Yang & Parr

   => LibXC Density Thresholds  <==

    XC_HYB_GGA_XC_B3LYP:  1.00E-15 

   => Molecular Quadrature <=

    Radial Scheme          =       TREUTLER
    Pruning Scheme         =           NONE
    Nuclear Scheme         =       TREUTLER

    Blocking Scheme        =         OCTREE
    BS radius alpha        =              1
    Pruning alpha          =              1
    Radial Points          =             75
    Spherical Points       =            302
    Total Points           =          42754
    Total Blocks           =            388
    Max Points             =            255
    Max Functions          =             60
    Weights Tolerance      =       1.00E-15

   => Loading Basis Set <=

    Name: (CC-PVTZ AUX)
    Role: JKFIT
    Keyword: DF_BASIS_SCF
    atoms 1 entry O          line   229 file /Users/joseantoniorodriguesromero/anaconda3/share/psi4/basis/cc-pvtz-jkfit.gbs 
    atoms 2 entry N          line   177 file /Users/joseantoniorodriguesromero/anaconda3/share/psi4/basis/cc-pvtz-jkfit.gbs 

   => Loading Basis Set <=

    Name: CC-PVTZ
    Role: ORBITAL
    Keyword: BASIS
    atoms 1 entry O          line   262 file /Users/joseantoniorodriguesromero/anaconda3/share/psi4/basis/cc-pvtz.gbs 
    atoms 2 entry N          line   224 file /Users/joseantoniorodriguesromero/anaconda3/share/psi4/basis/cc-pvtz.gbs 

  Reading orbitals from file /tmp/scan_NO_43.default.48691.180.npy, no projection.

  ==> Integral Setup <==

  DFHelper Memory: AOs need 0.005 GiB; user supplied 0.296 GiB. 
  Using in-core AOs.

  ==> MemDFJK: Density-Fitted J/K Matrices <==

    J tasked:                   Yes
    K tasked:                   Yes
    wK tasked:                   No
    OpenMP threads:               1
    Memory [MiB]:               303
    Algorithm:                 Core
    Schwarz Cutoff:           1E-12
    Mask sparsity (%):       0.0000
    Fitting Condition:        1E-10

   => Auxiliary Basis Set <=

  Basis Set: (CC-PVTZ AUX)
    Blend: CC-PVTZ-JKFIT
    Number of shells: 50
    Number of basis functions: 158
    Number of Cartesian functions: 192
    Spherical Harmonics?: true
    Max angular momentum: 4

  Cached 100.0% of DFT collocation blocks in 0.070 [GiB].

  Minimum eigenvalue in the overlap matrix is 1.0789719179E-02.
  Reciprocal condition number of the overlap matrix is 3.1653699109E-03.
    Using symmetric orthogonalization.

  ==> Pre-Iterations <==

  SCF Guess: Orbitals guess was supplied from a previous computation.

   -------------------------------------------------------
    Irrep   Nso     Nmo     Nalpha   Nbeta   Ndocc  Nsocc
   -------------------------------------------------------
     A1        26      26       5       5       5       0
     A2         6       6       0       0       0       0
     B1        14      14       2       1       1       1
     B2        14      14       1       1       1       0
   -------------------------------------------------------
    Total      60      60       8       7       7       1
   -------------------------------------------------------

  ==> Iterations <==

                           Total Energy        Delta E     RMS |[F,P]|

   @DF-UKS iter   0:  -129.80519424642304   -1.29805e+02   7.46246e-10 
   @DF-UKS iter   1:  -129.80519424642301    2.84217e-14   2.63589e-09 DIIS
  Energy and wave function converged.


  ==> Post-Iterations <==

   Electrons on quadrature grid:
      Nalpha   =    7.9999994714 ; deviation = -5.286e-07
      Nbeta    =    6.9999993787 ; deviation = -6.213e-07
      Ntotal   =   14.9999988500 ; deviation = -1.150e-06 

   @Spin Contamination Metric:   5.389121986E-01
   @S^2 Expected:                7.500000000E-01
   @S^2 Observed:                1.288912199E+00
   @S   Expected:                5.000000000E-01
   @S   Observed:                5.000000000E-01

    Orbital Energies [Eh]
    ---------------------

    Alpha Occupied:                                                       

       1A1   -19.251386     2A1   -14.510303     3A1    -1.008854  
       4A1    -0.770754     5A1    -0.439226     1B1    -0.433600  
       1B2    -0.404455     2B1    -0.313577  

    Alpha Virtual:                                                        

       2B2    -0.191071     6A1    -0.030574     7A1     0.400660  
       3B1     0.415845     3B2     0.416623     8A1     0.492231  
       9A1     0.581597     4B1     0.601619     4B2     0.621254  
       1A2     0.943121    10A1     0.943490     5B2     0.970229  
       5B1     0.973832    11A1     1.090615    12A1     1.424021  
       2A2     1.472126    13A1     1.475961     6B1     1.760782  
       6B2     1.765395    14A1     1.997910     7B1     2.716618  
       7B2     2.718763    15A1     2.983008     8B1     3.473699  
       8B2     3.497662    16A1     3.539016     3A2     3.765713  
      17A1     3.766120     9B1     3.769466     9B2     3.769490  
      10B1     3.896101    10B2     3.899322    18A1     4.199232  
       4A2     4.280149    19A1     4.280854    11B2     4.441767  
      11B1     4.442064    20A1     4.950333    12B1     5.089922  
      12B2     5.091290    21A1     5.106590     5A2     5.129436  
      22A1     5.133006    13B1     5.456223    13B2     5.462262  
      23A1     5.957869     6A2     6.158437    24A1     6.168231  
      14B1     6.436823    14B2     6.457857    25A1     7.214428  
      26A1     7.978847  

    Beta Occupied:                                                        

       1A1   -19.267952     2A1   -14.474495     3A1    -1.029139  
       4A1    -0.695768     1B2    -0.440362     5A1    -0.430261  
       1B1    -0.378938  

    Beta Virtual:                                                         

       2B2    -0.156135     2B1    -0.136531     6A1    -0.010881  
       7A1     0.412718     3B2     0.460133     3B1     0.472330  
       8A1     0.516466     4B2     0.582254     9A1     0.587147  
       4B1     0.609566     5B2     0.990637     5B1     1.006931  
       1A2     1.012488    10A1     1.012552    11A1     1.080391  
      12A1     1.438996     2A2     1.448220    13A1     1.458265  
       6B2     1.746975     6B1     1.775964    14A1     1.995021  
       7B2     2.803739     7B1     2.818145    15A1     2.998776  
       8B2     3.440909     8B1     3.488704    16A1     3.569240  
       3A2     3.836467    17A1     3.836556     9B2     3.873499  
       9B1     3.873594    10B2     3.913328    10B1     3.938762  
      18A1     4.216478     4A2     4.419749    19A1     4.419775  
      11B2     4.510703    11B1     4.526102    20A1     4.968051  
      12B2     5.049889    12B1     5.050002     5A2     5.102573  
      21A1     5.104286    22A1     5.168345    13B2     5.421241  
      13B1     5.460977    23A1     5.941716     6A2     6.107162  
      24A1     6.108619    14B2     6.387945    14B1     6.438344  
      25A1     7.205567    26A1     7.952323  

    Final Occupation by Irrep:
             A1    A2    B1    B2 
    DOCC [     5,    0,    1,    1 ]
    SOCC [     0,    0,    1,    0 ]
    NA   [     5,    0,    2,    1 ]
    NB   [     5,    0,    1,    1 ]

  @DF-UKS Final Energy:  -129.80519424642301

   => Energetics <=

    Nuclear Repulsion Energy =             18.8560024825288544
    One-Electron Energy =                -214.6514108185156715
    Two-Electron Energy =                  78.2518830907079632
    DFT Exchange-Correlation Energy =     -12.2616690011441651
    Empirical Dispersion Energy =           0.0000000000000000
    VV10 Nonlocal Energy =                  0.0000000000000000
    Total Energy =                       -129.8051942464230137

  UHF NO Occupations:
  HONO-2 :    5 A1 1.9937505
  HONO-1 :    1 B2 1.6903613
  HONO-0 :    2 B1 1.0000000
  LUNO+0 :    2 B2 0.3096387
  LUNO+1 :    6 A1 0.0062495
  LUNO+2 :    7 A1 0.0007149
  LUNO+3 :    3 B1 0.0005453


Computation Completed


Properties will be evaluated at   0.000000,   0.000000,   0.000000 [a0]

Properties computed using the B3LYP density matrix


 Multipole Moments:

 ------------------------------------------------------------------------------------
     Multipole            Electronic (a.u.)      Nuclear  (a.u.)        Total (a.u.)
 ------------------------------------------------------------------------------------

 L = 1.  Multiply by 2.5417464519 to convert [e a0] to [Debye]
 Dipole X            :          0.0000000            0.0000000            0.0000000
 Dipole Y            :          0.0000000            0.0000000            0.0000000
 Dipole Z            :          0.2526652           -0.0059589            0.2467063
 Magnitude           :                                                    0.2467063

 L = 2.  Multiply by 1.3450342976 to convert [e a0^2] to [Debye ang]
 Quadrupole XX       :         -8.2689462            0.0000000           -8.2689462
 Quadrupole XY       :          0.0000000            0.0000000            0.0000000
 Quadrupole XZ       :          0.0000000            0.0000000            0.0000000
 Quadrupole YY       :         -7.4906600            0.0000000           -7.4906600
 Quadrupole YZ       :          0.0000000            0.0000000            0.0000000
 Quadrupole ZZ       :        -40.9507961           32.9286253           -8.0221708
 Traceless XX        :         10.6345212          -10.9762084           -0.3416872
 Traceless YY        :         11.4128074          -10.9762084            0.4365990
 Traceless ZZ        :        -22.0473286           21.9524168           -0.0949118

 ------------------------------------------------------------------------------------
  ==> Computing MBIS Charges <==

  Electron Count from Grid (Expected Number): 15.00000 (15.00000)
  Difference: -0.00000

  MBIS Charges: (a.u.)
   Center  Symbol  Z      Pop.       Charge
      1       O    8    8.117764   -0.117764
      2       N    7    6.882235    0.117765

  MBIS Dipoles: [e a0]
   Center  Symbol  Z        X           Y           Z
      1       O    8   -0.000000   -0.000000   -0.020939
      2       N    7    0.000000    0.000000   -0.082102

  MBIS Quadrupoles: [e a0^2]
   Center  Symbol  Z      XX        XY        XZ        YY        YZ        ZZ
      1       O    8   -4.1986   -0.0000    0.0000   -3.6729    0.0000   -3.8714
      2       N    7   -4.0703   -0.0000    0.0000   -3.8178   -0.0000   -4.0178

  MBIS Octupoles: [e a0^3]
   Center  Symbol  Z      XXX       XXY       XXZ       XYY       XYZ       XZZ       YYY       YYZ       YZZ       ZZZ
      1       O    8   -0.0000   -0.0000    0.0274   -0.0000   -0.0000   -0.0000    0.0000   -0.0719    0.0000   -0.2901
      2       N    7    0.0000   -0.0000    0.0025   -0.0000    0.0000    0.0000   -0.0000    0.0152   -0.0000    0.2547

  MBIS Radial Moments:
   Center  Symbol  Z      [a0^2]      [a0^3]      [a0^4]      
      1       O    8   11.742906   22.314452   50.759658
      2       N    7   11.905875   25.014982   62.694623

  MBIS Valence Widths: [a0]
   Center  Symbol  Z     Width
      1       O    8    0.390181
      2       N    7    0.438655

*** tstop() called on Mac.lan at Sun Aug 10 17:21:28 2025
Module time:
	user time   =       4.18 seconds =       0.07 minutes
	system time =       1.70 seconds =       0.03 minutes
	total time  =          1 seconds =       0.02 minutes
Total time:
	user time   =      20.13 seconds =       0.34 minutes
	system time =       3.89 seconds =       0.06 minutes
	total time  =          3 seconds =       0.05 minutes

    Psi4 stopped on: Sunday, 10 August 2025 05:21PM
    Psi4 wall time for execution: 0:00:02.32

*** Psi4 exiting successfully. Buy a developer a beer!
