
    -----------------------------------------------------------------------
          Psi4: An Open-Source Ab Initio Electronic Structure Package
                               Psi4 1.9.1 release

                         Git: Rev {} zzzzzzz 


    D. G. A. Smith, L. A. Burns, A. C. Simmonett, R. M. Parrish,
    M. C. Schieber, R. Galvelis, P. Kraus, H. Kruse, R. Di Remigio,
    A. Alenaizan, A. M. James, S. Lehtola, J. P. Misiewicz, M. Scheurer,
    R. A. Shaw, J. B. Schriber, Y. Xie, Z. L. Glick, D. A. Sirianni,
    J. S. O'Brien, J. M. Waldrop, A. Kumar, E. G. Hohenstein,
    B. P. Pritchard, B. R. Brooks, H. F. Schaefer III, A. Yu. Sokolov,
    K. Patkowski, A. E. DePrince III, U. Bozkaya, R. A. King,
    F. A. Evangelista, J. M. Turney, T. D. Crawford, C. D. Sherrill,
    J. Chem. Phys. 152(18) 184108 (2020). https://doi.org/10.1063/5.0006002

                            Additional Code Authors
    E. T. Seidl, C. L. Janssen, E. F. Valeev, M. L. Leininger,
    J. F. Gonthier, R. M. Richard, H. R. McAlexander, M. Saitow, X. Wang,
    P. Verma, M. H. Lechner, A. Jiang, S. Behnle, A. G. Heide,
    M. F. Herbst, and D. L. Poole

             Previous Authors, Complete List of Code Contributors,
                       and Citations for Specific Modules
    https://github.com/psi4/psi4/blob/master/codemeta.json
    https://github.com/psi4/psi4/graphs/contributors
    http://psicode.org/psi4manual/master/introduction.html#citing-psifour

    -----------------------------------------------------------------------


    Psi4 started on: Sunday, 10 August 2025 05:09PM

    Process ID: 48369
    Host:       Mac.lan
    PSIDATADIR: /Users/joseantoniorodriguesromero/anaconda3/share/psi4
    Memory:     500.0 MiB
    Threads:    1
    
  ==> Input File <==

--------------------------------------------------------------------------
molecule { 
0 2
C           0.000000           0.000000           0.000000
H           0.000000           0.000000           1.541075
}

set { 
basis              cc-pvtz
reference          uks
maxiter            500
DAMPING_PERCENTAGE 1
E_CONVERGENCE      1.0E-8
D_CONVERGENCE      1.0E-8
DIIS_MAX_VECS      400
MBIS_MAXITER       8000
guess              read
}

E, wfn = energy('b3lyp', restart_file='last_wfn', return_wfn=True)
properties('b3lyp','MBIS_CHARGES', wfn=wfn)
wfn.to_file('last_wfn')
--------------------------------------------------------------------------

Scratch directory: /tmp/
 Found user provided orbital data. Setting orbital guess to READ 
 Copying restart file <last_wfn.npy> to </tmp/scan_HC_43.default.48369.180.npy> for internal processing
   => Libint2 <=

    Primary   basis highest AM E, G, H:  6, 6, 3
    Auxiliary basis highest AM E, G, H:  7, 7, 4
    Onebody   basis highest AM E, G, H:  -, -, -
    Solid Harmonics ordering:            Gaussian

*** tstart() called on Mac.lan
*** at Sun Aug 10 17:09:40 2025

   => Loading Basis Set <=

    Name: CC-PVTZ
    Role: ORBITAL
    Keyword: BASIS
    atoms 1 entry C          line   186 file /Users/joseantoniorodriguesromero/anaconda3/share/psi4/basis/cc-pvtz.gbs 
    atoms 2 entry H          line    23 file /Users/joseantoniorodriguesromero/anaconda3/share/psi4/basis/cc-pvtz.gbs 


         ---------------------------------------------------------
                                   SCF
               by Justin Turney, Rob Parrish, Andy Simmonett
                          and Daniel G. A. Smith
                              UKS Reference
                        1 Threads,    500 MiB Core
         ---------------------------------------------------------

  ==> Geometry <==

    Molecular point group: c2v
    Full point group: C_inf_v

    Geometry (in Angstrom), charge = 0, multiplicity = 2:

       Center              X                  Y                   Z               Mass       
    ------------   -----------------  -----------------  -----------------  -----------------
         C            0.000000000000     0.000000000000    -0.119399973300    12.000000000000
         H            0.000000000000     0.000000000000     1.421675026700     1.007825032230

  Running in c2v symmetry.

  Rotational constants: A = ************  B =      7.63462  C =      7.63462 [cm^-1]
  Rotational constants: A = ************  B = 228880.05461  C = 228880.05461 [MHz]
  Nuclear repulsion =    2.060291201933715

  Charge       = 0
  Multiplicity = 2
  Electrons    = 7
  Nalpha       = 4
  Nbeta        = 3

  ==> Algorithm <==

  SCF Algorithm Type is DF.
  DIIS enabled.
  MOM disabled.
  Fractional occupation disabled.
  Guess Type is READ.
  Energy threshold   = 1.00e-08
  Density threshold  = 1.00e-08
  Integral threshold = 1.00e-12

  ==> Primary Basis <==

  Basis Set: CC-PVTZ
    Blend: CC-PVTZ
    Number of shells: 16
    Number of basis functions: 44
    Number of Cartesian functions: 50
    Spherical Harmonics?: true
    Max angular momentum: 3

  ==> DFT Potential <==

   => LibXC <=

    Version 6.2.2
    S. Lehtola, C. Steigemann, M. J.T. Oliveira, and M. A.L. Marques.,  SoftwareX 7, 1–5 (2018) (10.1016/j.softx.2017.11.002)

   => Composite Functional: B3LYP <= 

    B3LYP Hyb-GGA Exchange-Correlation Functional

    P. J. Stephens, F. J. Devlin, C. F. Chabalowski, and M. J. Frisch.,  J. Phys. Chem. 98, 11623 (1994) (10.1021/j100096a001)

    Deriv               =              1
    GGA                 =           TRUE
    Meta                =          FALSE

    Exchange Hybrid     =           TRUE
    MP2 Hybrid          =          FALSE

   => Exchange Functionals <=

    0.0800   Slater exchange
    0.7200         Becke 88

   => Exact (HF) Exchange <=

    0.2000               HF 

   => Correlation Functionals <=

    0.1900   Vosko, Wilk & Nusair (VWN5_RPA)
    0.8100   Lee, Yang & Parr

   => LibXC Density Thresholds  <==

    XC_HYB_GGA_XC_B3LYP:  1.00E-15 

   => Molecular Quadrature <=

    Radial Scheme          =       TREUTLER
    Pruning Scheme         =           NONE
    Nuclear Scheme         =       TREUTLER

    Blocking Scheme        =         OCTREE
    BS radius alpha        =              1
    Pruning alpha          =              1
    Radial Points          =             75
    Spherical Points       =            302
    Total Points           =          43878
    Total Blocks           =            383
    Max Points             =            256
    Max Functions          =             44
    Weights Tolerance      =       1.00E-15

   => Loading Basis Set <=

    Name: (CC-PVTZ AUX)
    Role: JKFIT
    Keyword: DF_BASIS_SCF
    atoms 1 entry C          line   125 file /Users/joseantoniorodriguesromero/anaconda3/share/psi4/basis/cc-pvtz-jkfit.gbs 
    atoms 2 entry H          line    51 file /Users/joseantoniorodriguesromero/anaconda3/share/psi4/basis/cc-pvtz-jkfit.gbs 

   => Loading Basis Set <=

    Name: CC-PVTZ
    Role: ORBITAL
    Keyword: BASIS
    atoms 1 entry C          line   186 file /Users/joseantoniorodriguesromero/anaconda3/share/psi4/basis/cc-pvtz.gbs 
    atoms 2 entry H          line    23 file /Users/joseantoniorodriguesromero/anaconda3/share/psi4/basis/cc-pvtz.gbs 

  Reading orbitals from file /tmp/scan_HC_43.default.48369.180.npy, no projection.

  ==> Integral Setup <==

  DFHelper Memory: AOs need 0.002 GiB; user supplied 0.311 GiB. 
  Using in-core AOs.

  ==> MemDFJK: Density-Fitted J/K Matrices <==

    J tasked:                   Yes
    K tasked:                   Yes
    wK tasked:                   No
    OpenMP threads:               1
    Memory [MiB]:               318
    Algorithm:                 Core
    Schwarz Cutoff:           1E-12
    Mask sparsity (%):       0.0000
    Fitting Condition:        1E-10

   => Auxiliary Basis Set <=

  Basis Set: (CC-PVTZ AUX)
    Blend: CC-PVTZ-JKFIT
    Number of shells: 35
    Number of basis functions: 109
    Number of Cartesian functions: 131
    Spherical Harmonics?: true
    Max angular momentum: 4

  Cached 100.0% of DFT collocation blocks in 0.055 [GiB].

  Minimum eigenvalue in the overlap matrix is 1.7799025739E-02.
  Reciprocal condition number of the overlap matrix is 4.8814365080E-03.
    Using symmetric orthogonalization.

  ==> Pre-Iterations <==

  SCF Guess: Orbitals guess was supplied from a previous computation.

   -------------------------------------------------------
    Irrep   Nso     Nmo     Nalpha   Nbeta   Ndocc  Nsocc
   -------------------------------------------------------
     A1        20      20       3       3       3       0
     A2         4       4       0       0       0       0
     B1        10      10       1       0       0       1
     B2        10      10       0       0       0       0
   -------------------------------------------------------
    Total      44      44       4       3       3       1
   -------------------------------------------------------

  ==> Iterations <==

                           Total Energy        Delta E     RMS |[F,P]|

   @DF-UKS iter   0:   -38.44927171202350   -3.84493e+01   5.57639e-04 
   @DF-UKS iter   1:   -38.45346549884584   -4.19379e-03   1.98908e-04 DIIS/ADIIS
   @DF-UKS iter   2:   -38.45346756996016   -2.07111e-06   1.86717e-04 DIIS/ADIIS/DAMP=1%
   @DF-UKS iter   3:   -38.45356971403676   -1.02144e-04   4.32049e-05 DIIS/DAMP=1%
   @DF-UKS iter   4:   -38.45346665929701    1.03055e-04   3.76051e-06 DIIS/DAMP=1%
   @DF-UKS iter   5:   -38.45348572341034   -1.90641e-05   2.12416e-06 DIIS/DAMP=1%
   @DF-UKS iter   6:   -38.45348586455351   -1.41143e-07   5.84368e-07 DIIS/DAMP=1%
   @DF-UKS iter   7:   -38.45348632428201   -4.59729e-07   5.58516e-08 DIIS/DAMP=1%
   @DF-UKS iter   8:   -38.45348614531617    1.78966e-07   1.31888e-08 DIIS/DAMP=1%
   @DF-UKS iter   9:   -38.45348615490522   -9.58905e-09   2.42289e-09 DIIS/DAMP=1%
  Energy and wave function converged.


  ==> Post-Iterations <==

   Electrons on quadrature grid:
      Nalpha   =    3.9999999934 ; deviation = -6.562e-09
      Nbeta    =    2.9999999838 ; deviation = -1.621e-08
      Ntotal   =    6.9999999772 ; deviation = -2.277e-08 

   @Spin Contamination Metric:   5.220964728E-03
   @S^2 Expected:                7.500000000E-01
   @S^2 Observed:                7.552209647E-01
   @S   Expected:                5.000000000E-01
   @S   Observed:                5.000000000E-01

    Orbital Energies [Eh]
    ---------------------

    Alpha Occupied:                                                       

       1A1   -10.323553     2A1    -0.598114     3A1    -0.313220  
       1B1    -0.270214  

    Alpha Virtual:                                                        

       1B2    -0.155814     4A1    -0.017825     5A1     0.258105  
       2B1     0.283897     2B2     0.303192     6A1     0.313090  
       7A1     0.447380     3B1     0.538646     3B2     0.540667  
       1A2     0.651310     8A1     0.657031     9A1     0.832140  
       4B1     0.915660     4B2     0.917116    10A1     1.188542  
       5B1     1.889006     5B2     1.915919    11A1     2.079186  
      12A1     2.439285     6B1     2.538539     6B2     2.541674  
      13A1     2.593163     2A2     2.596585    14A1     2.601769  
       7B1     2.631290     7B2     2.633902     3A2     2.874144  
      15A1     2.886742     8B1     2.957782     8B2     2.974912  
      16A1     3.193264     4A2     3.277885    17A1     3.278695  
      18A1     3.592234     9B2     3.616462     9B1     3.618132  
      10B2     3.918534    10B1     3.919441    19A1     4.110572  
      20A1     5.366123  

    Beta Occupied:                                                        

       1A1   -10.307768     2A1    -0.545808     3A1    -0.301650  

    Beta Virtual:                                                         

       1B2    -0.139236     1B1    -0.091712     4A1    -0.008358  
       5A1     0.257330     2B2     0.310492     6A1     0.321870  
       2B1     0.339378     7A1     0.469380     3B2     0.540353  
       3B1     0.557410     8A1     0.694230     1A2     0.694896  
       9A1     0.843855     4B2     0.917830     4B1     0.937409  
      10A1     1.192589     5B2     1.926691     5B1     1.970337  
      11A1     2.091125    12A1     2.435129     6B2     2.545561  
       6B1     2.576203    13A1     2.606407     2A2     2.632938  
      14A1     2.640585     7B2     2.690162     7B1     2.690808  
      15A1     2.950984     3A2     2.951691     8B2     2.982683  
       8B1     3.026522    16A1     3.216762     4A2     3.277443  
      17A1     3.278209     9B2     3.608279    18A1     3.611806  
       9B1     3.615123    10B2     3.913416    10B1     3.925928  
      19A1     4.106339    20A1     5.376941  

    Final Occupation by Irrep:
             A1    A2    B1    B2 
    DOCC [     3,    0,    0,    0 ]
    SOCC [     0,    0,    1,    0 ]
    NA   [     3,    0,    1,    0 ]
    NB   [     3,    0,    0,    0 ]

  @DF-UKS Final Energy:   -38.45348615490522

   => Energetics <=

    Nuclear Repulsion Energy =              2.0602912019337154
    One-Electron Energy =                 -55.1428887780182180
    Two-Electron Energy =                  19.0916455831235297
    DFT Exchange-Correlation Energy =      -4.4625341619442516
    Empirical Dispersion Energy =           0.0000000000000000
    VV10 Nonlocal Energy =                  0.0000000000000000
    Total Energy =                        -38.4534861549052209

  UHF NO Occupations:
  HONO-2 :    2 A1 1.9991584
  HONO-1 :    3 A1 1.9982299
  HONO-0 :    1 B1 1.0000000
  LUNO+0 :    4 A1 0.0017701
  LUNO+1 :    5 A1 0.0008416
  LUNO+2 :    6 A1 0.0000007
  LUNO+3 :    7 A1 0.0000000


Computation Completed


Properties will be evaluated at   0.000000,   0.000000,   0.000000 [a0]

Properties computed using the SCF density matrix


 Multipole Moments:

 ------------------------------------------------------------------------------------
     Multipole            Electronic (a.u.)      Nuclear  (a.u.)        Total (a.u.)
 ------------------------------------------------------------------------------------

 L = 1.  Multiply by 2.5417464519 to convert [e a0] to [Debye]
 Dipole X            :          0.0000000            0.0000000            0.0000000
 Dipole Y            :          0.0000000            0.0000000            0.0000000
 Dipole Z            :         -1.1040330            1.3327769            0.2287440
 Magnitude           :                                                    0.2287440

 ------------------------------------------------------------------------------------

*** tstop() called on Mac.lan at Sun Aug 10 17:09:41 2025
Module time:
	user time   =       9.48 seconds =       0.16 minutes
	system time =       2.30 seconds =       0.04 minutes
	total time  =          1 seconds =       0.02 minutes
Total time:
	user time   =       9.48 seconds =       0.16 minutes
	system time =       2.30 seconds =       0.04 minutes
	total time  =          1 seconds =       0.02 minutes

*** tstart() called on Mac.lan
*** at Sun Aug 10 17:09:41 2025

   => Libint2 <=

    Primary   basis highest AM E, G, H:  6, 6, 3
    Auxiliary basis highest AM E, G, H:  7, 7, 4
    Onebody   basis highest AM E, G, H:  -, -, -
    Solid Harmonics ordering:            Gaussian
   => Loading Basis Set <=

    Name: CC-PVTZ
    Role: ORBITAL
    Keyword: BASIS
    atoms 1 entry C          line   186 file /Users/joseantoniorodriguesromero/anaconda3/share/psi4/basis/cc-pvtz.gbs 
    atoms 2 entry H          line    23 file /Users/joseantoniorodriguesromero/anaconda3/share/psi4/basis/cc-pvtz.gbs 


         ---------------------------------------------------------
                                   SCF
               by Justin Turney, Rob Parrish, Andy Simmonett
                          and Daniel G. A. Smith
                              UKS Reference
                        1 Threads,    500 MiB Core
         ---------------------------------------------------------

  ==> Geometry <==

    Molecular point group: c2v
    Full point group: C_inf_v

    Geometry (in Angstrom), charge = 0, multiplicity = 2:

       Center              X                  Y                   Z               Mass       
    ------------   -----------------  -----------------  -----------------  -----------------
         C            0.000000000000     0.000000000000    -0.119399973300    12.000000000000
         H            0.000000000000     0.000000000000     1.421675026700     1.007825032230

  Running in c2v symmetry.

  Rotational constants: A = ************  B =      7.63462  C =      7.63462 [cm^-1]
  Rotational constants: A = ************  B = 228880.05461  C = 228880.05461 [MHz]
  Nuclear repulsion =    2.060291201933715

  Charge       = 0
  Multiplicity = 2
  Electrons    = 7
  Nalpha       = 4
  Nbeta        = 3

  ==> Algorithm <==

  SCF Algorithm Type is DF.
  DIIS enabled.
  MOM disabled.
  Fractional occupation disabled.
  Guess Type is READ.
  Energy threshold   = 1.00e-08
  Density threshold  = 1.00e-08
  Integral threshold = 1.00e-12

  ==> Primary Basis <==

  Basis Set: CC-PVTZ
    Blend: CC-PVTZ
    Number of shells: 16
    Number of basis functions: 44
    Number of Cartesian functions: 50
    Spherical Harmonics?: true
    Max angular momentum: 3

  ==> DFT Potential <==

   => LibXC <=

    Version 6.2.2
    S. Lehtola, C. Steigemann, M. J.T. Oliveira, and M. A.L. Marques.,  SoftwareX 7, 1–5 (2018) (10.1016/j.softx.2017.11.002)

   => Composite Functional: B3LYP <= 

    B3LYP Hyb-GGA Exchange-Correlation Functional

    P. J. Stephens, F. J. Devlin, C. F. Chabalowski, and M. J. Frisch.,  J. Phys. Chem. 98, 11623 (1994) (10.1021/j100096a001)

    Deriv               =              1
    GGA                 =           TRUE
    Meta                =          FALSE

    Exchange Hybrid     =           TRUE
    MP2 Hybrid          =          FALSE

   => Exchange Functionals <=

    0.0800   Slater exchange
    0.7200         Becke 88

   => Exact (HF) Exchange <=

    0.2000               HF 

   => Correlation Functionals <=

    0.1900   Vosko, Wilk & Nusair (VWN5_RPA)
    0.8100   Lee, Yang & Parr

   => LibXC Density Thresholds  <==

    XC_HYB_GGA_XC_B3LYP:  1.00E-15 

   => Molecular Quadrature <=

    Radial Scheme          =       TREUTLER
    Pruning Scheme         =           NONE
    Nuclear Scheme         =       TREUTLER

    Blocking Scheme        =         OCTREE
    BS radius alpha        =              1
    Pruning alpha          =              1
    Radial Points          =             75
    Spherical Points       =            302
    Total Points           =          43878
    Total Blocks           =            383
    Max Points             =            256
    Max Functions          =             44
    Weights Tolerance      =       1.00E-15

   => Loading Basis Set <=

    Name: (CC-PVTZ AUX)
    Role: JKFIT
    Keyword: DF_BASIS_SCF
    atoms 1 entry C          line   125 file /Users/joseantoniorodriguesromero/anaconda3/share/psi4/basis/cc-pvtz-jkfit.gbs 
    atoms 2 entry H          line    51 file /Users/joseantoniorodriguesromero/anaconda3/share/psi4/basis/cc-pvtz-jkfit.gbs 

   => Loading Basis Set <=

    Name: CC-PVTZ
    Role: ORBITAL
    Keyword: BASIS
    atoms 1 entry C          line   186 file /Users/joseantoniorodriguesromero/anaconda3/share/psi4/basis/cc-pvtz.gbs 
    atoms 2 entry H          line    23 file /Users/joseantoniorodriguesromero/anaconda3/share/psi4/basis/cc-pvtz.gbs 

  Reading orbitals from file /tmp/scan_HC_43.default.48369.180.npy, no projection.

  ==> Integral Setup <==

  DFHelper Memory: AOs need 0.002 GiB; user supplied 0.311 GiB. 
  Using in-core AOs.

  ==> MemDFJK: Density-Fitted J/K Matrices <==

    J tasked:                   Yes
    K tasked:                   Yes
    wK tasked:                   No
    OpenMP threads:               1
    Memory [MiB]:               318
    Algorithm:                 Core
    Schwarz Cutoff:           1E-12
    Mask sparsity (%):       0.0000
    Fitting Condition:        1E-10

   => Auxiliary Basis Set <=

  Basis Set: (CC-PVTZ AUX)
    Blend: CC-PVTZ-JKFIT
    Number of shells: 35
    Number of basis functions: 109
    Number of Cartesian functions: 131
    Spherical Harmonics?: true
    Max angular momentum: 4

  Cached 100.0% of DFT collocation blocks in 0.055 [GiB].

  Minimum eigenvalue in the overlap matrix is 1.7799025739E-02.
  Reciprocal condition number of the overlap matrix is 4.8814365080E-03.
    Using symmetric orthogonalization.

  ==> Pre-Iterations <==

  SCF Guess: Orbitals guess was supplied from a previous computation.

   -------------------------------------------------------
    Irrep   Nso     Nmo     Nalpha   Nbeta   Ndocc  Nsocc
   -------------------------------------------------------
     A1        20      20       3       3       3       0
     A2         4       4       0       0       0       0
     B1        10      10       1       0       0       1
     B2        10      10       0       0       0       0
   -------------------------------------------------------
    Total      44      44       4       3       3       1
   -------------------------------------------------------

  ==> Iterations <==

                           Total Energy        Delta E     RMS |[F,P]|

   @DF-UKS iter   0:   -38.45348615414066   -3.84535e+01   3.23861e-10 
   @DF-UKS iter   1:   -38.45348615414072   -6.39488e-14   3.85832e-10 DIIS
  Energy and wave function converged.


  ==> Post-Iterations <==

   Electrons on quadrature grid:
      Nalpha   =    3.9999999934 ; deviation = -6.562e-09
      Nbeta    =    2.9999999838 ; deviation = -1.621e-08
      Ntotal   =    6.9999999772 ; deviation = -2.277e-08 

   @Spin Contamination Metric:   5.220966778E-03
   @S^2 Expected:                7.500000000E-01
   @S^2 Observed:                7.552209668E-01
   @S   Expected:                5.000000000E-01
   @S   Observed:                5.000000000E-01

    Orbital Energies [Eh]
    ---------------------

    Alpha Occupied:                                                       

       1A1   -10.323553     2A1    -0.598114     3A1    -0.313220  
       1B1    -0.270214  

    Alpha Virtual:                                                        

       1B2    -0.155814     4A1    -0.017825     5A1     0.258105  
       2B1     0.283897     2B2     0.303192     6A1     0.313090  
       7A1     0.447380     3B1     0.538646     3B2     0.540667  
       1A2     0.651310     8A1     0.657031     9A1     0.832140  
       4B1     0.915660     4B2     0.917116    10A1     1.188542  
       5B1     1.889006     5B2     1.915919    11A1     2.079186  
      12A1     2.439285     6B1     2.538539     6B2     2.541674  
      13A1     2.593163     2A2     2.596585    14A1     2.601769  
       7B1     2.631290     7B2     2.633902     3A2     2.874144  
      15A1     2.886742     8B1     2.957782     8B2     2.974912  
      16A1     3.193264     4A2     3.277885    17A1     3.278695  
      18A1     3.592234     9B2     3.616462     9B1     3.618132  
      10B2     3.918534    10B1     3.919441    19A1     4.110572  
      20A1     5.366123  

    Beta Occupied:                                                        

       1A1   -10.307768     2A1    -0.545808     3A1    -0.301650  

    Beta Virtual:                                                         

       1B2    -0.139236     1B1    -0.091712     4A1    -0.008358  
       5A1     0.257330     2B2     0.310492     6A1     0.321870  
       2B1     0.339378     7A1     0.469380     3B2     0.540353  
       3B1     0.557410     8A1     0.694230     1A2     0.694896  
       9A1     0.843855     4B2     0.917830     4B1     0.937409  
      10A1     1.192589     5B2     1.926691     5B1     1.970337  
      11A1     2.091125    12A1     2.435129     6B2     2.545561  
       6B1     2.576203    13A1     2.606407     2A2     2.632938  
      14A1     2.640585     7B2     2.690162     7B1     2.690808  
      15A1     2.950984     3A2     2.951690     8B2     2.982683  
       8B1     3.026522    16A1     3.216762     4A2     3.277443  
      17A1     3.278209     9B2     3.608279    18A1     3.611806  
       9B1     3.615123    10B2     3.913416    10B1     3.925928  
      19A1     4.106339    20A1     5.376941  

    Final Occupation by Irrep:
             A1    A2    B1    B2 
    DOCC [     3,    0,    0,    0 ]
    SOCC [     0,    0,    1,    0 ]
    NA   [     3,    0,    1,    0 ]
    NB   [     3,    0,    0,    0 ]

  @DF-UKS Final Energy:   -38.45348615414072

   => Energetics <=

    Nuclear Repulsion Energy =              2.0602912019337154
    One-Electron Energy =                 -55.1428888460177191
    Two-Electron Energy =                  19.0916456598906699
    DFT Exchange-Correlation Energy =      -4.4625341699473919
    Empirical Dispersion Energy =           0.0000000000000000
    VV10 Nonlocal Energy =                  0.0000000000000000
    Total Energy =                        -38.4534861541407196

  UHF NO Occupations:
  HONO-2 :    2 A1 1.9991584
  HONO-1 :    3 A1 1.9982299
  HONO-0 :    1 B1 1.0000000
  LUNO+0 :    4 A1 0.0017701
  LUNO+1 :    5 A1 0.0008416
  LUNO+2 :    6 A1 0.0000007
  LUNO+3 :    7 A1 0.0000000


Computation Completed


Properties will be evaluated at   0.000000,   0.000000,   0.000000 [a0]

Properties computed using the B3LYP density matrix


 Multipole Moments:

 ------------------------------------------------------------------------------------
     Multipole            Electronic (a.u.)      Nuclear  (a.u.)        Total (a.u.)
 ------------------------------------------------------------------------------------

 L = 1.  Multiply by 2.5417464519 to convert [e a0] to [Debye]
 Dipole X            :          0.0000000            0.0000000            0.0000000
 Dipole Y            :          0.0000000            0.0000000            0.0000000
 Dipole Z            :         -1.1040329            1.3327769            0.2287440
 Magnitude           :                                                    0.2287440

 L = 2.  Multiply by 1.3450342976 to convert [e a0^2] to [Debye ang]
 Quadrupole XX       :         -5.9658414            0.0000000           -5.9658414
 Quadrupole XY       :          0.0000000            0.0000000            0.0000000
 Quadrupole XZ       :          0.0000000            0.0000000            0.0000000
 Quadrupole YY       :         -4.5134312            0.0000000           -4.5134312
 Quadrupole YZ       :          0.0000000            0.0000000            0.0000000
 Quadrupole ZZ       :        -13.3422855            7.5231551           -5.8191304
 Traceless XX        :          1.9746780           -2.5077184           -0.5330404
 Traceless YY        :          3.4270882           -2.5077184            0.9193698
 Traceless ZZ        :         -5.4017662            5.0154368           -0.3863294

 ------------------------------------------------------------------------------------
  ==> Computing MBIS Charges <==

  Electron Count from Grid (Expected Number):  7.00000 ( 7.00000)
  Difference: -0.00000

  MBIS Charges: (a.u.)
   Center  Symbol  Z      Pop.       Charge
      1       C    6    5.986192    0.013808
      2       H    1    1.013808   -0.013808

  MBIS Dipoles: [e a0]
   Center  Symbol  Z        X           Y           Z
      1       C    6   -0.000000   -0.000000    0.181344
      2       H    1    0.000000    0.000000    0.087612

  MBIS Quadrupoles: [e a0^2]
   Center  Symbol  Z      XX        XY        XZ        YY        YZ        ZZ
      1       C    6   -5.0387    0.0000    0.0000   -3.6590    0.0000   -5.2134
      2       H    1   -0.9272   -0.0000   -0.0000   -0.8544    0.0000   -0.8957

  MBIS Octupoles: [e a0^3]
   Center  Symbol  Z      XXX       XXY       XXZ       XYY       XYZ       XZZ       YYY       YYZ       YZZ       ZZZ
      1       C    6   -0.0000   -0.0000    0.1951   -0.0000   -0.0000   -0.0000   -0.0000    0.1398   -0.0000    0.2226
      2       H    1   -0.0000    0.0000    0.0273   -0.0000   -0.0000   -0.0000    0.0000   -0.0539    0.0000    0.0707

  MBIS Radial Moments:
   Center  Symbol  Z      [a0^2]      [a0^3]      [a0^4]      
      1       C    6   13.911052   34.541239   102.421334
      2       H    1    2.677308    6.213642   17.244521

  MBIS Valence Widths: [a0]
   Center  Symbol  Z     Width
      1       C    6    0.523895
      2       H    1    0.471775

*** tstop() called on Mac.lan at Sun Aug 10 17:09:42 2025
Module time:
	user time   =       2.94 seconds =       0.05 minutes
	system time =       1.95 seconds =       0.03 minutes
	total time  =          1 seconds =       0.02 minutes
Total time:
	user time   =      12.45 seconds =       0.21 minutes
	system time =       4.41 seconds =       0.07 minutes
	total time  =          2 seconds =       0.03 minutes

    Psi4 stopped on: Sunday, 10 August 2025 05:09PM
    Psi4 wall time for execution: 0:00:01.65

*** Psi4 exiting successfully. Buy a developer a beer!
