
    -----------------------------------------------------------------------
          Psi4: An Open-Source Ab Initio Electronic Structure Package
                               Psi4 1.9.1 release

                         Git: Rev {} zzzzzzz 


    D. G. A. Smith, L. A. Burns, A. C. Simmonett, R. M. Parrish,
    M. C. Schieber, R. Galvelis, P. Kraus, H. Kruse, R. Di Remigio,
    A. Alenaizan, A. M. James, S. Lehtola, J. P. Misiewicz, M. Scheurer,
    R. A. Shaw, J. B. Schriber, Y. Xie, Z. L. Glick, D. A. Sirianni,
    J. S. O'Brien, J. M. Waldrop, A. Kumar, E. G. Hohenstein,
    B. P. Pritchard, B. R. Brooks, H. F. Schaefer III, A. Yu. Sokolov,
    K. Patkowski, A. E. DePrince III, U. Bozkaya, R. A. King,
    F. A. Evangelista, J. M. Turney, T. D. Crawford, C. D. Sherrill,
    J. Chem. Phys. 152(18) 184108 (2020). https://doi.org/10.1063/5.0006002

                            Additional Code Authors
    E. T. Seidl, C. L. Janssen, E. F. Valeev, M. L. Leininger,
    J. F. Gonthier, R. M. Richard, H. R. McAlexander, M. Saitow, X. Wang,
    P. Verma, M. H. Lechner, A. Jiang, S. Behnle, A. G. Heide,
    M. F. Herbst, and D. L. Poole

             Previous Authors, Complete List of Code Contributors,
                       and Citations for Specific Modules
    https://github.com/psi4/psi4/blob/master/codemeta.json
    https://github.com/psi4/psi4/graphs/contributors
    http://psicode.org/psi4manual/master/introduction.html#citing-psifour

    -----------------------------------------------------------------------


    Psi4 started on: Sunday, 10 August 2025 05:03PM

    Process ID: 48163
    Host:       Mac.lan
    PSIDATADIR: /Users/joseantoniorodriguesromero/anaconda3/share/psi4
    Memory:     500.0 MiB
    Threads:    1
    
  ==> Input File <==

--------------------------------------------------------------------------
molecule { 
0 3
C           0.000000           0.000000           0.000000
C           0.000000           0.000000           0.996282
}

set { 
basis              cc-pvtz
reference          uks
maxiter            500
DAMPING_PERCENTAGE 1
E_CONVERGENCE      1.0E-8
D_CONVERGENCE      1.0E-8
DIIS_MAX_VECS      400
MBIS_MAXITER       8000
guess              read
}

E, wfn = energy('b3lyp', restart_file='last_wfn', return_wfn=True)
properties('b3lyp','MBIS_CHARGES', wfn=wfn)
wfn.to_file('last_wfn')
--------------------------------------------------------------------------

Scratch directory: /tmp/
 Found user provided orbital data. Setting orbital guess to READ 
 Copying restart file <last_wfn.npy> to </tmp/scan_CC_10.default.48163.180.npy> for internal processing
   => Libint2 <=

    Primary   basis highest AM E, G, H:  6, 6, 3
    Auxiliary basis highest AM E, G, H:  7, 7, 4
    Onebody   basis highest AM E, G, H:  -, -, -
    Solid Harmonics ordering:            Gaussian

*** tstart() called on Mac.lan
*** at Sun Aug 10 17:03:37 2025

   => Loading Basis Set <=

    Name: CC-PVTZ
    Role: ORBITAL
    Keyword: BASIS
    atoms 1-2 entry C          line   186 file /Users/joseantoniorodriguesromero/anaconda3/share/psi4/basis/cc-pvtz.gbs 


         ---------------------------------------------------------
                                   SCF
               by Justin Turney, Rob Parrish, Andy Simmonett
                          and Daniel G. A. Smith
                              UKS Reference
                        1 Threads,    500 MiB Core
         ---------------------------------------------------------

  ==> Geometry <==

    Molecular point group: d2h
    Full point group: D_inf_h

    Geometry (in Angstrom), charge = 0, multiplicity = 3:

       Center              X                  Y                   Z               Mass       
    ------------   -----------------  -----------------  -----------------  -----------------
         C            0.000000000000     0.000000000000    -0.498141000000    12.000000000000
         C            0.000000000000     0.000000000000     0.498141000000    12.000000000000

  Running in d2h symmetry.

  Rotational constants: A = ************  B =      2.83061  C =      2.83061 [cm^-1]
  Rotational constants: A = ************  B =  84859.67832  C =  84859.67832 [MHz]
  Nuclear repulsion =   19.121473221557750

  Charge       = 0
  Multiplicity = 3
  Electrons    = 12
  Nalpha       = 7
  Nbeta        = 5

  ==> Algorithm <==

  SCF Algorithm Type is DF.
  DIIS enabled.
  MOM disabled.
  Fractional occupation disabled.
  Guess Type is READ.
  Energy threshold   = 1.00e-08
  Density threshold  = 1.00e-08
  Integral threshold = 1.00e-12

  ==> Primary Basis <==

  Basis Set: CC-PVTZ
    Blend: CC-PVTZ
    Number of shells: 20
    Number of basis functions: 60
    Number of Cartesian functions: 70
    Spherical Harmonics?: true
    Max angular momentum: 3

  ==> DFT Potential <==

   => LibXC <=

    Version 6.2.2
    S. Lehtola, C. Steigemann, M. J.T. Oliveira, and M. A.L. Marques.,  SoftwareX 7, 1–5 (2018) (10.1016/j.softx.2017.11.002)

   => Composite Functional: B3LYP <= 

    B3LYP Hyb-GGA Exchange-Correlation Functional

    P. J. Stephens, F. J. Devlin, C. F. Chabalowski, and M. J. Frisch.,  J. Phys. Chem. 98, 11623 (1994) (10.1021/j100096a001)

    Deriv               =              1
    GGA                 =           TRUE
    Meta                =          FALSE

    Exchange Hybrid     =           TRUE
    MP2 Hybrid          =          FALSE

   => Exchange Functionals <=

    0.0800   Slater exchange
    0.7200         Becke 88

   => Exact (HF) Exchange <=

    0.2000               HF 

   => Correlation Functionals <=

    0.1900   Vosko, Wilk & Nusair (VWN5_RPA)
    0.8100   Lee, Yang & Parr

   => LibXC Density Thresholds  <==

    XC_HYB_GGA_XC_B3LYP:  1.00E-15 

   => Molecular Quadrature <=

    Radial Scheme          =       TREUTLER
    Pruning Scheme         =           NONE
    Nuclear Scheme         =       TREUTLER

    Blocking Scheme        =         OCTREE
    BS radius alpha        =              1
    Pruning alpha          =              1
    Radial Points          =             75
    Spherical Points       =            302
    Total Points           =          42968
    Total Blocks           =            386
    Max Points             =            252
    Max Functions          =             60
    Weights Tolerance      =       1.00E-15

   => Loading Basis Set <=

    Name: (CC-PVTZ AUX)
    Role: JKFIT
    Keyword: DF_BASIS_SCF
    atoms 1-2 entry C          line   125 file /Users/joseantoniorodriguesromero/anaconda3/share/psi4/basis/cc-pvtz-jkfit.gbs 

   => Loading Basis Set <=

    Name: CC-PVTZ
    Role: ORBITAL
    Keyword: BASIS
    atoms 1-2 entry C          line   186 file /Users/joseantoniorodriguesromero/anaconda3/share/psi4/basis/cc-pvtz.gbs 

  Reading orbitals from file /tmp/scan_CC_10.default.48163.180.npy, no projection.

  ==> Integral Setup <==

  DFHelper Memory: AOs need 0.005 GiB; user supplied 0.293 GiB. 
  Using in-core AOs.

  ==> MemDFJK: Density-Fitted J/K Matrices <==

    J tasked:                   Yes
    K tasked:                   Yes
    wK tasked:                   No
    OpenMP threads:               1
    Memory [MiB]:               300
    Algorithm:                 Core
    Schwarz Cutoff:           1E-12
    Mask sparsity (%):       0.0000
    Fitting Condition:        1E-10

   => Auxiliary Basis Set <=

  Basis Set: (CC-PVTZ AUX)
    Blend: CC-PVTZ-JKFIT
    Number of shells: 50
    Number of basis functions: 158
    Number of Cartesian functions: 192
    Spherical Harmonics?: true
    Max angular momentum: 4

  Cached 100.0% of DFT collocation blocks in 0.073 [GiB].

  Minimum eigenvalue in the overlap matrix is 1.2157468876E-03.
  Reciprocal condition number of the overlap matrix is 3.0094119272E-04.
    Using symmetric orthogonalization.

  ==> Pre-Iterations <==

  SCF Guess: Orbitals guess was supplied from a previous computation.

   -------------------------------------------------------
    Irrep   Nso     Nmo     Nalpha   Nbeta   Ndocc  Nsocc
   -------------------------------------------------------
     Ag        13      13       3       2       2       1
     B1g        3       3       0       0       0       0
     B2g        7       7       0       0       0       0
     B3g        7       7       0       0       0       0
     Au         3       3       0       0       0       0
     B1u       13      13       2       2       2       0
     B2u        7       7       1       1       1       0
     B3u        7       7       1       0       0       1
   -------------------------------------------------------
    Total      60      60       7       5       5       2
   -------------------------------------------------------

  ==> Iterations <==

                           Total Energy        Delta E     RMS |[F,P]|

   @DF-UKS iter   0:   -75.72690598794451   -7.57269e+01   4.77228e-03 
   @DF-UKS iter   1:   -75.73223835603471   -5.33237e-03   2.74920e-04 ADIIS/DIIS
   @DF-UKS iter   2:   -75.73224915174467   -1.07957e-05   3.53298e-05 DIIS/DAMP=1%
   @DF-UKS iter   3:   -75.73227623820220   -2.70865e-05   1.79459e-05 DIIS/DAMP=1%
   @DF-UKS iter   4:   -75.73223760406080    3.86341e-05   2.07971e-06 DIIS/DAMP=1%
   @DF-UKS iter   5:   -75.73225087068326   -1.32666e-05   3.14088e-07 DIIS/DAMP=1%
   @DF-UKS iter   6:   -75.73224924742287    1.62326e-06   3.28024e-08 DIIS/DAMP=1%
   @DF-UKS iter   7:   -75.73224942641623   -1.78993e-07   1.56684e-09 DIIS/DAMP=1%
   @DF-UKS iter   8:   -75.73224943408437   -7.66813e-09   1.77044e-10 DIIS/DAMP=1%
  Energy and wave function converged.


  ==> Post-Iterations <==

   Electrons on quadrature grid:
      Nalpha   =    7.0000000632 ; deviation = 6.320e-08
      Nbeta    =    5.0000000619 ; deviation = 6.187e-08
      Ntotal   =   12.0000001251 ; deviation = 1.251e-07 

   @Spin Contamination Metric:   4.337279867E-03
   @S^2 Expected:                2.000000000E+00
   @S^2 Observed:                2.004337280E+00
   @S   Expected:                1.000000000E+00
   @S   Observed:                1.000000000E+00

    Orbital Energies [Eh]
    ---------------------

    Alpha Occupied:                                                       

       1Ag   -10.240790     1B1u  -10.226034     2Ag    -0.920927  
       1B3u   -0.457101     1B2u   -0.412962     2B1u   -0.400329  
       3Ag    -0.365212  

    Alpha Virtual:                                                        

       1B2g    0.048846     1B3g    0.073163     3B1u    0.186997  
       2B3u    0.226637     2B2u    0.242132     4Ag     0.249893  
       5Ag     0.342008     2B2g    0.392129     2B3g    0.409623  
       1B1g    0.539527     6Ag     0.540386     4B1u    0.585109  
       3B3u    0.824096     5B1u    0.837224     3B2u    0.846486  
       1Au     0.904844     6B1u    0.906860     7Ag     1.090707  
       3B2g    1.134503     3B3g    1.149570     4B3u    1.797461  
       4B2u    1.830310     7B1u    1.842433     8Ag     2.154109  
       4B2g    2.307791     4B3g    2.336504     8B1u    2.387562  
       5B3u    2.400405     5B2u    2.400563     2B1g    2.425172  
       9Ag     2.426923     6B3u    2.600823     6B2u    2.633167  
      10Ag     2.808530     5B2g    2.920972     5B3g    2.942509  
       2Au     2.967814     9B1u    2.967925     3B1g    2.986749  
      11Ag     2.987710     6B2g    2.988295     6B3g    2.988822  
      12Ag     3.467857    10B1u    3.528650     7B3u    3.725651  
       7B2u    3.753961     3Au     3.896806    11B1u    3.897259  
      12B1u    4.731472     7B2g    5.131438     7B3g    5.162931  
      13Ag     5.953169    13B1u   17.421122  

    Beta Occupied:                                                        

       1Ag   -10.221746     1B1u  -10.208092     2Ag    -0.839392  
       1B2u   -0.390226     2B1u   -0.311560  

    Beta Virtual:                                                         

       1B3u   -0.281631     3Ag    -0.212185     1B3g    0.094168  
       1B2g    0.107917     3B1u    0.199962     2B2u    0.248678  
       2B3u    0.256866     4Ag     0.269511     5Ag     0.380498  
       2B3g    0.422554     2B2g    0.435392     1B1g    0.570388  
       6Ag     0.573302     4B1u    0.611877     3B2u    0.872988  
       3B3u    0.873896     5B1u    0.879831     1Au     0.928365  
       6B1u    0.930170     7Ag     1.130450     3B3g    1.166547  
       3B2g    1.170171     4B2u    1.846298     4B3u    1.859373  
       7B1u    1.906826     8Ag     2.203190     4B3g    2.350937  
       4B2g    2.359183     8B1u    2.433158     5B2u    2.439098  
       5B3u    2.440274     2B1g    2.470266     9Ag     2.474417  
       6B2u    2.677890     6B3u    2.690402    10Ag     2.882667  
       5B3g    2.989053     5B2g    2.992168     2Au     3.016553  
       9B1u    3.020752     6B3g    3.024460     6B2g    3.025748  
       3B1g    3.037254    11Ag     3.041370    12Ag     3.509906  
      10B1u    3.586547     7B2u    3.790729     7B3u    3.793662  
       3Au     3.939267    11B1u    3.943188    12B1u    4.790476  
       7B3g    5.196999     7B2g    5.208277    13Ag     5.997882  
      13B1u   17.447554  

    Final Occupation by Irrep:
             Ag   B1g   B2g   B3g    Au   B1u   B2u   B3u 
    DOCC [     2,    0,    0,    0,    0,    2,    1,    0 ]
    SOCC [     1,    0,    0,    0,    0,    0,    0,    1 ]
    NA   [     3,    0,    0,    0,    0,    2,    1,    1 ]
    NB   [     2,    0,    0,    0,    0,    2,    1,    0 ]

  @DF-UKS Final Energy:   -75.73224943408437

   => Energetics <=

    Nuclear Repulsion Energy =             19.1214732215577499
    One-Electron Energy =                -138.3682803801660555
    Two-Electron Energy =                  52.3228330636949437
    DFT Exchange-Correlation Energy =      -8.8082753391710060
    Empirical Dispersion Energy =           0.0000000000000000
    VV10 Nonlocal Energy =                  0.0000000000000000
    Total Energy =                        -75.7322494340843662

  UHF NO Occupations:
  HONO-2 :    2B1u 1.9983431
  HONO-1 :    3 Ag 1.0000000
  HONO-0 :    1B3u 1.0000000
  LUNO+0 :    3B1u 0.0016569
  LUNO+1 :    4 Ag 0.0003939
  LUNO+2 :    2B2u 0.0001179
  LUNO+3 :    4B1u 0.0000007


Computation Completed


Properties will be evaluated at   0.000000,   0.000000,   0.000000 [a0]

Properties computed using the SCF density matrix


 Multipole Moments:

 ------------------------------------------------------------------------------------
     Multipole            Electronic (a.u.)      Nuclear  (a.u.)        Total (a.u.)
 ------------------------------------------------------------------------------------

 L = 1.  Multiply by 2.5417464519 to convert [e a0] to [Debye]
 Dipole X            :          0.0000000            0.0000000            0.0000000
 Dipole Y            :          0.0000000            0.0000000            0.0000000
 Dipole Z            :          0.0000000            0.0000000            0.0000000
 Magnitude           :                                                    0.0000000

 ------------------------------------------------------------------------------------

*** tstop() called on Mac.lan at Sun Aug 10 17:03:38 2025
Module time:
	user time   =      11.01 seconds =       0.18 minutes
	system time =       2.26 seconds =       0.04 minutes
	total time  =          1 seconds =       0.02 minutes
Total time:
	user time   =      11.01 seconds =       0.18 minutes
	system time =       2.26 seconds =       0.04 minutes
	total time  =          1 seconds =       0.02 minutes

*** tstart() called on Mac.lan
*** at Sun Aug 10 17:03:38 2025

   => Libint2 <=

    Primary   basis highest AM E, G, H:  6, 6, 3
    Auxiliary basis highest AM E, G, H:  7, 7, 4
    Onebody   basis highest AM E, G, H:  -, -, -
    Solid Harmonics ordering:            Gaussian
   => Loading Basis Set <=

    Name: CC-PVTZ
    Role: ORBITAL
    Keyword: BASIS
    atoms 1-2 entry C          line   186 file /Users/joseantoniorodriguesromero/anaconda3/share/psi4/basis/cc-pvtz.gbs 


         ---------------------------------------------------------
                                   SCF
               by Justin Turney, Rob Parrish, Andy Simmonett
                          and Daniel G. A. Smith
                              UKS Reference
                        1 Threads,    500 MiB Core
         ---------------------------------------------------------

  ==> Geometry <==

    Molecular point group: d2h
    Full point group: D_inf_h

    Geometry (in Angstrom), charge = 0, multiplicity = 3:

       Center              X                  Y                   Z               Mass       
    ------------   -----------------  -----------------  -----------------  -----------------
         C            0.000000000000     0.000000000000    -0.498141000000    12.000000000000
         C            0.000000000000     0.000000000000     0.498141000000    12.000000000000

  Running in d2h symmetry.

  Rotational constants: A = ************  B =      2.83061  C =      2.83061 [cm^-1]
  Rotational constants: A = ************  B =  84859.67832  C =  84859.67832 [MHz]
  Nuclear repulsion =   19.121473221557750

  Charge       = 0
  Multiplicity = 3
  Electrons    = 12
  Nalpha       = 7
  Nbeta        = 5

  ==> Algorithm <==

  SCF Algorithm Type is DF.
  DIIS enabled.
  MOM disabled.
  Fractional occupation disabled.
  Guess Type is READ.
  Energy threshold   = 1.00e-08
  Density threshold  = 1.00e-08
  Integral threshold = 1.00e-12

  ==> Primary Basis <==

  Basis Set: CC-PVTZ
    Blend: CC-PVTZ
    Number of shells: 20
    Number of basis functions: 60
    Number of Cartesian functions: 70
    Spherical Harmonics?: true
    Max angular momentum: 3

  ==> DFT Potential <==

   => LibXC <=

    Version 6.2.2
    S. Lehtola, C. Steigemann, M. J.T. Oliveira, and M. A.L. Marques.,  SoftwareX 7, 1–5 (2018) (10.1016/j.softx.2017.11.002)

   => Composite Functional: B3LYP <= 

    B3LYP Hyb-GGA Exchange-Correlation Functional

    P. J. Stephens, F. J. Devlin, C. F. Chabalowski, and M. J. Frisch.,  J. Phys. Chem. 98, 11623 (1994) (10.1021/j100096a001)

    Deriv               =              1
    GGA                 =           TRUE
    Meta                =          FALSE

    Exchange Hybrid     =           TRUE
    MP2 Hybrid          =          FALSE

   => Exchange Functionals <=

    0.0800   Slater exchange
    0.7200         Becke 88

   => Exact (HF) Exchange <=

    0.2000               HF 

   => Correlation Functionals <=

    0.1900   Vosko, Wilk & Nusair (VWN5_RPA)
    0.8100   Lee, Yang & Parr

   => LibXC Density Thresholds  <==

    XC_HYB_GGA_XC_B3LYP:  1.00E-15 

   => Molecular Quadrature <=

    Radial Scheme          =       TREUTLER
    Pruning Scheme         =           NONE
    Nuclear Scheme         =       TREUTLER

    Blocking Scheme        =         OCTREE
    BS radius alpha        =              1
    Pruning alpha          =              1
    Radial Points          =             75
    Spherical Points       =            302
    Total Points           =          42968
    Total Blocks           =            386
    Max Points             =            252
    Max Functions          =             60
    Weights Tolerance      =       1.00E-15

   => Loading Basis Set <=

    Name: (CC-PVTZ AUX)
    Role: JKFIT
    Keyword: DF_BASIS_SCF
    atoms 1-2 entry C          line   125 file /Users/joseantoniorodriguesromero/anaconda3/share/psi4/basis/cc-pvtz-jkfit.gbs 

   => Loading Basis Set <=

    Name: CC-PVTZ
    Role: ORBITAL
    Keyword: BASIS
    atoms 1-2 entry C          line   186 file /Users/joseantoniorodriguesromero/anaconda3/share/psi4/basis/cc-pvtz.gbs 

  Reading orbitals from file /tmp/scan_CC_10.default.48163.180.npy, no projection.

  ==> Integral Setup <==

  DFHelper Memory: AOs need 0.005 GiB; user supplied 0.293 GiB. 
  Using in-core AOs.

  ==> MemDFJK: Density-Fitted J/K Matrices <==

    J tasked:                   Yes
    K tasked:                   Yes
    wK tasked:                   No
    OpenMP threads:               1
    Memory [MiB]:               300
    Algorithm:                 Core
    Schwarz Cutoff:           1E-12
    Mask sparsity (%):       0.0000
    Fitting Condition:        1E-10

   => Auxiliary Basis Set <=

  Basis Set: (CC-PVTZ AUX)
    Blend: CC-PVTZ-JKFIT
    Number of shells: 50
    Number of basis functions: 158
    Number of Cartesian functions: 192
    Spherical Harmonics?: true
    Max angular momentum: 4

  Cached 100.0% of DFT collocation blocks in 0.073 [GiB].

  Minimum eigenvalue in the overlap matrix is 1.2157468876E-03.
  Reciprocal condition number of the overlap matrix is 3.0094119272E-04.
    Using symmetric orthogonalization.

  ==> Pre-Iterations <==

  SCF Guess: Orbitals guess was supplied from a previous computation.

   -------------------------------------------------------
    Irrep   Nso     Nmo     Nalpha   Nbeta   Ndocc  Nsocc
   -------------------------------------------------------
     Ag        13      13       3       2       2       1
     B1g        3       3       0       0       0       0
     B2g        7       7       0       0       0       0
     B3g        7       7       0       0       0       0
     Au         3       3       0       0       0       0
     B1u       13      13       2       2       2       0
     B2u        7       7       1       1       1       0
     B3u        7       7       1       0       0       1
   -------------------------------------------------------
    Total      60      60       7       5       5       2
   -------------------------------------------------------

  ==> Iterations <==

                           Total Energy        Delta E     RMS |[F,P]|

   @DF-UKS iter   0:   -75.73224943357377   -7.57322e+01   2.23463e-11 
   @DF-UKS iter   1:   -75.73224943357384   -7.10543e-14   1.14808e-11 DIIS
  Energy and wave function converged.


  ==> Post-Iterations <==

   Electrons on quadrature grid:
      Nalpha   =    7.0000000632 ; deviation = 6.320e-08
      Nbeta    =    5.0000000619 ; deviation = 6.187e-08
      Ntotal   =   12.0000001251 ; deviation = 1.251e-07 

   @Spin Contamination Metric:   4.337279874E-03
   @S^2 Expected:                2.000000000E+00
   @S^2 Observed:                2.004337280E+00
   @S   Expected:                1.000000000E+00
   @S   Observed:                1.000000000E+00

    Orbital Energies [Eh]
    ---------------------

    Alpha Occupied:                                                       

       1Ag   -10.240790     1B1u  -10.226034     2Ag    -0.920927  
       1B3u   -0.457101     1B2u   -0.412962     2B1u   -0.400329  
       3Ag    -0.365212  

    Alpha Virtual:                                                        

       1B2g    0.048846     1B3g    0.073163     3B1u    0.186997  
       2B3u    0.226637     2B2u    0.242132     4Ag     0.249893  
       5Ag     0.342008     2B2g    0.392129     2B3g    0.409623  
       1B1g    0.539527     6Ag     0.540386     4B1u    0.585109  
       3B3u    0.824096     5B1u    0.837224     3B2u    0.846486  
       1Au     0.904844     6B1u    0.906860     7Ag     1.090707  
       3B2g    1.134503     3B3g    1.149570     4B3u    1.797461  
       4B2u    1.830310     7B1u    1.842433     8Ag     2.154109  
       4B2g    2.307791     4B3g    2.336504     8B1u    2.387562  
       5B3u    2.400405     5B2u    2.400563     2B1g    2.425172  
       9Ag     2.426923     6B3u    2.600823     6B2u    2.633167  
      10Ag     2.808530     5B2g    2.920972     5B3g    2.942509  
       2Au     2.967814     9B1u    2.967925     3B1g    2.986749  
      11Ag     2.987710     6B2g    2.988295     6B3g    2.988822  
      12Ag     3.467857    10B1u    3.528650     7B3u    3.725651  
       7B2u    3.753961     3Au     3.896806    11B1u    3.897259  
      12B1u    4.731472     7B2g    5.131438     7B3g    5.162931  
      13Ag     5.953169    13B1u   17.421122  

    Beta Occupied:                                                        

       1Ag   -10.221746     1B1u  -10.208092     2Ag    -0.839392  
       1B2u   -0.390226     2B1u   -0.311560  

    Beta Virtual:                                                         

       1B3u   -0.281631     3Ag    -0.212185     1B3g    0.094168  
       1B2g    0.107917     3B1u    0.199962     2B2u    0.248678  
       2B3u    0.256866     4Ag     0.269511     5Ag     0.380498  
       2B3g    0.422554     2B2g    0.435392     1B1g    0.570388  
       6Ag     0.573302     4B1u    0.611877     3B2u    0.872988  
       3B3u    0.873896     5B1u    0.879831     1Au     0.928365  
       6B1u    0.930170     7Ag     1.130450     3B3g    1.166547  
       3B2g    1.170171     4B2u    1.846298     4B3u    1.859373  
       7B1u    1.906826     8Ag     2.203190     4B3g    2.350937  
       4B2g    2.359183     8B1u    2.433158     5B2u    2.439098  
       5B3u    2.440274     2B1g    2.470266     9Ag     2.474417  
       6B2u    2.677890     6B3u    2.690402    10Ag     2.882667  
       5B3g    2.989053     5B2g    2.992168     2Au     3.016553  
       9B1u    3.020752     6B3g    3.024460     6B2g    3.025748  
       3B1g    3.037254    11Ag     3.041370    12Ag     3.509906  
      10B1u    3.586547     7B2u    3.790729     7B3u    3.793662  
       3Au     3.939267    11B1u    3.943188    12B1u    4.790476  
       7B3g    5.196999     7B2g    5.208277    13Ag     5.997882  
      13B1u   17.447554  

    Final Occupation by Irrep:
             Ag   B1g   B2g   B3g    Au   B1u   B2u   B3u 
    DOCC [     2,    0,    0,    0,    0,    2,    1,    0 ]
    SOCC [     1,    0,    0,    0,    0,    0,    0,    1 ]
    NA   [     3,    0,    0,    0,    0,    2,    1,    1 ]
    NB   [     2,    0,    0,    0,    0,    2,    1,    0 ]

  @DF-UKS Final Energy:   -75.73224943357384

   => Energetics <=

    Nuclear Repulsion Energy =             19.1214732215577499
    One-Electron Energy =                -138.3682803830108128
    Two-Electron Energy =                  52.3228330671468669
    DFT Exchange-Correlation Energy =      -8.8082753392676363
    Empirical Dispersion Energy =           0.0000000000000000
    VV10 Nonlocal Energy =                  0.0000000000000000
    Total Energy =                        -75.7322494335738412

  UHF NO Occupations:
  HONO-2 :    2B1u 1.9983431
  HONO-1 :    3 Ag 1.0000000
  HONO-0 :    1B3u 1.0000000
  LUNO+0 :    3B1u 0.0016569
  LUNO+1 :    4 Ag 0.0003939
  LUNO+2 :    2B2u 0.0001179
  LUNO+3 :    4B1u 0.0000007


Computation Completed


Properties will be evaluated at   0.000000,   0.000000,   0.000000 [a0]

Properties computed using the B3LYP density matrix


 Multipole Moments:

 ------------------------------------------------------------------------------------
     Multipole            Electronic (a.u.)      Nuclear  (a.u.)        Total (a.u.)
 ------------------------------------------------------------------------------------

 L = 1.  Multiply by 2.5417464519 to convert [e a0] to [Debye]
 Dipole X            :          0.0000000            0.0000000            0.0000000
 Dipole Y            :          0.0000000            0.0000000            0.0000000
 Dipole Z            :          0.0000000            0.0000000            0.0000000
 Magnitude           :                                                    0.0000000

 L = 2.  Multiply by 1.3450342976 to convert [e a0^2] to [Debye ang]
 Quadrupole XX       :         -7.1733582            0.0000000           -7.1733582
 Quadrupole XY       :          0.0000000            0.0000000            0.0000000
 Quadrupole XZ       :          0.0000000            0.0000000            0.0000000
 Quadrupole YY       :         -8.3452099            0.0000000           -8.3452099
 Quadrupole YZ       :          0.0000000            0.0000000            0.0000000
 Quadrupole ZZ       :        -19.9336713           10.6336793           -9.2999920
 Traceless XX        :          4.6440549           -3.5445598            1.0994952
 Traceless YY        :          3.4722032           -3.5445598           -0.0723566
 Traceless ZZ        :         -8.1162581            7.0891195           -1.0271386

 ------------------------------------------------------------------------------------
  ==> Computing MBIS Charges <==

  Electron Count from Grid (Expected Number): 12.00000 (12.00000)
  Difference:  0.00000

  MBIS Charges: (a.u.)
   Center  Symbol  Z      Pop.       Charge
      1       C    6    6.000000   -0.000000
      2       C    6    6.000000   -0.000000

  MBIS Dipoles: [e a0]
   Center  Symbol  Z        X           Y           Z
      1       C    6   -0.000000    0.000000    0.042522
      2       C    6   -0.000000    0.000000   -0.042522

  MBIS Quadrupoles: [e a0^2]
   Center  Symbol  Z      XX        XY        XZ        YY        YZ        ZZ
      1       C    6   -3.5867   -0.0000   -0.0000   -4.1726   -0.0000   -4.5699
      2       C    6   -3.5867   -0.0000    0.0000   -4.1726    0.0000   -4.5699

  MBIS Octupoles: [e a0^3]
   Center  Symbol  Z      XXX       XXY       XXZ       XYY       XYZ       XZZ       YYY       YYZ       YZZ       ZZZ
      1       C    6   -0.0000   -0.0000    0.3000   -0.0000    0.0000   -0.0000    0.0000    0.1344    0.0000    0.7210
      2       C    6   -0.0000   -0.0000   -0.3000   -0.0000   -0.0000   -0.0000    0.0000   -0.1344    0.0000   -0.7210

  MBIS Radial Moments:
   Center  Symbol  Z      [a0^2]      [a0^3]      [a0^4]      
      1       C    6   12.329224   29.001652   81.979908
      2       C    6   12.329224   29.001652   81.979908

  MBIS Valence Widths: [a0]
   Center  Symbol  Z     Width
      1       C    6    0.487837
      2       C    6    0.487837

*** tstop() called on Mac.lan at Sun Aug 10 17:03:39 2025
Module time:
	user time   =       3.72 seconds =       0.06 minutes
	system time =       2.59 seconds =       0.04 minutes
	total time  =          1 seconds =       0.02 minutes
Total time:
	user time   =      14.82 seconds =       0.25 minutes
	system time =       4.94 seconds =       0.08 minutes
	total time  =          2 seconds =       0.03 minutes

    Psi4 stopped on: Sunday, 10 August 2025 05:03PM
    Psi4 wall time for execution: 0:00:01.94

*** Psi4 exiting successfully. Buy a developer a beer!
