
    -----------------------------------------------------------------------
          Psi4: An Open-Source Ab Initio Electronic Structure Package
                               Psi4 1.9.1 release

                         Git: Rev {} zzzzzzz 


    D. G. A. Smith, L. A. Burns, A. C. Simmonett, R. M. Parrish,
    M. C. Schieber, R. Galvelis, P. Kraus, H. Kruse, R. Di Remigio,
    A. Alenaizan, A. M. James, S. Lehtola, J. P. Misiewicz, M. Scheurer,
    R. A. Shaw, J. B. Schriber, Y. Xie, Z. L. Glick, D. A. Sirianni,
    J. S. O'Brien, J. M. Waldrop, A. Kumar, E. G. Hohenstein,
    B. P. Pritchard, B. R. Brooks, H. F. Schaefer III, A. Yu. Sokolov,
    K. Patkowski, A. E. DePrince III, U. Bozkaya, R. A. King,
    F. A. Evangelista, J. M. Turney, T. D. Crawford, C. D. Sherrill,
    J. Chem. Phys. 152(18) 184108 (2020). https://doi.org/10.1063/5.0006002

                            Additional Code Authors
    E. T. Seidl, C. L. Janssen, E. F. Valeev, M. L. Leininger,
    J. F. Gonthier, R. M. Richard, H. R. McAlexander, M. Saitow, X. Wang,
    P. Verma, M. H. Lechner, A. Jiang, S. Behnle, A. G. Heide,
    M. F. Herbst, and D. L. Poole

             Previous Authors, Complete List of Code Contributors,
                       and Citations for Specific Modules
    https://github.com/psi4/psi4/blob/master/codemeta.json
    https://github.com/psi4/psi4/graphs/contributors
    http://psicode.org/psi4manual/master/introduction.html#citing-psifour

    -----------------------------------------------------------------------


    Psi4 started on: Sunday, 10 August 2025 05:11PM

    Process ID: 48442
    Host:       Mac.lan
    PSIDATADIR: /Users/joseantoniorodriguesromero/anaconda3/share/psi4
    Memory:     500.0 MiB
    Threads:    1
    
  ==> Input File <==

--------------------------------------------------------------------------
molecule { 
0 2
O           0.000000           0.000000           0.000000
H           0.000000           0.000000           1.229196
}

set { 
basis              cc-pvtz
reference          uks
maxiter            500
DAMPING_PERCENTAGE 1
E_CONVERGENCE      1.0E-8
D_CONVERGENCE      1.0E-8
DIIS_MAX_VECS      400
MBIS_MAXITER       8000
guess              read
}

E, wfn = energy('b3lyp', restart_file='last_wfn', return_wfn=True)
properties('b3lyp','MBIS_CHARGES', wfn=wfn)
wfn.to_file('last_wfn')
--------------------------------------------------------------------------

Scratch directory: /tmp/
 Found user provided orbital data. Setting orbital guess to READ 
 Copying restart file <last_wfn.npy> to </tmp/scan_HO_37.default.48442.180.npy> for internal processing
   => Libint2 <=

    Primary   basis highest AM E, G, H:  6, 6, 3
    Auxiliary basis highest AM E, G, H:  7, 7, 4
    Onebody   basis highest AM E, G, H:  -, -, -
    Solid Harmonics ordering:            Gaussian

*** tstart() called on Mac.lan
*** at Sun Aug 10 17:11:36 2025

   => Loading Basis Set <=

    Name: CC-PVTZ
    Role: ORBITAL
    Keyword: BASIS
    atoms 1 entry O          line   262 file /Users/joseantoniorodriguesromero/anaconda3/share/psi4/basis/cc-pvtz.gbs 
    atoms 2 entry H          line    23 file /Users/joseantoniorodriguesromero/anaconda3/share/psi4/basis/cc-pvtz.gbs 


         ---------------------------------------------------------
                                   SCF
               by Justin Turney, Rob Parrish, Andy Simmonett
                          and Daniel G. A. Smith
                              UKS Reference
                        1 Threads,    500 MiB Core
         ---------------------------------------------------------

  ==> Geometry <==

    Molecular point group: c2v
    Full point group: C_inf_v

    Geometry (in Angstrom), charge = 0, multiplicity = 2:

       Center              X                  Y                   Z               Mass       
    ------------   -----------------  -----------------  -----------------  -----------------
         O            0.000000000000     0.000000000000    -0.072859699301    15.994914619570
         H            0.000000000000     0.000000000000     1.156336300699     1.007825032230

  Running in c2v symmetry.

  Rotational constants: A = ************  B =     11.76809  C =     11.76809 [cm^-1]
  Rotational constants: A = ************  B = 352798.52465  C = 352798.52465 [MHz]
  Nuclear repulsion =    3.444054231676641

  Charge       = 0
  Multiplicity = 2
  Electrons    = 9
  Nalpha       = 5
  Nbeta        = 4

  ==> Algorithm <==

  SCF Algorithm Type is DF.
  DIIS enabled.
  MOM disabled.
  Fractional occupation disabled.
  Guess Type is READ.
  Energy threshold   = 1.00e-08
  Density threshold  = 1.00e-08
  Integral threshold = 1.00e-12

  ==> Primary Basis <==

  Basis Set: CC-PVTZ
    Blend: CC-PVTZ
    Number of shells: 16
    Number of basis functions: 44
    Number of Cartesian functions: 50
    Spherical Harmonics?: true
    Max angular momentum: 3

  ==> DFT Potential <==

   => LibXC <=

    Version 6.2.2
    S. Lehtola, C. Steigemann, M. J.T. Oliveira, and M. A.L. Marques.,  SoftwareX 7, 1–5 (2018) (10.1016/j.softx.2017.11.002)

   => Composite Functional: B3LYP <= 

    B3LYP Hyb-GGA Exchange-Correlation Functional

    P. J. Stephens, F. J. Devlin, C. F. Chabalowski, and M. J. Frisch.,  J. Phys. Chem. 98, 11623 (1994) (10.1021/j100096a001)

    Deriv               =              1
    GGA                 =           TRUE
    Meta                =          FALSE

    Exchange Hybrid     =           TRUE
    MP2 Hybrid          =          FALSE

   => Exchange Functionals <=

    0.0800   Slater exchange
    0.7200         Becke 88

   => Exact (HF) Exchange <=

    0.2000               HF 

   => Correlation Functionals <=

    0.1900   Vosko, Wilk & Nusair (VWN5_RPA)
    0.8100   Lee, Yang & Parr

   => LibXC Density Thresholds  <==

    XC_HYB_GGA_XC_B3LYP:  1.00E-15 

   => Molecular Quadrature <=

    Radial Scheme          =       TREUTLER
    Pruning Scheme         =           NONE
    Nuclear Scheme         =       TREUTLER

    Blocking Scheme        =         OCTREE
    BS radius alpha        =              1
    Pruning alpha          =              1
    Radial Points          =             75
    Spherical Points       =            302
    Total Points           =          44174
    Total Blocks           =            392
    Max Points             =            255
    Max Functions          =             44
    Weights Tolerance      =       1.00E-15

   => Loading Basis Set <=

    Name: (CC-PVTZ AUX)
    Role: JKFIT
    Keyword: DF_BASIS_SCF
    atoms 1 entry O          line   229 file /Users/joseantoniorodriguesromero/anaconda3/share/psi4/basis/cc-pvtz-jkfit.gbs 
    atoms 2 entry H          line    51 file /Users/joseantoniorodriguesromero/anaconda3/share/psi4/basis/cc-pvtz-jkfit.gbs 

   => Loading Basis Set <=

    Name: CC-PVTZ
    Role: ORBITAL
    Keyword: BASIS
    atoms 1 entry O          line   262 file /Users/joseantoniorodriguesromero/anaconda3/share/psi4/basis/cc-pvtz.gbs 
    atoms 2 entry H          line    23 file /Users/joseantoniorodriguesromero/anaconda3/share/psi4/basis/cc-pvtz.gbs 

  Reading orbitals from file /tmp/scan_HO_37.default.48442.180.npy, no projection.

  ==> Integral Setup <==

  DFHelper Memory: AOs need 0.002 GiB; user supplied 0.312 GiB. 
  Using in-core AOs.

  ==> MemDFJK: Density-Fitted J/K Matrices <==

    J tasked:                   Yes
    K tasked:                   Yes
    wK tasked:                   No
    OpenMP threads:               1
    Memory [MiB]:               319
    Algorithm:                 Core
    Schwarz Cutoff:           1E-12
    Mask sparsity (%):       0.0000
    Fitting Condition:        1E-10

   => Auxiliary Basis Set <=

  Basis Set: (CC-PVTZ AUX)
    Blend: CC-PVTZ-JKFIT
    Number of shells: 35
    Number of basis functions: 109
    Number of Cartesian functions: 131
    Spherical Harmonics?: true
    Max angular momentum: 4

  Cached 100.0% of DFT collocation blocks in 0.054 [GiB].

  Minimum eigenvalue in the overlap matrix is 1.1520618746E-02.
  Reciprocal condition number of the overlap matrix is 3.1550944186E-03.
    Using symmetric orthogonalization.

  ==> Pre-Iterations <==

  SCF Guess: Orbitals guess was supplied from a previous computation.

   -------------------------------------------------------
    Irrep   Nso     Nmo     Nalpha   Nbeta   Ndocc  Nsocc
   -------------------------------------------------------
     A1        20      20       3       3       3       0
     A2         4       4       0       0       0       0
     B1        10      10       1       0       0       1
     B2        10      10       1       1       1       0
   -------------------------------------------------------
    Total      44      44       5       4       4       1
   -------------------------------------------------------

  ==> Iterations <==

                           Total Energy        Delta E     RMS |[F,P]|

   @DF-UKS iter   0:   -75.72362846686774   -7.57236e+01   8.34674e-04 
   @DF-UKS iter   1:   -75.73066385019668   -7.03538e-03   2.34107e-04 ADIIS/DIIS
   @DF-UKS iter   2:   -75.73067472271859   -1.08725e-05   1.09029e-04 ADIIS/DIIS/DAMP=1%
   @DF-UKS iter   3:   -75.73067114644030    3.57628e-06   8.79806e-06 DIIS/DAMP=1%
   @DF-UKS iter   4:   -75.73066816240622    2.98403e-06   1.02769e-05 DIIS/DAMP=1%
   @DF-UKS iter   5:   -75.73068299056642   -1.48282e-05   2.54168e-06 DIIS/DAMP=1%
   @DF-UKS iter   6:   -75.73067751929332    5.47127e-06   4.65145e-07 DIIS/DAMP=1%
   @DF-UKS iter   7:   -75.73067765494373   -1.35650e-07   3.48440e-08 DIIS/DAMP=1%
   @DF-UKS iter   8:   -75.73067757479431    8.01494e-08   5.06754e-09 DIIS/DAMP=1%
   @DF-UKS iter   9:   -75.73067757371903    1.07528e-09   1.21962e-09 DIIS/DAMP=1%
  Energy and wave function converged.


  ==> Post-Iterations <==

   Electrons on quadrature grid:
      Nalpha   =    5.0000000622 ; deviation = 6.222e-08
      Nbeta    =    4.0000000332 ; deviation = 3.315e-08
      Ntotal   =    9.0000000954 ; deviation = 9.538e-08 

   @Spin Contamination Metric:   4.746386135E-03
   @S^2 Expected:                7.500000000E-01
   @S^2 Observed:                7.547463861E-01
   @S   Expected:                5.000000000E-01
   @S   Observed:                5.000000000E-01

    Orbital Energies [Eh]
    ---------------------

    Alpha Occupied:                                                       

       1A1   -19.211130     2A1    -0.970955     3A1    -0.440833  
       1B1    -0.409627     1B2    -0.336212  

    Alpha Virtual:                                                        

       4A1    -0.034890     5A1     0.273445     2B1     0.508901  
       2B2     0.539569     6A1     0.552047     3B1     0.675135  
       3B2     0.691412     7A1     0.883746     8A1     1.070164  
       1A2     1.430634     9A1     1.431391     4B1     1.601925  
       4B2     1.639769    10A1     2.062869    11A1     2.299049  
       2A2     3.150254    12A1     3.150321     5B1     3.218898  
       5B2     3.247933    13A1     3.304890     6B1     3.617848  
       6B2     3.638440     7B1     3.750414     7B2     3.788681  
      14A1     3.853456    15A1     4.769377     8B1     5.076412  
       8B2     5.076671     3A2     5.143906    16A1     5.145762  
       9B1     5.609563     9B2     5.658029    17A1     6.008515  
      18A1     6.127231     4A2     6.127703    10B1     6.385156  
      10B2     6.442117    19A1     6.845218    20A1     8.198951  

    Beta Occupied:                                                        

       1A1   -19.184665     2A1    -0.893708     3A1    -0.418971  
       1B2    -0.309906  

    Beta Virtual:                                                         

       1B1    -0.160589     4A1    -0.026302     5A1     0.272620  
       2B2     0.546056     6A1     0.563584     2B1     0.566520  
       3B2     0.690862     3B1     0.696651     7A1     0.911453  
       8A1     1.079978     1A2     1.483019     9A1     1.489069  
       4B2     1.646468     4B1     1.653303    10A1     2.084353  
      11A1     2.288047     2A2     3.144783    12A1     3.145052  
       5B2     3.249675     5B1     3.259572    13A1     3.313149  
       6B2     3.632150     6B1     3.636041     7B2     3.797916  
       7B1     3.815274    14A1     3.857537    15A1     4.793010  
       8B2     5.146766     8B1     5.149770     3A2     5.191487  
      16A1     5.196691     9B2     5.668506     9B1     5.676458  
      17A1     6.035543     4A2     6.220872    18A1     6.235380  
      10B2     6.457102    10B1     6.477523    19A1     6.888368  
      20A1     8.236639  

    Final Occupation by Irrep:
             A1    A2    B1    B2 
    DOCC [     3,    0,    0,    1 ]
    SOCC [     0,    0,    1,    0 ]
    NA   [     3,    0,    1,    1 ]
    NB   [     3,    0,    0,    1 ]

  @DF-UKS Final Energy:   -75.73067757371903

   => Energetics <=

    Nuclear Repulsion Energy =              3.4440542316766409
    One-Electron Energy =                -111.0555405492813463
    Two-Electron Energy =                  38.9984452760649631
    DFT Exchange-Correlation Energy =      -7.1176365321792900
    Empirical Dispersion Energy =           0.0000000000000000
    VV10 Nonlocal Energy =                  0.0000000000000000
    Total Energy =                        -75.7306775737190208

  UHF NO Occupations:
  HONO-2 :    2 A1 1.9994719
  HONO-1 :    3 A1 1.9983244
  HONO-0 :    1 B1 1.0000000
  LUNO+0 :    4 A1 0.0016756
  LUNO+1 :    5 A1 0.0005281
  LUNO+2 :    2 B2 0.0001705
  LUNO+3 :    6 A1 0.0000006


Computation Completed


Properties will be evaluated at   0.000000,   0.000000,   0.000000 [a0]

Properties computed using the SCF density matrix


 Multipole Moments:

 ------------------------------------------------------------------------------------
     Multipole            Electronic (a.u.)      Nuclear  (a.u.)        Total (a.u.)
 ------------------------------------------------------------------------------------

 L = 1.  Multiply by 2.5417464519 to convert [e a0] to [Debye]
 Dipole X            :          0.0000000            0.0000000            0.0000000
 Dipole Y            :          0.0000000            0.0000000            0.0000000
 Dipole Z            :         -0.3878598            1.0836799            0.6958201
 Magnitude           :                                                    0.6958201

 ------------------------------------------------------------------------------------

*** tstop() called on Mac.lan at Sun Aug 10 17:11:37 2025
Module time:
	user time   =       9.11 seconds =       0.15 minutes
	system time =       2.25 seconds =       0.04 minutes
	total time  =          1 seconds =       0.02 minutes
Total time:
	user time   =       9.11 seconds =       0.15 minutes
	system time =       2.25 seconds =       0.04 minutes
	total time  =          1 seconds =       0.02 minutes

*** tstart() called on Mac.lan
*** at Sun Aug 10 17:11:37 2025

   => Libint2 <=

    Primary   basis highest AM E, G, H:  6, 6, 3
    Auxiliary basis highest AM E, G, H:  7, 7, 4
    Onebody   basis highest AM E, G, H:  -, -, -
    Solid Harmonics ordering:            Gaussian
   => Loading Basis Set <=

    Name: CC-PVTZ
    Role: ORBITAL
    Keyword: BASIS
    atoms 1 entry O          line   262 file /Users/joseantoniorodriguesromero/anaconda3/share/psi4/basis/cc-pvtz.gbs 
    atoms 2 entry H          line    23 file /Users/joseantoniorodriguesromero/anaconda3/share/psi4/basis/cc-pvtz.gbs 


         ---------------------------------------------------------
                                   SCF
               by Justin Turney, Rob Parrish, Andy Simmonett
                          and Daniel G. A. Smith
                              UKS Reference
                        1 Threads,    500 MiB Core
         ---------------------------------------------------------

  ==> Geometry <==

    Molecular point group: c2v
    Full point group: C_inf_v

    Geometry (in Angstrom), charge = 0, multiplicity = 2:

       Center              X                  Y                   Z               Mass       
    ------------   -----------------  -----------------  -----------------  -----------------
         O            0.000000000000     0.000000000000    -0.072859699301    15.994914619570
         H            0.000000000000     0.000000000000     1.156336300699     1.007825032230

  Running in c2v symmetry.

  Rotational constants: A = ************  B =     11.76809  C =     11.76809 [cm^-1]
  Rotational constants: A = ************  B = 352798.52465  C = 352798.52465 [MHz]
  Nuclear repulsion =    3.444054231676641

  Charge       = 0
  Multiplicity = 2
  Electrons    = 9
  Nalpha       = 5
  Nbeta        = 4

  ==> Algorithm <==

  SCF Algorithm Type is DF.
  DIIS enabled.
  MOM disabled.
  Fractional occupation disabled.
  Guess Type is READ.
  Energy threshold   = 1.00e-08
  Density threshold  = 1.00e-08
  Integral threshold = 1.00e-12

  ==> Primary Basis <==

  Basis Set: CC-PVTZ
    Blend: CC-PVTZ
    Number of shells: 16
    Number of basis functions: 44
    Number of Cartesian functions: 50
    Spherical Harmonics?: true
    Max angular momentum: 3

  ==> DFT Potential <==

   => LibXC <=

    Version 6.2.2
    S. Lehtola, C. Steigemann, M. J.T. Oliveira, and M. A.L. Marques.,  SoftwareX 7, 1–5 (2018) (10.1016/j.softx.2017.11.002)

   => Composite Functional: B3LYP <= 

    B3LYP Hyb-GGA Exchange-Correlation Functional

    P. J. Stephens, F. J. Devlin, C. F. Chabalowski, and M. J. Frisch.,  J. Phys. Chem. 98, 11623 (1994) (10.1021/j100096a001)

    Deriv               =              1
    GGA                 =           TRUE
    Meta                =          FALSE

    Exchange Hybrid     =           TRUE
    MP2 Hybrid          =          FALSE

   => Exchange Functionals <=

    0.0800   Slater exchange
    0.7200         Becke 88

   => Exact (HF) Exchange <=

    0.2000               HF 

   => Correlation Functionals <=

    0.1900   Vosko, Wilk & Nusair (VWN5_RPA)
    0.8100   Lee, Yang & Parr

   => LibXC Density Thresholds  <==

    XC_HYB_GGA_XC_B3LYP:  1.00E-15 

   => Molecular Quadrature <=

    Radial Scheme          =       TREUTLER
    Pruning Scheme         =           NONE
    Nuclear Scheme         =       TREUTLER

    Blocking Scheme        =         OCTREE
    BS radius alpha        =              1
    Pruning alpha          =              1
    Radial Points          =             75
    Spherical Points       =            302
    Total Points           =          44174
    Total Blocks           =            392
    Max Points             =            255
    Max Functions          =             44
    Weights Tolerance      =       1.00E-15

   => Loading Basis Set <=

    Name: (CC-PVTZ AUX)
    Role: JKFIT
    Keyword: DF_BASIS_SCF
    atoms 1 entry O          line   229 file /Users/joseantoniorodriguesromero/anaconda3/share/psi4/basis/cc-pvtz-jkfit.gbs 
    atoms 2 entry H          line    51 file /Users/joseantoniorodriguesromero/anaconda3/share/psi4/basis/cc-pvtz-jkfit.gbs 

   => Loading Basis Set <=

    Name: CC-PVTZ
    Role: ORBITAL
    Keyword: BASIS
    atoms 1 entry O          line   262 file /Users/joseantoniorodriguesromero/anaconda3/share/psi4/basis/cc-pvtz.gbs 
    atoms 2 entry H          line    23 file /Users/joseantoniorodriguesromero/anaconda3/share/psi4/basis/cc-pvtz.gbs 

  Reading orbitals from file /tmp/scan_HO_37.default.48442.180.npy, no projection.

  ==> Integral Setup <==

  DFHelper Memory: AOs need 0.002 GiB; user supplied 0.312 GiB. 
  Using in-core AOs.

  ==> MemDFJK: Density-Fitted J/K Matrices <==

    J tasked:                   Yes
    K tasked:                   Yes
    wK tasked:                   No
    OpenMP threads:               1
    Memory [MiB]:               319
    Algorithm:                 Core
    Schwarz Cutoff:           1E-12
    Mask sparsity (%):       0.0000
    Fitting Condition:        1E-10

   => Auxiliary Basis Set <=

  Basis Set: (CC-PVTZ AUX)
    Blend: CC-PVTZ-JKFIT
    Number of shells: 35
    Number of basis functions: 109
    Number of Cartesian functions: 131
    Spherical Harmonics?: true
    Max angular momentum: 4

  Cached 100.0% of DFT collocation blocks in 0.054 [GiB].

  Minimum eigenvalue in the overlap matrix is 1.1520618746E-02.
  Reciprocal condition number of the overlap matrix is 3.1550944186E-03.
    Using symmetric orthogonalization.

  ==> Pre-Iterations <==

  SCF Guess: Orbitals guess was supplied from a previous computation.

   -------------------------------------------------------
    Irrep   Nso     Nmo     Nalpha   Nbeta   Ndocc  Nsocc
   -------------------------------------------------------
     A1        20      20       3       3       3       0
     A2         4       4       0       0       0       0
     B1        10      10       1       0       0       1
     B2        10      10       1       1       1       0
   -------------------------------------------------------
    Total      44      44       5       4       4       1
   -------------------------------------------------------

  ==> Iterations <==

                           Total Energy        Delta E     RMS |[F,P]|

   @DF-UKS iter   0:   -75.73067757598758   -7.57307e+01   1.34611e-10 
   @DF-UKS iter   1:   -75.73067757598756    2.84217e-14   1.23623e-10 DIIS
  Energy and wave function converged.


  ==> Post-Iterations <==

   Electrons on quadrature grid:
      Nalpha   =    5.0000000622 ; deviation = 6.222e-08
      Nbeta    =    4.0000000332 ; deviation = 3.315e-08
      Ntotal   =    9.0000000954 ; deviation = 9.538e-08 

   @Spin Contamination Metric:   4.746387501E-03
   @S^2 Expected:                7.500000000E-01
   @S^2 Observed:                7.547463875E-01
   @S   Expected:                5.000000000E-01
   @S   Observed:                5.000000000E-01

    Orbital Energies [Eh]
    ---------------------

    Alpha Occupied:                                                       

       1A1   -19.211130     2A1    -0.970955     3A1    -0.440833  
       1B1    -0.409627     1B2    -0.336212  

    Alpha Virtual:                                                        

       4A1    -0.034890     5A1     0.273445     2B1     0.508901  
       2B2     0.539569     6A1     0.552047     3B1     0.675135  
       3B2     0.691412     7A1     0.883746     8A1     1.070164  
       1A2     1.430634     9A1     1.431391     4B1     1.601925  
       4B2     1.639769    10A1     2.062869    11A1     2.299049  
       2A2     3.150254    12A1     3.150321     5B1     3.218898  
       5B2     3.247933    13A1     3.304890     6B1     3.617848  
       6B2     3.638440     7B1     3.750414     7B2     3.788681  
      14A1     3.853456    15A1     4.769377     8B1     5.076412  
       8B2     5.076671     3A2     5.143906    16A1     5.145762  
       9B1     5.609563     9B2     5.658029    17A1     6.008515  
      18A1     6.127231     4A2     6.127703    10B1     6.385156  
      10B2     6.442117    19A1     6.845218    20A1     8.198951  

    Beta Occupied:                                                        

       1A1   -19.184665     2A1    -0.893708     3A1    -0.418971  
       1B2    -0.309906  

    Beta Virtual:                                                         

       1B1    -0.160589     4A1    -0.026302     5A1     0.272620  
       2B2     0.546056     6A1     0.563584     2B1     0.566520  
       3B2     0.690862     3B1     0.696651     7A1     0.911453  
       8A1     1.079978     1A2     1.483019     9A1     1.489069  
       4B2     1.646468     4B1     1.653303    10A1     2.084353  
      11A1     2.288047     2A2     3.144783    12A1     3.145052  
       5B2     3.249675     5B1     3.259572    13A1     3.313149  
       6B2     3.632150     6B1     3.636041     7B2     3.797916  
       7B1     3.815274    14A1     3.857537    15A1     4.793010  
       8B2     5.146766     8B1     5.149770     3A2     5.191487  
      16A1     5.196691     9B2     5.668506     9B1     5.676458  
      17A1     6.035543     4A2     6.220872    18A1     6.235380  
      10B2     6.457102    10B1     6.477523    19A1     6.888368  
      20A1     8.236639  

    Final Occupation by Irrep:
             A1    A2    B1    B2 
    DOCC [     3,    0,    0,    1 ]
    SOCC [     0,    0,    1,    0 ]
    NA   [     3,    0,    1,    1 ]
    NB   [     3,    0,    0,    1 ]

  @DF-UKS Final Energy:   -75.73067757598756

   => Energetics <=

    Nuclear Repulsion Energy =              3.4440542316766409
    One-Electron Energy =                -111.0555404440488303
    Two-Electron Energy =                  38.9984451587371055
    DFT Exchange-Correlation Energy =      -7.1176365223524787
    Empirical Dispersion Energy =           0.0000000000000000
    VV10 Nonlocal Energy =                  0.0000000000000000
    Total Energy =                        -75.7306775759875563

  UHF NO Occupations:
  HONO-2 :    2 A1 1.9994719
  HONO-1 :    3 A1 1.9983244
  HONO-0 :    1 B1 1.0000000
  LUNO+0 :    4 A1 0.0016756
  LUNO+1 :    5 A1 0.0005281
  LUNO+2 :    2 B2 0.0001705
  LUNO+3 :    6 A1 0.0000006


Computation Completed


Properties will be evaluated at   0.000000,   0.000000,   0.000000 [a0]

Properties computed using the B3LYP density matrix


 Multipole Moments:

 ------------------------------------------------------------------------------------
     Multipole            Electronic (a.u.)      Nuclear  (a.u.)        Total (a.u.)
 ------------------------------------------------------------------------------------

 L = 1.  Multiply by 2.5417464519 to convert [e a0] to [Debye]
 Dipole X            :          0.0000000            0.0000000            0.0000000
 Dipole Y            :          0.0000000            0.0000000            0.0000000
 Dipole Z            :         -0.3878598            1.0836799            0.6958201
 Magnitude           :                                                    0.6958201

 L = 2.  Multiply by 1.3450342976 to convert [e a0^2] to [Debye ang]
 Quadrupole XX       :         -4.1839905            0.0000000           -4.1839905
 Quadrupole XY       :          0.0000000            0.0000000            0.0000000
 Quadrupole XZ       :          0.0000000            0.0000000            0.0000000
 Quadrupole YY       :         -5.0825890            0.0000000           -5.0825890
 Quadrupole YZ       :          0.0000000            0.0000000            0.0000000
 Quadrupole ZZ       :         -7.7862903            4.9265765           -2.8597138
 Traceless XX        :          1.5002995           -1.6421922           -0.1418927
 Traceless YY        :          0.6017009           -1.6421922           -1.0404912
 Traceless ZZ        :         -2.1020004            3.2843843            1.1823840

 ------------------------------------------------------------------------------------
  ==> Computing MBIS Charges <==

  Electron Count from Grid (Expected Number):  9.00000 ( 9.00000)
  Difference:  0.00000

  MBIS Charges: (a.u.)
   Center  Symbol  Z      Pop.       Charge
      1       O    8    8.324700   -0.324700
      2       H    1    0.675300    0.324700

  MBIS Dipoles: [e a0]
   Center  Symbol  Z        X           Y           Z
      1       O    8   -0.000000   -0.000000   -0.109958
      2       H    1   -0.000000   -0.000000    0.051550

  MBIS Quadrupoles: [e a0^2]
   Center  Symbol  Z      XX        XY        XZ        YY        YZ        ZZ
      1       O    8   -3.7350    0.0000   -0.0000   -4.5920   -0.0000   -4.2209
      2       H    1   -0.4490   -0.0000   -0.0000   -0.4905    0.0000   -0.4386

  MBIS Octupoles: [e a0^3]
   Center  Symbol  Z      XXX       XXY       XXZ       XYY       XYZ       XZZ       YYY       YYZ       YZZ       ZZZ
      1       O    8   -0.0000   -0.0000   -0.1375    0.0000    0.0000    0.0000   -0.0000   -0.1286    0.0000   -0.5485
      2       H    1    0.0000    0.0000    0.0016    0.0000   -0.0000   -0.0000   -0.0000    0.0327   -0.0000    0.0630

  MBIS Radial Moments:
   Center  Symbol  Z      [a0^2]      [a0^3]      [a0^4]      
      1       O    8   12.547990   24.280967   56.148776
      2       H    1    1.378136    2.819430    6.900283

  MBIS Valence Widths: [a0]
   Center  Symbol  Z     Width
      1       O    8    0.397260
      2       H    1    0.414105

*** tstop() called on Mac.lan at Sun Aug 10 17:11:38 2025
Module time:
	user time   =       2.76 seconds =       0.05 minutes
	system time =       2.28 seconds =       0.04 minutes
	total time  =          1 seconds =       0.02 minutes
Total time:
	user time   =      11.97 seconds =       0.20 minutes
	system time =       4.63 seconds =       0.08 minutes
	total time  =          2 seconds =       0.03 minutes

    Psi4 stopped on: Sunday, 10 August 2025 05:11PM
    Psi4 wall time for execution: 0:00:01.62

*** Psi4 exiting successfully. Buy a developer a beer!
