
    -----------------------------------------------------------------------
          Psi4: An Open-Source Ab Initio Electronic Structure Package
                               Psi4 1.9.1 release

                         Git: Rev {} zzzzzzz 


    D. G. A. Smith, L. A. Burns, A. C. Simmonett, R. M. Parrish,
    M. C. Schieber, R. Galvelis, P. Kraus, H. Kruse, R. Di Remigio,
    A. Alenaizan, A. M. James, S. Lehtola, J. P. Misiewicz, M. Scheurer,
    R. A. Shaw, J. B. Schriber, Y. Xie, Z. L. Glick, D. A. Sirianni,
    J. S. O'Brien, J. M. Waldrop, A. Kumar, E. G. Hohenstein,
    B. P. Pritchard, B. R. Brooks, H. F. Schaefer III, A. Yu. Sokolov,
    K. Patkowski, A. E. DePrince III, U. Bozkaya, R. A. King,
    F. A. Evangelista, J. M. Turney, T. D. Crawford, C. D. Sherrill,
    J. Chem. Phys. 152(18) 184108 (2020). https://doi.org/10.1063/5.0006002

                            Additional Code Authors
    E. T. Seidl, C. L. Janssen, E. F. Valeev, M. L. Leininger,
    J. F. Gonthier, R. M. Richard, H. R. McAlexander, M. Saitow, X. Wang,
    P. Verma, M. H. Lechner, A. Jiang, S. Behnle, A. G. Heide,
    M. F. Herbst, and D. L. Poole

             Previous Authors, Complete List of Code Contributors,
                       and Citations for Specific Modules
    https://github.com/psi4/psi4/blob/master/codemeta.json
    https://github.com/psi4/psi4/graphs/contributors
    http://psicode.org/psi4manual/master/introduction.html#citing-psifour

    -----------------------------------------------------------------------


    Psi4 started on: Sunday, 10 August 2025 05:11PM

    Process ID: 48438
    Host:       Mac.lan
    PSIDATADIR: /Users/joseantoniorodriguesromero/anaconda3/share/psi4
    Memory:     500.0 MiB
    Threads:    1
    
  ==> Input File <==

--------------------------------------------------------------------------
molecule { 
0 2
O           0.000000           0.000000           0.000000
H           0.000000           0.000000           1.157593
}

set { 
basis              cc-pvtz
reference          uks
maxiter            500
DAMPING_PERCENTAGE 1
E_CONVERGENCE      1.0E-8
D_CONVERGENCE      1.0E-8
DIIS_MAX_VECS      400
MBIS_MAXITER       8000
guess              read
}

E, wfn = energy('b3lyp', restart_file='last_wfn', return_wfn=True)
properties('b3lyp','MBIS_CHARGES', wfn=wfn)
wfn.to_file('last_wfn')
--------------------------------------------------------------------------

Scratch directory: /tmp/
 Found user provided orbital data. Setting orbital guess to READ 
 Copying restart file <last_wfn.npy> to </tmp/scan_HO_33.default.48438.180.npy> for internal processing
   => Libint2 <=

    Primary   basis highest AM E, G, H:  6, 6, 3
    Auxiliary basis highest AM E, G, H:  7, 7, 4
    Onebody   basis highest AM E, G, H:  -, -, -
    Solid Harmonics ordering:            Gaussian

*** tstart() called on Mac.lan
*** at Sun Aug 10 17:11:28 2025

   => Loading Basis Set <=

    Name: CC-PVTZ
    Role: ORBITAL
    Keyword: BASIS
    atoms 1 entry O          line   262 file /Users/joseantoniorodriguesromero/anaconda3/share/psi4/basis/cc-pvtz.gbs 
    atoms 2 entry H          line    23 file /Users/joseantoniorodriguesromero/anaconda3/share/psi4/basis/cc-pvtz.gbs 


         ---------------------------------------------------------
                                   SCF
               by Justin Turney, Rob Parrish, Andy Simmonett
                          and Daniel G. A. Smith
                              UKS Reference
                        1 Threads,    500 MiB Core
         ---------------------------------------------------------

  ==> Geometry <==

    Molecular point group: c2v
    Full point group: C_inf_v

    Geometry (in Angstrom), charge = 0, multiplicity = 2:

       Center              X                  Y                   Z               Mass       
    ------------   -----------------  -----------------  -----------------  -----------------
         O            0.000000000000     0.000000000000    -0.068615483529    15.994914619570
         H            0.000000000000     0.000000000000     1.088977516471     1.007825032230

  Running in c2v symmetry.

  Rotational constants: A = ************  B =     13.26895  C =     13.26895 [cm^-1]
  Rotational constants: A = ************  B = 397793.10677  C = 397793.10677 [MHz]
  Nuclear repulsion =    3.657086459023163

  Charge       = 0
  Multiplicity = 2
  Electrons    = 9
  Nalpha       = 5
  Nbeta        = 4

  ==> Algorithm <==

  SCF Algorithm Type is DF.
  DIIS enabled.
  MOM disabled.
  Fractional occupation disabled.
  Guess Type is READ.
  Energy threshold   = 1.00e-08
  Density threshold  = 1.00e-08
  Integral threshold = 1.00e-12

  ==> Primary Basis <==

  Basis Set: CC-PVTZ
    Blend: CC-PVTZ
    Number of shells: 16
    Number of basis functions: 44
    Number of Cartesian functions: 50
    Spherical Harmonics?: true
    Max angular momentum: 3

  ==> DFT Potential <==

   => LibXC <=

    Version 6.2.2
    S. Lehtola, C. Steigemann, M. J.T. Oliveira, and M. A.L. Marques.,  SoftwareX 7, 1–5 (2018) (10.1016/j.softx.2017.11.002)

   => Composite Functional: B3LYP <= 

    B3LYP Hyb-GGA Exchange-Correlation Functional

    P. J. Stephens, F. J. Devlin, C. F. Chabalowski, and M. J. Frisch.,  J. Phys. Chem. 98, 11623 (1994) (10.1021/j100096a001)

    Deriv               =              1
    GGA                 =           TRUE
    Meta                =          FALSE

    Exchange Hybrid     =           TRUE
    MP2 Hybrid          =          FALSE

   => Exchange Functionals <=

    0.0800   Slater exchange
    0.7200         Becke 88

   => Exact (HF) Exchange <=

    0.2000               HF 

   => Correlation Functionals <=

    0.1900   Vosko, Wilk & Nusair (VWN5_RPA)
    0.8100   Lee, Yang & Parr

   => LibXC Density Thresholds  <==

    XC_HYB_GGA_XC_B3LYP:  1.00E-15 

   => Molecular Quadrature <=

    Radial Scheme          =       TREUTLER
    Pruning Scheme         =           NONE
    Nuclear Scheme         =       TREUTLER

    Blocking Scheme        =         OCTREE
    BS radius alpha        =              1
    Pruning alpha          =              1
    Radial Points          =             75
    Spherical Points       =            302
    Total Points           =          44160
    Total Blocks           =            391
    Max Points             =            256
    Max Functions          =             44
    Weights Tolerance      =       1.00E-15

   => Loading Basis Set <=

    Name: (CC-PVTZ AUX)
    Role: JKFIT
    Keyword: DF_BASIS_SCF
    atoms 1 entry O          line   229 file /Users/joseantoniorodriguesromero/anaconda3/share/psi4/basis/cc-pvtz-jkfit.gbs 
    atoms 2 entry H          line    51 file /Users/joseantoniorodriguesromero/anaconda3/share/psi4/basis/cc-pvtz-jkfit.gbs 

   => Loading Basis Set <=

    Name: CC-PVTZ
    Role: ORBITAL
    Keyword: BASIS
    atoms 1 entry O          line   262 file /Users/joseantoniorodriguesromero/anaconda3/share/psi4/basis/cc-pvtz.gbs 
    atoms 2 entry H          line    23 file /Users/joseantoniorodriguesromero/anaconda3/share/psi4/basis/cc-pvtz.gbs 

  Reading orbitals from file /tmp/scan_HO_33.default.48438.180.npy, no projection.

  ==> Integral Setup <==

  DFHelper Memory: AOs need 0.002 GiB; user supplied 0.312 GiB. 
  Using in-core AOs.

  ==> MemDFJK: Density-Fitted J/K Matrices <==

    J tasked:                   Yes
    K tasked:                   Yes
    wK tasked:                   No
    OpenMP threads:               1
    Memory [MiB]:               319
    Algorithm:                 Core
    Schwarz Cutoff:           1E-12
    Mask sparsity (%):       0.0000
    Fitting Condition:        1E-10

   => Auxiliary Basis Set <=

  Basis Set: (CC-PVTZ AUX)
    Blend: CC-PVTZ-JKFIT
    Number of shells: 35
    Number of basis functions: 109
    Number of Cartesian functions: 131
    Spherical Harmonics?: true
    Max angular momentum: 4

  Cached 100.0% of DFT collocation blocks in 0.054 [GiB].

  Minimum eigenvalue in the overlap matrix is 8.6309045472E-03.
  Reciprocal condition number of the overlap matrix is 2.3073136864E-03.
    Using symmetric orthogonalization.

  ==> Pre-Iterations <==

  SCF Guess: Orbitals guess was supplied from a previous computation.

   -------------------------------------------------------
    Irrep   Nso     Nmo     Nalpha   Nbeta   Ndocc  Nsocc
   -------------------------------------------------------
     A1        20      20       3       3       3       0
     A2         4       4       0       0       0       0
     B1        10      10       1       0       0       1
     B2        10      10       1       1       1       0
   -------------------------------------------------------
    Total      44      44       5       4       4       1
   -------------------------------------------------------

  ==> Iterations <==

                           Total Energy        Delta E     RMS |[F,P]|

   @DF-UKS iter   0:   -75.73655448427553   -7.57366e+01   9.64860e-04 
   @DF-UKS iter   1:   -75.74427693567122   -7.72245e-03   2.42273e-04 DIIS/ADIIS
   @DF-UKS iter   2:   -75.74428831198490   -1.13763e-05   1.13162e-04 DIIS/ADIIS/DAMP=1%
   @DF-UKS iter   3:   -75.74426096044544    2.73515e-05   1.26193e-05 DIIS/DAMP=1%
   @DF-UKS iter   4:   -75.74430134274820   -4.03823e-05   7.97331e-06 DIIS/DAMP=1%
   @DF-UKS iter   5:   -75.74428636849996    1.49742e-05   1.88371e-06 DIIS/DAMP=1%
   @DF-UKS iter   6:   -75.74429179251389   -5.42401e-06   3.63822e-07 DIIS/DAMP=1%
   @DF-UKS iter   7:   -75.74429101643366    7.76080e-07   3.72442e-08 DIIS/DAMP=1%
   @DF-UKS iter   8:   -75.74429111838407   -1.01950e-07   5.34050e-09 DIIS/DAMP=1%
   @DF-UKS iter   9:   -75.74429110071233    1.76717e-08   5.05674e-10 DIIS/DAMP=1%
   @DF-UKS iter  10:   -75.74429110330817   -2.59584e-09   7.19866e-11 DIIS/DAMP=1%
  Energy and wave function converged.


  ==> Post-Iterations <==

   Electrons on quadrature grid:
      Nalpha   =    5.0000000611 ; deviation = 6.106e-08
      Nbeta    =    4.0000000339 ; deviation = 3.388e-08
      Ntotal   =    9.0000000949 ; deviation = 9.494e-08 

   @Spin Contamination Metric:   3.478833760E-03
   @S^2 Expected:                7.500000000E-01
   @S^2 Observed:                7.534788338E-01
   @S   Expected:                5.000000000E-01
   @S   Observed:                5.000000000E-01

    Orbital Energies [Eh]
    ---------------------

    Alpha Occupied:                                                       

       1A1   -19.207594     2A1    -0.980015     3A1    -0.450582  
       1B1    -0.410907     1B2    -0.337692  

    Alpha Virtual:                                                        

       4A1    -0.014949     5A1     0.290940     2B1     0.514594  
       6A1     0.542309     2B2     0.546877     3B1     0.677058  
       3B2     0.692930     7A1     0.900721     8A1     1.094946  
       1A2     1.427469     9A1     1.428151     4B1     1.636870  
       4B2     1.674881    10A1     2.046474    11A1     2.301752  
       2A2     3.152898    12A1     3.152989     5B1     3.234406  
       5B2     3.266624    13A1     3.415449     6B1     3.618618  
       6B2     3.640182     7B1     3.821784     7B2     3.859127  
      14A1     3.915050    15A1     4.784617     8B1     5.075047  
       8B2     5.075300     3A2     5.180940    16A1     5.182524  
       9B1     5.771287     9B2     5.820253    17A1     6.081277  
      18A1     6.131187     4A2     6.131737    10B1     6.421851  
      10B2     6.477347    19A1     6.809981    20A1     8.654718  

    Beta Occupied:                                                        

       1A1   -19.181543     2A1    -0.904799     3A1    -0.428044  
       1B2    -0.311703  

    Beta Virtual:                                                         

       1B1    -0.162657     4A1    -0.006581     5A1     0.292303  
       6A1     0.552588     2B2     0.554738     2B1     0.577176  
       3B2     0.692301     3B1     0.696278     7A1     0.932310  
       8A1     1.101852     1A2     1.479709     9A1     1.485721  
       4B2     1.681291     4B1     1.687772    10A1     2.065299  
      11A1     2.296439     2A2     3.150845    12A1     3.151207  
       5B2     3.270407     5B1     3.282196    13A1     3.422690  
       6B2     3.637225     6B1     3.642770     7B2     3.867357  
       7B1     3.880860    14A1     3.923832    15A1     4.810319  
       8B2     5.145282     8B1     5.148282     3A2     5.227644  
      16A1     5.232784     9B2     5.830620     9B1     5.840143  
      17A1     6.107623     4A2     6.224534    18A1     6.238943  
      10B2     6.490447    10B1     6.508541    19A1     6.849577  
      20A1     8.690951  

    Final Occupation by Irrep:
             A1    A2    B1    B2 
    DOCC [     3,    0,    0,    1 ]
    SOCC [     0,    0,    1,    0 ]
    NA   [     3,    0,    1,    1 ]
    NB   [     3,    0,    0,    1 ]

  @DF-UKS Final Energy:   -75.74429110330817

   => Energetics <=

    Nuclear Repulsion Energy =              3.6570864590231627
    One-Electron Energy =                -111.4602389482040792
    Two-Electron Energy =                  39.1936300248721139
    DFT Exchange-Correlation Energy =      -7.1347686389993701
    Empirical Dispersion Energy =           0.0000000000000000
    VV10 Nonlocal Energy =                  0.0000000000000000
    Total Energy =                        -75.7442911033081856

  UHF NO Occupations:
  HONO-2 :    2 A1 1.9995060
  HONO-1 :    3 A1 1.9989199
  HONO-0 :    1 B1 1.0000000
  LUNO+0 :    4 A1 0.0010801
  LUNO+1 :    5 A1 0.0004940
  LUNO+2 :    2 B2 0.0001656
  LUNO+3 :    6 A1 0.0000006


Computation Completed


Properties will be evaluated at   0.000000,   0.000000,   0.000000 [a0]

Properties computed using the SCF density matrix


 Multipole Moments:

 ------------------------------------------------------------------------------------
     Multipole            Electronic (a.u.)      Nuclear  (a.u.)        Total (a.u.)
 ------------------------------------------------------------------------------------

 L = 1.  Multiply by 2.5417464519 to convert [e a0] to [Debye]
 Dipole X            :          0.0000000            0.0000000            0.0000000
 Dipole Y            :          0.0000000            0.0000000            0.0000000
 Dipole Z            :         -0.3311691            1.0205535            0.6893844
 Magnitude           :                                                    0.6893844

 ------------------------------------------------------------------------------------

*** tstop() called on Mac.lan at Sun Aug 10 17:11:29 2025
Module time:
	user time   =       9.94 seconds =       0.17 minutes
	system time =       2.02 seconds =       0.03 minutes
	total time  =          1 seconds =       0.02 minutes
Total time:
	user time   =       9.94 seconds =       0.17 minutes
	system time =       2.02 seconds =       0.03 minutes
	total time  =          1 seconds =       0.02 minutes

*** tstart() called on Mac.lan
*** at Sun Aug 10 17:11:29 2025

   => Libint2 <=

    Primary   basis highest AM E, G, H:  6, 6, 3
    Auxiliary basis highest AM E, G, H:  7, 7, 4
    Onebody   basis highest AM E, G, H:  -, -, -
    Solid Harmonics ordering:            Gaussian
   => Loading Basis Set <=

    Name: CC-PVTZ
    Role: ORBITAL
    Keyword: BASIS
    atoms 1 entry O          line   262 file /Users/joseantoniorodriguesromero/anaconda3/share/psi4/basis/cc-pvtz.gbs 
    atoms 2 entry H          line    23 file /Users/joseantoniorodriguesromero/anaconda3/share/psi4/basis/cc-pvtz.gbs 


         ---------------------------------------------------------
                                   SCF
               by Justin Turney, Rob Parrish, Andy Simmonett
                          and Daniel G. A. Smith
                              UKS Reference
                        1 Threads,    500 MiB Core
         ---------------------------------------------------------

  ==> Geometry <==

    Molecular point group: c2v
    Full point group: C_inf_v

    Geometry (in Angstrom), charge = 0, multiplicity = 2:

       Center              X                  Y                   Z               Mass       
    ------------   -----------------  -----------------  -----------------  -----------------
         O            0.000000000000     0.000000000000    -0.068615483529    15.994914619570
         H            0.000000000000     0.000000000000     1.088977516471     1.007825032230

  Running in c2v symmetry.

  Rotational constants: A = ************  B =     13.26895  C =     13.26895 [cm^-1]
  Rotational constants: A = ************  B = 397793.10677  C = 397793.10677 [MHz]
  Nuclear repulsion =    3.657086459023163

  Charge       = 0
  Multiplicity = 2
  Electrons    = 9
  Nalpha       = 5
  Nbeta        = 4

  ==> Algorithm <==

  SCF Algorithm Type is DF.
  DIIS enabled.
  MOM disabled.
  Fractional occupation disabled.
  Guess Type is READ.
  Energy threshold   = 1.00e-08
  Density threshold  = 1.00e-08
  Integral threshold = 1.00e-12

  ==> Primary Basis <==

  Basis Set: CC-PVTZ
    Blend: CC-PVTZ
    Number of shells: 16
    Number of basis functions: 44
    Number of Cartesian functions: 50
    Spherical Harmonics?: true
    Max angular momentum: 3

  ==> DFT Potential <==

   => LibXC <=

    Version 6.2.2
    S. Lehtola, C. Steigemann, M. J.T. Oliveira, and M. A.L. Marques.,  SoftwareX 7, 1–5 (2018) (10.1016/j.softx.2017.11.002)

   => Composite Functional: B3LYP <= 

    B3LYP Hyb-GGA Exchange-Correlation Functional

    P. J. Stephens, F. J. Devlin, C. F. Chabalowski, and M. J. Frisch.,  J. Phys. Chem. 98, 11623 (1994) (10.1021/j100096a001)

    Deriv               =              1
    GGA                 =           TRUE
    Meta                =          FALSE

    Exchange Hybrid     =           TRUE
    MP2 Hybrid          =          FALSE

   => Exchange Functionals <=

    0.0800   Slater exchange
    0.7200         Becke 88

   => Exact (HF) Exchange <=

    0.2000               HF 

   => Correlation Functionals <=

    0.1900   Vosko, Wilk & Nusair (VWN5_RPA)
    0.8100   Lee, Yang & Parr

   => LibXC Density Thresholds  <==

    XC_HYB_GGA_XC_B3LYP:  1.00E-15 

   => Molecular Quadrature <=

    Radial Scheme          =       TREUTLER
    Pruning Scheme         =           NONE
    Nuclear Scheme         =       TREUTLER

    Blocking Scheme        =         OCTREE
    BS radius alpha        =              1
    Pruning alpha          =              1
    Radial Points          =             75
    Spherical Points       =            302
    Total Points           =          44160
    Total Blocks           =            391
    Max Points             =            256
    Max Functions          =             44
    Weights Tolerance      =       1.00E-15

   => Loading Basis Set <=

    Name: (CC-PVTZ AUX)
    Role: JKFIT
    Keyword: DF_BASIS_SCF
    atoms 1 entry O          line   229 file /Users/joseantoniorodriguesromero/anaconda3/share/psi4/basis/cc-pvtz-jkfit.gbs 
    atoms 2 entry H          line    51 file /Users/joseantoniorodriguesromero/anaconda3/share/psi4/basis/cc-pvtz-jkfit.gbs 

   => Loading Basis Set <=

    Name: CC-PVTZ
    Role: ORBITAL
    Keyword: BASIS
    atoms 1 entry O          line   262 file /Users/joseantoniorodriguesromero/anaconda3/share/psi4/basis/cc-pvtz.gbs 
    atoms 2 entry H          line    23 file /Users/joseantoniorodriguesromero/anaconda3/share/psi4/basis/cc-pvtz.gbs 

  Reading orbitals from file /tmp/scan_HO_33.default.48438.180.npy, no projection.

  ==> Integral Setup <==

  DFHelper Memory: AOs need 0.002 GiB; user supplied 0.312 GiB. 
  Using in-core AOs.

  ==> MemDFJK: Density-Fitted J/K Matrices <==

    J tasked:                   Yes
    K tasked:                   Yes
    wK tasked:                   No
    OpenMP threads:               1
    Memory [MiB]:               319
    Algorithm:                 Core
    Schwarz Cutoff:           1E-12
    Mask sparsity (%):       0.0000
    Fitting Condition:        1E-10

   => Auxiliary Basis Set <=

  Basis Set: (CC-PVTZ AUX)
    Blend: CC-PVTZ-JKFIT
    Number of shells: 35
    Number of basis functions: 109
    Number of Cartesian functions: 131
    Spherical Harmonics?: true
    Max angular momentum: 4

  Cached 100.0% of DFT collocation blocks in 0.054 [GiB].

  Minimum eigenvalue in the overlap matrix is 8.6309045472E-03.
  Reciprocal condition number of the overlap matrix is 2.3073136864E-03.
    Using symmetric orthogonalization.

  ==> Pre-Iterations <==

  SCF Guess: Orbitals guess was supplied from a previous computation.

   -------------------------------------------------------
    Irrep   Nso     Nmo     Nalpha   Nbeta   Ndocc  Nsocc
   -------------------------------------------------------
     A1        20      20       3       3       3       0
     A2         4       4       0       0       0       0
     B1        10      10       1       0       0       1
     B2        10      10       1       1       1       0
   -------------------------------------------------------
    Total      44      44       5       4       4       1
   -------------------------------------------------------

  ==> Iterations <==

                           Total Energy        Delta E     RMS |[F,P]|

   @DF-UKS iter   0:   -75.74429110315205   -7.57443e+01   6.05450e-12 
   @DF-UKS iter   1:   -75.74429110315205    0.00000e+00   7.13757e-12 DIIS
  Energy and wave function converged.


  ==> Post-Iterations <==

   Electrons on quadrature grid:
      Nalpha   =    5.0000000611 ; deviation = 6.106e-08
      Nbeta    =    4.0000000339 ; deviation = 3.388e-08
      Ntotal   =    9.0000000949 ; deviation = 9.494e-08 

   @Spin Contamination Metric:   3.478833770E-03
   @S^2 Expected:                7.500000000E-01
   @S^2 Observed:                7.534788338E-01
   @S   Expected:                5.000000000E-01
   @S   Observed:                5.000000000E-01

    Orbital Energies [Eh]
    ---------------------

    Alpha Occupied:                                                       

       1A1   -19.207594     2A1    -0.980015     3A1    -0.450582  
       1B1    -0.410907     1B2    -0.337692  

    Alpha Virtual:                                                        

       4A1    -0.014949     5A1     0.290940     2B1     0.514594  
       6A1     0.542309     2B2     0.546877     3B1     0.677058  
       3B2     0.692930     7A1     0.900721     8A1     1.094946  
       1A2     1.427469     9A1     1.428151     4B1     1.636870  
       4B2     1.674881    10A1     2.046474    11A1     2.301752  
       2A2     3.152898    12A1     3.152989     5B1     3.234406  
       5B2     3.266624    13A1     3.415449     6B1     3.618618  
       6B2     3.640182     7B1     3.821784     7B2     3.859127  
      14A1     3.915050    15A1     4.784617     8B1     5.075047  
       8B2     5.075300     3A2     5.180940    16A1     5.182524  
       9B1     5.771287     9B2     5.820253    17A1     6.081277  
      18A1     6.131187     4A2     6.131737    10B1     6.421851  
      10B2     6.477347    19A1     6.809981    20A1     8.654718  

    Beta Occupied:                                                        

       1A1   -19.181543     2A1    -0.904799     3A1    -0.428044  
       1B2    -0.311703  

    Beta Virtual:                                                         

       1B1    -0.162657     4A1    -0.006581     5A1     0.292303  
       6A1     0.552588     2B2     0.554738     2B1     0.577176  
       3B2     0.692301     3B1     0.696278     7A1     0.932310  
       8A1     1.101852     1A2     1.479709     9A1     1.485721  
       4B2     1.681291     4B1     1.687772    10A1     2.065299  
      11A1     2.296439     2A2     3.150845    12A1     3.151207  
       5B2     3.270407     5B1     3.282196    13A1     3.422690  
       6B2     3.637225     6B1     3.642770     7B2     3.867357  
       7B1     3.880860    14A1     3.923832    15A1     4.810319  
       8B2     5.145282     8B1     5.148282     3A2     5.227644  
      16A1     5.232784     9B2     5.830620     9B1     5.840143  
      17A1     6.107623     4A2     6.224534    18A1     6.238943  
      10B2     6.490447    10B1     6.508541    19A1     6.849577  
      20A1     8.690951  

    Final Occupation by Irrep:
             A1    A2    B1    B2 
    DOCC [     3,    0,    0,    1 ]
    SOCC [     0,    0,    1,    0 ]
    NA   [     3,    0,    1,    1 ]
    NB   [     3,    0,    0,    1 ]

  @DF-UKS Final Energy:   -75.74429110315205

   => Energetics <=

    Nuclear Repulsion Energy =              3.6570864590231627
    One-Electron Energy =                -111.4602389464965029
    Two-Electron Energy =                  39.1936300232565245
    DFT Exchange-Correlation Energy =      -7.1347686389352454
    Empirical Dispersion Energy =           0.0000000000000000
    VV10 Nonlocal Energy =                  0.0000000000000000
    Total Energy =                        -75.7442911031520509

  UHF NO Occupations:
  HONO-2 :    2 A1 1.9995060
  HONO-1 :    3 A1 1.9989199
  HONO-0 :    1 B1 1.0000000
  LUNO+0 :    4 A1 0.0010801
  LUNO+1 :    5 A1 0.0004940
  LUNO+2 :    2 B2 0.0001656
  LUNO+3 :    6 A1 0.0000006


Computation Completed


Properties will be evaluated at   0.000000,   0.000000,   0.000000 [a0]

Properties computed using the B3LYP density matrix


 Multipole Moments:

 ------------------------------------------------------------------------------------
     Multipole            Electronic (a.u.)      Nuclear  (a.u.)        Total (a.u.)
 ------------------------------------------------------------------------------------

 L = 1.  Multiply by 2.5417464519 to convert [e a0] to [Debye]
 Dipole X            :          0.0000000            0.0000000            0.0000000
 Dipole Y            :          0.0000000            0.0000000            0.0000000
 Dipole Z            :         -0.3311691            1.0205535            0.6893844
 Magnitude           :                                                    0.6893844

 L = 2.  Multiply by 1.3450342976 to convert [e a0^2] to [Debye ang]
 Quadrupole XX       :         -4.1374005            0.0000000           -4.1374005
 Quadrupole XY       :          0.0000000            0.0000000            0.0000000
 Quadrupole XZ       :          0.0000000            0.0000000            0.0000000
 Quadrupole YY       :         -5.0357884            0.0000000           -5.0357884
 Quadrupole YZ       :          0.0000000            0.0000000            0.0000000
 Quadrupole ZZ       :         -7.3479127            4.3693289           -2.9785838
 Traceless XX        :          1.3696334           -1.4564430           -0.0868096
 Traceless YY        :          0.4712455           -1.4564430           -0.9851975
 Traceless ZZ        :         -1.8408789            2.9128859            1.0720071

 ------------------------------------------------------------------------------------
  ==> Computing MBIS Charges <==

  Electron Count from Grid (Expected Number):  9.00000 ( 9.00000)
  Difference:  0.00000

  MBIS Charges: (a.u.)
   Center  Symbol  Z      Pop.       Charge
      1       O    8    8.339957   -0.339957
      2       H    1    0.660043    0.339957

  MBIS Dipoles: [e a0]
   Center  Symbol  Z        X           Y           Z
      1       O    8    0.000000   -0.000000   -0.099403
      2       H    1    0.000000   -0.000000    0.045121

  MBIS Quadrupoles: [e a0^2]
   Center  Symbol  Z      XX        XY        XZ        YY        YZ        ZZ
      1       O    8   -3.7304    0.0000    0.0000   -4.5872   -0.0000   -4.2217
      2       H    1   -0.4070   -0.0000    0.0000   -0.4486   -0.0000   -0.4023

  MBIS Octupoles: [e a0^3]
   Center  Symbol  Z      XXX       XXY       XXZ       XYY       XYZ       XZZ       YYY       YYZ       YZZ       ZZZ
      1       O    8   -0.0000   -0.0000   -0.1170    0.0000   -0.0000    0.0000   -0.0000   -0.1142   -0.0000   -0.4946
      2       H    1    0.0000   -0.0000   -0.0021    0.0000   -0.0000    0.0000   -0.0000    0.0246   -0.0000    0.0495

  MBIS Radial Moments:
   Center  Symbol  Z      [a0^2]      [a0^3]      [a0^4]      
      1       O    8   12.539232   24.216553   55.895628
      2       H    1    1.257966    2.489158    5.891661

  MBIS Valence Widths: [a0]
   Center  Symbol  Z     Width
      1       O    8    0.396666
      2       H    1    0.400019

*** tstop() called on Mac.lan at Sun Aug 10 17:11:29 2025
Module time:
	user time   =       2.54 seconds =       0.04 minutes
	system time =       2.29 seconds =       0.04 minutes
	total time  =          0 seconds =       0.00 minutes
Total time:
	user time   =      12.58 seconds =       0.21 minutes
	system time =       4.38 seconds =       0.07 minutes
	total time  =          1 seconds =       0.02 minutes

    Psi4 stopped on: Sunday, 10 August 2025 05:11PM
    Psi4 wall time for execution: 0:00:01.65

*** Psi4 exiting successfully. Buy a developer a beer!
