
    -----------------------------------------------------------------------
          Psi4: An Open-Source Ab Initio Electronic Structure Package
                               Psi4 1.9.1 release

                         Git: Rev {} zzzzzzz 


    D. G. A. Smith, L. A. Burns, A. C. Simmonett, R. M. Parrish,
    M. C. Schieber, R. Galvelis, P. Kraus, H. Kruse, R. Di Remigio,
    A. Alenaizan, A. M. James, S. Lehtola, J. P. Misiewicz, M. Scheurer,
    R. A. Shaw, J. B. Schriber, Y. Xie, Z. L. Glick, D. A. Sirianni,
    J. S. O'Brien, J. M. Waldrop, A. Kumar, E. G. Hohenstein,
    B. P. Pritchard, B. R. Brooks, H. F. Schaefer III, A. Yu. Sokolov,
    K. Patkowski, A. E. DePrince III, U. Bozkaya, R. A. King,
    F. A. Evangelista, J. M. Turney, T. D. Crawford, C. D. Sherrill,
    J. Chem. Phys. 152(18) 184108 (2020). https://doi.org/10.1063/5.0006002

                            Additional Code Authors
    E. T. Seidl, C. L. Janssen, E. F. Valeev, M. L. Leininger,
    J. F. Gonthier, R. M. Richard, H. R. McAlexander, M. Saitow, X. Wang,
    P. Verma, M. H. Lechner, A. Jiang, S. Behnle, A. G. Heide,
    M. F. Herbst, and D. L. Poole

             Previous Authors, Complete List of Code Contributors,
                       and Citations for Specific Modules
    https://github.com/psi4/psi4/blob/master/codemeta.json
    https://github.com/psi4/psi4/graphs/contributors
    http://psicode.org/psi4manual/master/introduction.html#citing-psifour

    -----------------------------------------------------------------------


    Psi4 started on: Sunday, 10 August 2025 05:07PM

    Process ID: 48292
    Host:       Mac.lan
    PSIDATADIR: /Users/joseantoniorodriguesromero/anaconda3/share/psi4
    Memory:     500.0 MiB
    Threads:    1
    
  ==> Input File <==

--------------------------------------------------------------------------
molecule { 
0 1
N           0.000000           0.000000           0.000000
N           0.000000           0.000000           1.536766
}

set { 
basis              cc-pvtz
reference          uks
maxiter            500
DAMPING_PERCENTAGE 1
E_CONVERGENCE      1.0E-8
D_CONVERGENCE      1.0E-8
DIIS_MAX_VECS      400
MBIS_MAXITER       8000
guess              read
}

E, wfn = energy('b3lyp', restart_file='last_wfn', return_wfn=True)
properties('b3lyp','MBIS_CHARGES', wfn=wfn)
wfn.to_file('last_wfn')
--------------------------------------------------------------------------

Scratch directory: /tmp/
 Found user provided orbital data. Setting orbital guess to READ 
 Copying restart file <last_wfn.npy> to </tmp/scan_NN_45.default.48292.180.npy> for internal processing
   => Libint2 <=

    Primary   basis highest AM E, G, H:  6, 6, 3
    Auxiliary basis highest AM E, G, H:  7, 7, 4
    Onebody   basis highest AM E, G, H:  -, -, -
    Solid Harmonics ordering:            Gaussian

*** tstart() called on Mac.lan
*** at Sun Aug 10 17:07:43 2025

   => Loading Basis Set <=

    Name: CC-PVTZ
    Role: ORBITAL
    Keyword: BASIS
    atoms 1-2 entry N          line   224 file /Users/joseantoniorodriguesromero/anaconda3/share/psi4/basis/cc-pvtz.gbs 


         ---------------------------------------------------------
                                   SCF
               by Justin Turney, Rob Parrish, Andy Simmonett
                          and Daniel G. A. Smith
                              UKS Reference
                        1 Threads,    500 MiB Core
         ---------------------------------------------------------

  ==> Geometry <==

    Molecular point group: d2h
    Full point group: D_inf_h

    Geometry (in Angstrom), charge = 0, multiplicity = 1:

       Center              X                  Y                   Z               Mass       
    ------------   -----------------  -----------------  -----------------  -----------------
         N            0.000000000000     0.000000000000    -0.768383000000    14.003074004430
         N            0.000000000000     0.000000000000     0.768383000000    14.003074004430

  Running in d2h symmetry.

  Rotational constants: A = ************  B =      1.01950  C =      1.01950 [cm^-1]
  Rotational constants: A = ************  B =  30563.86861  C =  30563.86861 [MHz]
  Nuclear repulsion =   16.872889771656844

  Charge       = 0
  Multiplicity = 1
  Electrons    = 14
  Nalpha       = 7
  Nbeta        = 7

  ==> Algorithm <==

  SCF Algorithm Type is DF.
  DIIS enabled.
  MOM disabled.
  Fractional occupation disabled.
  Guess Type is READ.
  Energy threshold   = 1.00e-08
  Density threshold  = 1.00e-08
  Integral threshold = 1.00e-12

  ==> Primary Basis <==

  Basis Set: CC-PVTZ
    Blend: CC-PVTZ
    Number of shells: 20
    Number of basis functions: 60
    Number of Cartesian functions: 70
    Spherical Harmonics?: true
    Max angular momentum: 3

  ==> DFT Potential <==

   => LibXC <=

    Version 6.2.2
    S. Lehtola, C. Steigemann, M. J.T. Oliveira, and M. A.L. Marques.,  SoftwareX 7, 1–5 (2018) (10.1016/j.softx.2017.11.002)

   => Composite Functional: B3LYP <= 

    B3LYP Hyb-GGA Exchange-Correlation Functional

    P. J. Stephens, F. J. Devlin, C. F. Chabalowski, and M. J. Frisch.,  J. Phys. Chem. 98, 11623 (1994) (10.1021/j100096a001)

    Deriv               =              1
    GGA                 =           TRUE
    Meta                =          FALSE

    Exchange Hybrid     =           TRUE
    MP2 Hybrid          =          FALSE

   => Exchange Functionals <=

    0.0800   Slater exchange
    0.7200         Becke 88

   => Exact (HF) Exchange <=

    0.2000               HF 

   => Correlation Functionals <=

    0.1900   Vosko, Wilk & Nusair (VWN5_RPA)
    0.8100   Lee, Yang & Parr

   => LibXC Density Thresholds  <==

    XC_HYB_GGA_XC_B3LYP:  1.00E-15 

   => Molecular Quadrature <=

    Radial Scheme          =       TREUTLER
    Pruning Scheme         =           NONE
    Nuclear Scheme         =       TREUTLER

    Blocking Scheme        =         OCTREE
    BS radius alpha        =              1
    Pruning alpha          =              1
    Radial Points          =             75
    Spherical Points       =            302
    Total Points           =          42508
    Total Blocks           =            380
    Max Points             =            254
    Max Functions          =             60
    Weights Tolerance      =       1.00E-15

   => Loading Basis Set <=

    Name: (CC-PVTZ AUX)
    Role: JKFIT
    Keyword: DF_BASIS_SCF
    atoms 1-2 entry N          line   177 file /Users/joseantoniorodriguesromero/anaconda3/share/psi4/basis/cc-pvtz-jkfit.gbs 

   => Loading Basis Set <=

    Name: CC-PVTZ
    Role: ORBITAL
    Keyword: BASIS
    atoms 1-2 entry N          line   224 file /Users/joseantoniorodriguesromero/anaconda3/share/psi4/basis/cc-pvtz.gbs 

  Reading orbitals from file /tmp/scan_NN_45.default.48292.180.npy, no projection.

  ==> Integral Setup <==

  DFHelper Memory: AOs need 0.005 GiB; user supplied 0.295 GiB. 
  Using in-core AOs.

  ==> MemDFJK: Density-Fitted J/K Matrices <==

    J tasked:                   Yes
    K tasked:                   Yes
    wK tasked:                   No
    OpenMP threads:               1
    Memory [MiB]:               302
    Algorithm:                 Core
    Schwarz Cutoff:           1E-12
    Mask sparsity (%):       0.0000
    Fitting Condition:        1E-10

   => Auxiliary Basis Set <=

  Basis Set: (CC-PVTZ AUX)
    Blend: CC-PVTZ-JKFIT
    Number of shells: 50
    Number of basis functions: 158
    Number of Cartesian functions: 192
    Spherical Harmonics?: true
    Max angular momentum: 4

  Cached 100.0% of DFT collocation blocks in 0.071 [GiB].

  Minimum eigenvalue in the overlap matrix is 1.0173088882E-02.
  Reciprocal condition number of the overlap matrix is 3.1918401721E-03.
    Using symmetric orthogonalization.

  ==> Pre-Iterations <==

  SCF Guess: Orbitals guess was supplied from a previous computation.

   -------------------------------------------------------
    Irrep   Nso     Nmo     Nalpha   Nbeta   Ndocc  Nsocc
   -------------------------------------------------------
     Ag        13      13       3       3       3       0
     B1g        3       3       0       0       0       0
     B2g        7       7       0       0       0       0
     B3g        7       7       0       0       0       0
     Au         3       3       0       0       0       0
     B1u       13      13       2       2       2       0
     B2u        7       7       1       1       1       0
     B3u        7       7       1       1       1       0
   -------------------------------------------------------
    Total      60      60       7       7       7       0
   -------------------------------------------------------

  ==> Iterations <==

                           Total Energy        Delta E     RMS |[F,P]|

   @DF-UKS iter   0:  -109.33163154047966   -1.09332e+02   1.51247e-03 
   @DF-UKS iter   1:  -109.34655331782059   -1.49218e-02   5.75391e-04 ADIIS/DIIS
   @DF-UKS iter   2:  -109.34660440643331   -5.10886e-05   3.91027e-04 ADIIS/DIIS/DAMP=1%
   @DF-UKS iter   3:  -109.34641055611793    1.93850e-04   2.22696e-05 DIIS/DAMP=1%
   @DF-UKS iter   4:  -109.34665029681827   -2.39741e-04   4.72019e-06 DIIS/DAMP=1%
   @DF-UKS iter   5:  -109.34663888807066    1.14087e-05   1.03580e-07 DIIS/DAMP=1%
   @DF-UKS iter   6:  -109.34664188891902   -3.00085e-06   2.47360e-08 DIIS/DAMP=1%
   @DF-UKS iter   7:  -109.34664190981094   -2.08919e-08   3.82162e-10 DIIS/DAMP=1%
   @DF-UKS iter   8:  -109.34664191511496   -5.30402e-09   6.90193e-11 DIIS/DAMP=1%
  Energy and wave function converged.


  ==> Post-Iterations <==

   Electrons on quadrature grid:
      Nalpha   =    6.9999997581 ; deviation = -2.419e-07
      Nbeta    =    6.9999997581 ; deviation = -2.419e-07
      Ntotal   =   13.9999995162 ; deviation = -4.838e-07 

   @Spin Contamination Metric:   4.440892099E-15
   @S^2 Expected:                0.000000000E+00
   @S^2 Observed:                4.440892099E-15
   @S   Expected:                0.000000000E+00
   @S   Observed:                0.000000000E+00

    Orbital Energies [Eh]
    ---------------------

    Alpha Occupied:                                                       

       1Ag   -14.496508     1B1u  -14.496338     2Ag    -0.916188  
       2B1u   -0.658189     3Ag    -0.407066     1B3u   -0.371670  
       1B2u   -0.371670  

    Alpha Virtual:                                                        

       1B3g   -0.165244     1B2g   -0.165244     3B1u    0.057678  
       4B1u    0.394589     2B2u    0.419598     2B3u    0.419598  
       4Ag     0.446546     5Ag     0.497779     2B3g    0.501874  
       2B2g    0.501874     5B1u    0.861513     6Ag     0.890018  
       1B1g    0.890018     3B2u    0.896669     3B3u    0.896669  
       1Au     1.133185     6B1u    1.133185     7Ag     1.436555  
       3B3g    1.519753     3B2g    1.519753     7B1u    1.654462  
       4B2u    2.676361     4B3u    2.676361     8Ag     2.734766  
       4B3g    2.851401     4B2g    2.851401     8B1u    3.443187  
       5B2u    3.506630     5B3u    3.506630     9Ag     3.564617  
      10Ag     3.565322     2B1g    3.565322     6B3u    3.776452  
       6B2u    3.776452     5B2g    3.869719     5B3g    3.869719  
       9B1u    4.114680     2Au     4.114682    11Ag     4.319294  
       3B1g    4.319303     6B2g    4.419956     6B3g    4.419956  
      10B1u    4.472237     3Au     4.472245     7B3u    4.495873  
       7B2u    4.495873    11B1u    4.566205    12B1u    4.822002  
      12Ag     4.920800     7B2g    5.133280     7B3g    5.133280  
      13Ag     5.573353    13B1u    7.376742  

    Beta Occupied:                                                        

       1Ag   -14.496508     1B1u  -14.496338     2Ag    -0.916188  
       2B1u   -0.658189     3Ag    -0.407066     1B3u   -0.371670  
       1B2u   -0.371670  

    Beta Virtual:                                                         

       1B3g   -0.165244     1B2g   -0.165244     3B1u    0.057678  
       4B1u    0.394589     2B2u    0.419598     2B3u    0.419598  
       4Ag     0.446546     5Ag     0.497779     2B3g    0.501874  
       2B2g    0.501874     5B1u    0.861513     6Ag     0.890018  
       1B1g    0.890018     3B2u    0.896669     3B3u    0.896669  
       1Au     1.133185     6B1u    1.133185     7Ag     1.436555  
       3B3g    1.519753     3B2g    1.519753     7B1u    1.654462  
       4B2u    2.676361     4B3u    2.676361     8Ag     2.734766  
       4B3g    2.851401     4B2g    2.851401     8B1u    3.443187  
       5B2u    3.506630     5B3u    3.506630     9Ag     3.564617  
      10Ag     3.565322     2B1g    3.565322     6B3u    3.776452  
       6B2u    3.776452     5B2g    3.869719     5B3g    3.869719  
       9B1u    4.114680     2Au     4.114682    11Ag     4.319294  
       3B1g    4.319303     6B2g    4.419956     6B3g    4.419956  
      10B1u    4.472237     3Au     4.472245     7B3u    4.495873  
       7B2u    4.495873    11B1u    4.566205    12B1u    4.822002  
      12Ag     4.920800     7B3g    5.133280     7B2g    5.133280  
      13Ag     5.573353    13B1u    7.376742  

    Final Occupation by Irrep:
             Ag   B1g   B2g   B3g    Au   B1u   B2u   B3u 
    DOCC [     3,    0,    0,    0,    0,    2,    1,    1 ]
    SOCC [     0,    0,    0,    0,    0,    0,    0,    0 ]
    NA   [     3,    0,    0,    0,    0,    2,    1,    1 ]
    NB   [     3,    0,    0,    0,    0,    2,    1,    1 ]

  @DF-UKS Final Energy:  -109.34664191511496

   => Energetics <=

    Nuclear Repulsion Energy =             16.8728897716568440
    One-Electron Energy =                -181.2191029818375227
    Two-Electron Energy =                  65.8044185599092089
    DFT Exchange-Correlation Energy =     -10.8048472648434828
    Empirical Dispersion Energy =           0.0000000000000000
    VV10 Nonlocal Energy =                  0.0000000000000000
    Total Energy =                       -109.3466419151149580

  UHF NO Occupations:
  HONO-2 :    1B2u 2.0000000
  HONO-1 :    3 Ag 2.0000000
  HONO-0 :    1B3u 2.0000000
  LUNO+0 :    4 Ag 0.0000000
  LUNO+1 :    5 Ag 0.0000000
  LUNO+2 :    3B1u 0.0000000
  LUNO+3 :    4B1u 0.0000000


Computation Completed


Properties will be evaluated at   0.000000,   0.000000,   0.000000 [a0]

Properties computed using the SCF density matrix


 Multipole Moments:

 ------------------------------------------------------------------------------------
     Multipole            Electronic (a.u.)      Nuclear  (a.u.)        Total (a.u.)
 ------------------------------------------------------------------------------------

 L = 1.  Multiply by 2.5417464519 to convert [e a0] to [Debye]
 Dipole X            :          0.0000000            0.0000000            0.0000000
 Dipole Y            :          0.0000000            0.0000000            0.0000000
 Dipole Z            :          0.0000000            0.0000000            0.0000000
 Magnitude           :                                                    0.0000000

 ------------------------------------------------------------------------------------

*** tstop() called on Mac.lan at Sun Aug 10 17:07:44 2025
Module time:
	user time   =      11.34 seconds =       0.19 minutes
	system time =       1.77 seconds =       0.03 minutes
	total time  =          1 seconds =       0.02 minutes
Total time:
	user time   =      11.34 seconds =       0.19 minutes
	system time =       1.77 seconds =       0.03 minutes
	total time  =          1 seconds =       0.02 minutes

*** tstart() called on Mac.lan
*** at Sun Aug 10 17:07:44 2025

   => Libint2 <=

    Primary   basis highest AM E, G, H:  6, 6, 3
    Auxiliary basis highest AM E, G, H:  7, 7, 4
    Onebody   basis highest AM E, G, H:  -, -, -
    Solid Harmonics ordering:            Gaussian
   => Loading Basis Set <=

    Name: CC-PVTZ
    Role: ORBITAL
    Keyword: BASIS
    atoms 1-2 entry N          line   224 file /Users/joseantoniorodriguesromero/anaconda3/share/psi4/basis/cc-pvtz.gbs 


         ---------------------------------------------------------
                                   SCF
               by Justin Turney, Rob Parrish, Andy Simmonett
                          and Daniel G. A. Smith
                              UKS Reference
                        1 Threads,    500 MiB Core
         ---------------------------------------------------------

  ==> Geometry <==

    Molecular point group: d2h
    Full point group: D_inf_h

    Geometry (in Angstrom), charge = 0, multiplicity = 1:

       Center              X                  Y                   Z               Mass       
    ------------   -----------------  -----------------  -----------------  -----------------
         N            0.000000000000     0.000000000000    -0.768383000000    14.003074004430
         N            0.000000000000     0.000000000000     0.768383000000    14.003074004430

  Running in d2h symmetry.

  Rotational constants: A = ************  B =      1.01950  C =      1.01950 [cm^-1]
  Rotational constants: A = ************  B =  30563.86861  C =  30563.86861 [MHz]
  Nuclear repulsion =   16.872889771656844

  Charge       = 0
  Multiplicity = 1
  Electrons    = 14
  Nalpha       = 7
  Nbeta        = 7

  ==> Algorithm <==

  SCF Algorithm Type is DF.
  DIIS enabled.
  MOM disabled.
  Fractional occupation disabled.
  Guess Type is READ.
  Energy threshold   = 1.00e-08
  Density threshold  = 1.00e-08
  Integral threshold = 1.00e-12

  ==> Primary Basis <==

  Basis Set: CC-PVTZ
    Blend: CC-PVTZ
    Number of shells: 20
    Number of basis functions: 60
    Number of Cartesian functions: 70
    Spherical Harmonics?: true
    Max angular momentum: 3

  ==> DFT Potential <==

   => LibXC <=

    Version 6.2.2
    S. Lehtola, C. Steigemann, M. J.T. Oliveira, and M. A.L. Marques.,  SoftwareX 7, 1–5 (2018) (10.1016/j.softx.2017.11.002)

   => Composite Functional: B3LYP <= 

    B3LYP Hyb-GGA Exchange-Correlation Functional

    P. J. Stephens, F. J. Devlin, C. F. Chabalowski, and M. J. Frisch.,  J. Phys. Chem. 98, 11623 (1994) (10.1021/j100096a001)

    Deriv               =              1
    GGA                 =           TRUE
    Meta                =          FALSE

    Exchange Hybrid     =           TRUE
    MP2 Hybrid          =          FALSE

   => Exchange Functionals <=

    0.0800   Slater exchange
    0.7200         Becke 88

   => Exact (HF) Exchange <=

    0.2000               HF 

   => Correlation Functionals <=

    0.1900   Vosko, Wilk & Nusair (VWN5_RPA)
    0.8100   Lee, Yang & Parr

   => LibXC Density Thresholds  <==

    XC_HYB_GGA_XC_B3LYP:  1.00E-15 

   => Molecular Quadrature <=

    Radial Scheme          =       TREUTLER
    Pruning Scheme         =           NONE
    Nuclear Scheme         =       TREUTLER

    Blocking Scheme        =         OCTREE
    BS radius alpha        =              1
    Pruning alpha          =              1
    Radial Points          =             75
    Spherical Points       =            302
    Total Points           =          42508
    Total Blocks           =            380
    Max Points             =            254
    Max Functions          =             60
    Weights Tolerance      =       1.00E-15

   => Loading Basis Set <=

    Name: (CC-PVTZ AUX)
    Role: JKFIT
    Keyword: DF_BASIS_SCF
    atoms 1-2 entry N          line   177 file /Users/joseantoniorodriguesromero/anaconda3/share/psi4/basis/cc-pvtz-jkfit.gbs 

   => Loading Basis Set <=

    Name: CC-PVTZ
    Role: ORBITAL
    Keyword: BASIS
    atoms 1-2 entry N          line   224 file /Users/joseantoniorodriguesromero/anaconda3/share/psi4/basis/cc-pvtz.gbs 

  Reading orbitals from file /tmp/scan_NN_45.default.48292.180.npy, no projection.

  ==> Integral Setup <==

  DFHelper Memory: AOs need 0.005 GiB; user supplied 0.295 GiB. 
  Using in-core AOs.

  ==> MemDFJK: Density-Fitted J/K Matrices <==

    J tasked:                   Yes
    K tasked:                   Yes
    wK tasked:                   No
    OpenMP threads:               1
    Memory [MiB]:               302
    Algorithm:                 Core
    Schwarz Cutoff:           1E-12
    Mask sparsity (%):       0.0000
    Fitting Condition:        1E-10

   => Auxiliary Basis Set <=

  Basis Set: (CC-PVTZ AUX)
    Blend: CC-PVTZ-JKFIT
    Number of shells: 50
    Number of basis functions: 158
    Number of Cartesian functions: 192
    Spherical Harmonics?: true
    Max angular momentum: 4

  Cached 100.0% of DFT collocation blocks in 0.071 [GiB].

  Minimum eigenvalue in the overlap matrix is 1.0173088882E-02.
  Reciprocal condition number of the overlap matrix is 3.1918401721E-03.
    Using symmetric orthogonalization.

  ==> Pre-Iterations <==

  SCF Guess: Orbitals guess was supplied from a previous computation.

   -------------------------------------------------------
    Irrep   Nso     Nmo     Nalpha   Nbeta   Ndocc  Nsocc
   -------------------------------------------------------
     Ag        13      13       3       3       3       0
     B1g        3       3       0       0       0       0
     B2g        7       7       0       0       0       0
     B3g        7       7       0       0       0       0
     Au         3       3       0       0       0       0
     B1u       13      13       2       2       2       0
     B2u        7       7       1       1       1       0
     B3u        7       7       1       1       1       0
   -------------------------------------------------------
    Total      60      60       7       7       7       0
   -------------------------------------------------------

  ==> Iterations <==

                           Total Energy        Delta E     RMS |[F,P]|

   @DF-UKS iter   0:  -109.34664191531527   -1.09347e+02   5.54829e-12 
   @DF-UKS iter   1:  -109.34664191531529   -1.42109e-14   3.96865e-12 DIIS
  Energy and wave function converged.


  ==> Post-Iterations <==

   Electrons on quadrature grid:
      Nalpha   =    6.9999997581 ; deviation = -2.419e-07
      Nbeta    =    6.9999997581 ; deviation = -2.419e-07
      Ntotal   =   13.9999995162 ; deviation = -4.838e-07 

   @Spin Contamination Metric:   8.881784197E-15
   @S^2 Expected:                0.000000000E+00
   @S^2 Observed:                8.881784197E-15
   @S   Expected:                0.000000000E+00
   @S   Observed:                0.000000000E+00

    Orbital Energies [Eh]
    ---------------------

    Alpha Occupied:                                                       

       1Ag   -14.496508     1B1u  -14.496338     2Ag    -0.916188  
       2B1u   -0.658189     3Ag    -0.407066     1B2u   -0.371670  
       1B3u   -0.371670  

    Alpha Virtual:                                                        

       1B3g   -0.165244     1B2g   -0.165244     3B1u    0.057678  
       4B1u    0.394589     2B2u    0.419598     2B3u    0.419598  
       4Ag     0.446546     5Ag     0.497779     2B3g    0.501874  
       2B2g    0.501874     5B1u    0.861513     6Ag     0.890018  
       1B1g    0.890018     3B2u    0.896669     3B3u    0.896669  
       1Au     1.133185     6B1u    1.133185     7Ag     1.436555  
       3B3g    1.519753     3B2g    1.519753     7B1u    1.654462  
       4B2u    2.676361     4B3u    2.676361     8Ag     2.734766  
       4B3g    2.851401     4B2g    2.851401     8B1u    3.443187  
       5B2u    3.506630     5B3u    3.506630     9Ag     3.564617  
      10Ag     3.565322     2B1g    3.565322     6B2u    3.776452  
       6B3u    3.776452     5B2g    3.869719     5B3g    3.869719  
       9B1u    4.114680     2Au     4.114682    11Ag     4.319294  
       3B1g    4.319303     6B2g    4.419956     6B3g    4.419956  
      10B1u    4.472237     3Au     4.472245     7B3u    4.495873  
       7B2u    4.495873    11B1u    4.566205    12B1u    4.822002  
      12Ag     4.920800     7B2g    5.133280     7B3g    5.133280  
      13Ag     5.573353    13B1u    7.376742  

    Beta Occupied:                                                        

       1Ag   -14.496508     1B1u  -14.496338     2Ag    -0.916188  
       2B1u   -0.658189     3Ag    -0.407066     1B2u   -0.371670  
       1B3u   -0.371670  

    Beta Virtual:                                                         

       1B3g   -0.165244     1B2g   -0.165244     3B1u    0.057678  
       4B1u    0.394589     2B2u    0.419598     2B3u    0.419598  
       4Ag     0.446546     5Ag     0.497779     2B3g    0.501874  
       2B2g    0.501874     5B1u    0.861513     6Ag     0.890018  
       1B1g    0.890018     3B2u    0.896669     3B3u    0.896669  
       1Au     1.133185     6B1u    1.133185     7Ag     1.436555  
       3B3g    1.519753     3B2g    1.519753     7B1u    1.654462  
       4B2u    2.676361     4B3u    2.676361     8Ag     2.734766  
       4B3g    2.851401     4B2g    2.851401     8B1u    3.443187  
       5B2u    3.506630     5B3u    3.506630     9Ag     3.564617  
      10Ag     3.565322     2B1g    3.565322     6B2u    3.776452  
       6B3u    3.776452     5B2g    3.869719     5B3g    3.869719  
       9B1u    4.114680     2Au     4.114682    11Ag     4.319294  
       3B1g    4.319303     6B2g    4.419956     6B3g    4.419956  
      10B1u    4.472237     3Au     4.472245     7B3u    4.495873  
       7B2u    4.495873    11B1u    4.566205    12B1u    4.822002  
      12Ag     4.920800     7B2g    5.133280     7B3g    5.133280  
      13Ag     5.573353    13B1u    7.376742  

    Final Occupation by Irrep:
             Ag   B1g   B2g   B3g    Au   B1u   B2u   B3u 
    DOCC [     3,    0,    0,    0,    0,    2,    1,    1 ]
    SOCC [     0,    0,    0,    0,    0,    0,    0,    0 ]
    NA   [     3,    0,    0,    0,    0,    2,    1,    1 ]
    NB   [     3,    0,    0,    0,    0,    2,    1,    1 ]

  @DF-UKS Final Energy:  -109.34664191531529

   => Energetics <=

    Nuclear Repulsion Energy =             16.8728897716568440
    One-Electron Energy =                -181.2191029858649927
    Two-Electron Energy =                  65.8044185643944672
    DFT Exchange-Correlation Energy =     -10.8048472655016088
    Empirical Dispersion Energy =           0.0000000000000000
    VV10 Nonlocal Energy =                  0.0000000000000000
    Total Energy =                       -109.3466419153152884

  UHF NO Occupations:
  HONO-2 :    3 Ag 2.0000000
  HONO-1 :    1B2u 2.0000000
  HONO-0 :    1B3u 2.0000000
  LUNO+0 :    3B1u 0.0000000
  LUNO+1 :    4B1u 0.0000000
  LUNO+2 :    2B3u 0.0000000
  LUNO+3 :    4 Ag 0.0000000


Computation Completed


Properties will be evaluated at   0.000000,   0.000000,   0.000000 [a0]

Properties computed using the B3LYP density matrix


 Multipole Moments:

 ------------------------------------------------------------------------------------
     Multipole            Electronic (a.u.)      Nuclear  (a.u.)        Total (a.u.)
 ------------------------------------------------------------------------------------

 L = 1.  Multiply by 2.5417464519 to convert [e a0] to [Debye]
 Dipole X            :          0.0000000            0.0000000            0.0000000
 Dipole Y            :          0.0000000            0.0000000            0.0000000
 Dipole Z            :          0.0000000            0.0000000            0.0000000
 Magnitude           :                                                    0.0000000

 L = 2.  Multiply by 1.3450342976 to convert [e a0^2] to [Debye ang]
 Quadrupole XX       :         -8.2819783            0.0000000           -8.2819783
 Quadrupole XY       :          0.0000000            0.0000000            0.0000000
 Quadrupole XZ       :          0.0000000            0.0000000            0.0000000
 Quadrupole YY       :         -8.2819783            0.0000000           -8.2819783
 Quadrupole YZ       :          0.0000000            0.0000000            0.0000000
 Quadrupole ZZ       :        -37.9612792           29.5176151           -8.4436641
 Traceless XX        :          9.8931003           -9.8392050            0.0538953
 Traceless YY        :          9.8931003           -9.8392050            0.0538953
 Traceless ZZ        :        -19.7862006           19.6784101           -0.1077906

 ------------------------------------------------------------------------------------
  ==> Computing MBIS Charges <==

  Electron Count from Grid (Expected Number): 14.00000 (14.00000)
  Difference: -0.00000

  MBIS Charges: (a.u.)
   Center  Symbol  Z      Pop.       Charge
      1       N    7    7.000000    0.000000
      2       N    7    7.000000    0.000000

  MBIS Dipoles: [e a0]
   Center  Symbol  Z        X           Y           Z
      1       N    7   -0.000000   -0.000000   -0.052540
      2       N    7   -0.000000   -0.000000    0.052540

  MBIS Quadrupoles: [e a0^2]
   Center  Symbol  Z      XX        XY        XZ        YY        YZ        ZZ
      1       N    7   -4.1410   -0.0000   -0.0000   -4.1410   -0.0000   -4.3744
      2       N    7   -4.1410   -0.0000    0.0000   -4.1410    0.0000   -4.3744

  MBIS Octupoles: [e a0^3]
   Center  Symbol  Z      XXX       XXY       XXZ       XYY       XYZ       XZZ       YYY       YYZ       YZZ       ZZZ
      1       N    7   -0.0000    0.0000   -0.2118   -0.0000    0.0000   -0.0000   -0.0000   -0.2118    0.0000   -0.4635
      2       N    7   -0.0000    0.0000    0.2118    0.0000   -0.0000    0.0000   -0.0000    0.2118    0.0000    0.4635

  MBIS Radial Moments:
   Center  Symbol  Z      [a0^2]      [a0^3]      [a0^4]      
      1       N    7   12.656390   27.087719   68.981949
      2       N    7   12.656390   27.087719   68.981949

  MBIS Valence Widths: [a0]
   Center  Symbol  Z     Width
      1       N    7    0.447840
      2       N    7    0.447840

*** tstop() called on Mac.lan at Sun Aug 10 17:07:45 2025
Module time:
	user time   =       3.58 seconds =       0.06 minutes
	system time =       2.08 seconds =       0.03 minutes
	total time  =          1 seconds =       0.02 minutes
Total time:
	user time   =      15.00 seconds =       0.25 minutes
	system time =       3.97 seconds =       0.07 minutes
	total time  =          2 seconds =       0.03 minutes

    Psi4 stopped on: Sunday, 10 August 2025 05:07PM
    Psi4 wall time for execution: 0:00:01.85

*** Psi4 exiting successfully. Buy a developer a beer!
