
    -----------------------------------------------------------------------
          Psi4: An Open-Source Ab Initio Electronic Structure Package
                               Psi4 1.9.1 release

                         Git: Rev {} zzzzzzz 


    D. G. A. Smith, L. A. Burns, A. C. Simmonett, R. M. Parrish,
    M. C. Schieber, R. Galvelis, P. Kraus, H. Kruse, R. Di Remigio,
    A. Alenaizan, A. M. James, S. Lehtola, J. P. Misiewicz, M. Scheurer,
    R. A. Shaw, J. B. Schriber, Y. Xie, Z. L. Glick, D. A. Sirianni,
    J. S. O'Brien, J. M. Waldrop, A. Kumar, E. G. Hohenstein,
    B. P. Pritchard, B. R. Brooks, H. F. Schaefer III, A. Yu. Sokolov,
    K. Patkowski, A. E. DePrince III, U. Bozkaya, R. A. King,
    F. A. Evangelista, J. M. Turney, T. D. Crawford, C. D. Sherrill,
    J. Chem. Phys. 152(18) 184108 (2020). https://doi.org/10.1063/5.0006002

                            Additional Code Authors
    E. T. Seidl, C. L. Janssen, E. F. Valeev, M. L. Leininger,
    J. F. Gonthier, R. M. Richard, H. R. McAlexander, M. Saitow, X. Wang,
    P. Verma, M. H. Lechner, A. Jiang, S. Behnle, A. G. Heide,
    M. F. Herbst, and D. L. Poole

             Previous Authors, Complete List of Code Contributors,
                       and Citations for Specific Modules
    https://github.com/psi4/psi4/blob/master/codemeta.json
    https://github.com/psi4/psi4/graphs/contributors
    http://psicode.org/psi4manual/master/introduction.html#citing-psifour

    -----------------------------------------------------------------------


    Psi4 started on: Sunday, 10 August 2025 05:07PM

    Process ID: 48285
    Host:       Mac.lan
    PSIDATADIR: /Users/joseantoniorodriguesromero/anaconda3/share/psi4
    Memory:     500.0 MiB
    Threads:    1
    
  ==> Input File <==

--------------------------------------------------------------------------
molecule { 
0 1
N           0.000000           0.000000           0.000000
N           0.000000           0.000000           1.396453
}

set { 
basis              cc-pvtz
reference          uks
maxiter            500
DAMPING_PERCENTAGE 1
E_CONVERGENCE      1.0E-8
D_CONVERGENCE      1.0E-8
DIIS_MAX_VECS      400
MBIS_MAXITER       8000
guess              read
}

E, wfn = energy('b3lyp', restart_file='last_wfn', return_wfn=True)
properties('b3lyp','MBIS_CHARGES', wfn=wfn)
wfn.to_file('last_wfn')
--------------------------------------------------------------------------

Scratch directory: /tmp/
 Found user provided orbital data. Setting orbital guess to READ 
 Copying restart file <last_wfn.npy> to </tmp/scan_NN_38.default.48285.180.npy> for internal processing
   => Libint2 <=

    Primary   basis highest AM E, G, H:  6, 6, 3
    Auxiliary basis highest AM E, G, H:  7, 7, 4
    Onebody   basis highest AM E, G, H:  -, -, -
    Solid Harmonics ordering:            Gaussian

*** tstart() called on Mac.lan
*** at Sun Aug 10 17:07:17 2025

   => Loading Basis Set <=

    Name: CC-PVTZ
    Role: ORBITAL
    Keyword: BASIS
    atoms 1-2 entry N          line   224 file /Users/joseantoniorodriguesromero/anaconda3/share/psi4/basis/cc-pvtz.gbs 


         ---------------------------------------------------------
                                   SCF
               by Justin Turney, Rob Parrish, Andy Simmonett
                          and Daniel G. A. Smith
                              UKS Reference
                        1 Threads,    500 MiB Core
         ---------------------------------------------------------

  ==> Geometry <==

    Molecular point group: d2h
    Full point group: D_inf_h

    Geometry (in Angstrom), charge = 0, multiplicity = 1:

       Center              X                  Y                   Z               Mass       
    ------------   -----------------  -----------------  -----------------  -----------------
         N            0.000000000000     0.000000000000    -0.698226500000    14.003074004430
         N            0.000000000000     0.000000000000     0.698226500000    14.003074004430

  Running in d2h symmetry.

  Rotational constants: A = ************  B =      1.23467  C =      1.23467 [cm^-1]
  Rotational constants: A = ************  B =  37014.43838  C =  37014.43838 [MHz]
  Nuclear repulsion =   18.568246351885815

  Charge       = 0
  Multiplicity = 1
  Electrons    = 14
  Nalpha       = 7
  Nbeta        = 7

  ==> Algorithm <==

  SCF Algorithm Type is DF.
  DIIS enabled.
  MOM disabled.
  Fractional occupation disabled.
  Guess Type is READ.
  Energy threshold   = 1.00e-08
  Density threshold  = 1.00e-08
  Integral threshold = 1.00e-12

  ==> Primary Basis <==

  Basis Set: CC-PVTZ
    Blend: CC-PVTZ
    Number of shells: 20
    Number of basis functions: 60
    Number of Cartesian functions: 70
    Spherical Harmonics?: true
    Max angular momentum: 3

  ==> DFT Potential <==

   => LibXC <=

    Version 6.2.2
    S. Lehtola, C. Steigemann, M. J.T. Oliveira, and M. A.L. Marques.,  SoftwareX 7, 1–5 (2018) (10.1016/j.softx.2017.11.002)

   => Composite Functional: B3LYP <= 

    B3LYP Hyb-GGA Exchange-Correlation Functional

    P. J. Stephens, F. J. Devlin, C. F. Chabalowski, and M. J. Frisch.,  J. Phys. Chem. 98, 11623 (1994) (10.1021/j100096a001)

    Deriv               =              1
    GGA                 =           TRUE
    Meta                =          FALSE

    Exchange Hybrid     =           TRUE
    MP2 Hybrid          =          FALSE

   => Exchange Functionals <=

    0.0800   Slater exchange
    0.7200         Becke 88

   => Exact (HF) Exchange <=

    0.2000               HF 

   => Correlation Functionals <=

    0.1900   Vosko, Wilk & Nusair (VWN5_RPA)
    0.8100   Lee, Yang & Parr

   => LibXC Density Thresholds  <==

    XC_HYB_GGA_XC_B3LYP:  1.00E-15 

   => Molecular Quadrature <=

    Radial Scheme          =       TREUTLER
    Pruning Scheme         =           NONE
    Nuclear Scheme         =       TREUTLER

    Blocking Scheme        =         OCTREE
    BS radius alpha        =              1
    Pruning alpha          =              1
    Radial Points          =             75
    Spherical Points       =            302
    Total Points           =          42480
    Total Blocks           =            382
    Max Points             =            250
    Max Functions          =             60
    Weights Tolerance      =       1.00E-15

   => Loading Basis Set <=

    Name: (CC-PVTZ AUX)
    Role: JKFIT
    Keyword: DF_BASIS_SCF
    atoms 1-2 entry N          line   177 file /Users/joseantoniorodriguesromero/anaconda3/share/psi4/basis/cc-pvtz-jkfit.gbs 

   => Loading Basis Set <=

    Name: CC-PVTZ
    Role: ORBITAL
    Keyword: BASIS
    atoms 1-2 entry N          line   224 file /Users/joseantoniorodriguesromero/anaconda3/share/psi4/basis/cc-pvtz.gbs 

  Reading orbitals from file /tmp/scan_NN_38.default.48285.180.npy, no projection.

  ==> Integral Setup <==

  DFHelper Memory: AOs need 0.005 GiB; user supplied 0.295 GiB. 
  Using in-core AOs.

  ==> MemDFJK: Density-Fitted J/K Matrices <==

    J tasked:                   Yes
    K tasked:                   Yes
    wK tasked:                   No
    OpenMP threads:               1
    Memory [MiB]:               302
    Algorithm:                 Core
    Schwarz Cutoff:           1E-12
    Mask sparsity (%):       0.0000
    Fitting Condition:        1E-10

   => Auxiliary Basis Set <=

  Basis Set: (CC-PVTZ AUX)
    Blend: CC-PVTZ-JKFIT
    Number of shells: 50
    Number of basis functions: 158
    Number of Cartesian functions: 192
    Spherical Harmonics?: true
    Max angular momentum: 4

  Cached 100.0% of DFT collocation blocks in 0.071 [GiB].

  Minimum eigenvalue in the overlap matrix is 6.7360052587E-03.
  Reciprocal condition number of the overlap matrix is 2.0076890125E-03.
    Using symmetric orthogonalization.

  ==> Pre-Iterations <==

  SCF Guess: Orbitals guess was supplied from a previous computation.

   -------------------------------------------------------
    Irrep   Nso     Nmo     Nalpha   Nbeta   Ndocc  Nsocc
   -------------------------------------------------------
     Ag        13      13       3       3       3       0
     B1g        3       3       0       0       0       0
     B2g        7       7       0       0       0       0
     B3g        7       7       0       0       0       0
     Au         3       3       0       0       0       0
     B1u       13      13       2       2       2       0
     B2u        7       7       1       1       1       0
     B3u        7       7       1       1       1       0
   -------------------------------------------------------
    Total      60      60       7       7       7       0
   -------------------------------------------------------

  ==> Iterations <==

                           Total Energy        Delta E     RMS |[F,P]|

   @DF-UKS iter   0:  -109.41436576807610   -1.09414e+02   2.09656e-03 
   @DF-UKS iter   1:  -109.43233288638120   -1.79671e-02   6.19223e-04 ADIIS/DIIS
   @DF-UKS iter   2:  -109.43239171165270   -5.88253e-05   4.20679e-04 ADIIS/DIIS/DAMP=1%
   @DF-UKS iter   3:  -109.43217732943204    2.14382e-04   2.47059e-05 DIIS/DAMP=1%
   @DF-UKS iter   4:  -109.43244233182392   -2.65002e-04   5.35040e-06 DIIS/DAMP=1%
   @DF-UKS iter   5:  -109.43243010408943    1.22277e-05   1.33246e-07 DIIS/DAMP=1%
   @DF-UKS iter   6:  -109.43243354358009   -3.43949e-06   2.13945e-08 DIIS/DAMP=1%
   @DF-UKS iter   7:  -109.43243357557809   -3.19980e-08   3.77573e-10 DIIS/DAMP=1%
   @DF-UKS iter   8:  -109.43243358250977   -6.93169e-09   5.42044e-11 DIIS/DAMP=1%
  Energy and wave function converged.


  ==> Post-Iterations <==

   Electrons on quadrature grid:
      Nalpha   =    7.0000001782 ; deviation = 1.782e-07
      Nbeta    =    7.0000001782 ; deviation = 1.782e-07
      Ntotal   =   14.0000003565 ; deviation = 3.565e-07 

   @Spin Contamination Metric:   0.000000000E+00
   @S^2 Expected:                0.000000000E+00
   @S^2 Observed:                0.000000000E+00
   @S   Expected:                0.000000000E+00
   @S   Observed:                0.000000000E+00

    Orbital Energies [Eh]
    ---------------------

    Alpha Occupied:                                                       

       1Ag   -14.482684     1B1u  -14.482406     2Ag    -0.971495  
       2B1u   -0.629496     3Ag    -0.417618     1B2u   -0.395368  
       1B3u   -0.395368  

    Alpha Virtual:                                                        

       1B3g   -0.134359     1B2g   -0.134359     3B1u    0.157656  
       2B2u    0.415163     2B3u    0.415163     4B1u    0.415382  
       4Ag     0.439054     5Ag     0.486640     2B2g    0.507329  
       2B3g    0.507329     5B1u    0.866702     1B1g    0.868279  
       6Ag     0.868279     3B2u    0.940901     3B3u    0.940901  
       1Au     1.168692     6B1u    1.168692     7Ag     1.562300  
       3B2g    1.586450     3B3g    1.586450     7B1u    1.633378  
       4B2u    2.690482     4B3u    2.690482     8Ag     2.807323  
       4B3g    2.894132     4B2g    2.894132     9Ag     3.488459  
       2B1g    3.488459     5B2u    3.500393     5B3u    3.500393  
       8B1u    3.580986    10Ag     3.618734     6B2u    3.737260  
       6B3u    3.737260     5B3g    3.910150     5B2g    3.910150  
       9B1u    4.261574     2Au     4.261576    11Ag     4.324739  
       3B1g    4.324749    10B1u    4.344471    11B1u    4.530174  
       3Au     4.530182     6B2g    4.543590     6B3g    4.543590  
       7B2u    4.614982     7B3u    4.614982    12B1u    4.913700  
      12Ag     5.143891     7B2g    5.404032     7B3g    5.404032  
      13Ag     5.578703    13B1u    8.881349  

    Beta Occupied:                                                        

       1Ag   -14.482684     1B1u  -14.482406     2Ag    -0.971495  
       2B1u   -0.629496     3Ag    -0.417618     1B2u   -0.395368  
       1B3u   -0.395368  

    Beta Virtual:                                                         

       1B3g   -0.134359     1B2g   -0.134359     3B1u    0.157656  
       2B2u    0.415163     2B3u    0.415163     4B1u    0.415382  
       4Ag     0.439054     5Ag     0.486640     2B2g    0.507329  
       2B3g    0.507329     5B1u    0.866702     1B1g    0.868279  
       6Ag     0.868279     3B2u    0.940901     3B3u    0.940901  
       1Au     1.168692     6B1u    1.168692     7Ag     1.562300  
       3B2g    1.586450     3B3g    1.586450     7B1u    1.633378  
       4B2u    2.690482     4B3u    2.690482     8Ag     2.807323  
       4B3g    2.894132     4B2g    2.894132     9Ag     3.488459  
       2B1g    3.488459     5B2u    3.500393     5B3u    3.500393  
       8B1u    3.580986    10Ag     3.618734     6B2u    3.737260  
       6B3u    3.737260     5B3g    3.910150     5B2g    3.910150  
       9B1u    4.261574     2Au     4.261576    11Ag     4.324739  
       3B1g    4.324749    10B1u    4.344471    11B1u    4.530174  
       3Au     4.530182     6B2g    4.543590     6B3g    4.543590  
       7B2u    4.614982     7B3u    4.614982    12B1u    4.913700  
      12Ag     5.143891     7B2g    5.404032     7B3g    5.404032  
      13Ag     5.578703    13B1u    8.881349  

    Final Occupation by Irrep:
             Ag   B1g   B2g   B3g    Au   B1u   B2u   B3u 
    DOCC [     3,    0,    0,    0,    0,    2,    1,    1 ]
    SOCC [     0,    0,    0,    0,    0,    0,    0,    0 ]
    NA   [     3,    0,    0,    0,    0,    2,    1,    1 ]
    NB   [     3,    0,    0,    0,    0,    2,    1,    1 ]

  @DF-UKS Final Energy:  -109.43243358250977

   => Energetics <=

    Nuclear Repulsion Energy =             18.5682463518858150
    One-Electron Energy =                -184.6288004081923759
    Two-Electron Energy =                  67.4913193746772464
    DFT Exchange-Correlation Energy =     -10.8631989008804588
    Empirical Dispersion Energy =           0.0000000000000000
    VV10 Nonlocal Energy =                  0.0000000000000000
    Total Energy =                       -109.4324335825097734

  UHF NO Occupations:
  HONO-2 :    3 Ag 2.0000000
  HONO-1 :    2B1u 2.0000000
  HONO-0 :    1B3u 2.0000000
  LUNO+0 :    3B1u 0.0000000
  LUNO+1 :    4 Ag 0.0000000
  LUNO+2 :    4B1u 0.0000000
  LUNO+3 :    5B1u 0.0000000


Computation Completed


Properties will be evaluated at   0.000000,   0.000000,   0.000000 [a0]

Properties computed using the SCF density matrix


 Multipole Moments:

 ------------------------------------------------------------------------------------
     Multipole            Electronic (a.u.)      Nuclear  (a.u.)        Total (a.u.)
 ------------------------------------------------------------------------------------

 L = 1.  Multiply by 2.5417464519 to convert [e a0] to [Debye]
 Dipole X            :          0.0000000            0.0000000            0.0000000
 Dipole Y            :          0.0000000            0.0000000            0.0000000
 Dipole Z            :          0.0000000            0.0000000            0.0000000
 Magnitude           :                                                    0.0000000

 ------------------------------------------------------------------------------------

*** tstop() called on Mac.lan at Sun Aug 10 17:07:20 2025
Module time:
	user time   =      26.61 seconds =       0.44 minutes
	system time =       1.62 seconds =       0.03 minutes
	total time  =          3 seconds =       0.05 minutes
Total time:
	user time   =      26.61 seconds =       0.44 minutes
	system time =       1.62 seconds =       0.03 minutes
	total time  =          3 seconds =       0.05 minutes

*** tstart() called on Mac.lan
*** at Sun Aug 10 17:07:20 2025

   => Libint2 <=

    Primary   basis highest AM E, G, H:  6, 6, 3
    Auxiliary basis highest AM E, G, H:  7, 7, 4
    Onebody   basis highest AM E, G, H:  -, -, -
    Solid Harmonics ordering:            Gaussian
   => Loading Basis Set <=

    Name: CC-PVTZ
    Role: ORBITAL
    Keyword: BASIS
    atoms 1-2 entry N          line   224 file /Users/joseantoniorodriguesromero/anaconda3/share/psi4/basis/cc-pvtz.gbs 


         ---------------------------------------------------------
                                   SCF
               by Justin Turney, Rob Parrish, Andy Simmonett
                          and Daniel G. A. Smith
                              UKS Reference
                        1 Threads,    500 MiB Core
         ---------------------------------------------------------

  ==> Geometry <==

    Molecular point group: d2h
    Full point group: D_inf_h

    Geometry (in Angstrom), charge = 0, multiplicity = 1:

       Center              X                  Y                   Z               Mass       
    ------------   -----------------  -----------------  -----------------  -----------------
         N            0.000000000000     0.000000000000    -0.698226500000    14.003074004430
         N            0.000000000000     0.000000000000     0.698226500000    14.003074004430

  Running in d2h symmetry.

  Rotational constants: A = ************  B =      1.23467  C =      1.23467 [cm^-1]
  Rotational constants: A = ************  B =  37014.43838  C =  37014.43838 [MHz]
  Nuclear repulsion =   18.568246351885815

  Charge       = 0
  Multiplicity = 1
  Electrons    = 14
  Nalpha       = 7
  Nbeta        = 7

  ==> Algorithm <==

  SCF Algorithm Type is DF.
  DIIS enabled.
  MOM disabled.
  Fractional occupation disabled.
  Guess Type is READ.
  Energy threshold   = 1.00e-08
  Density threshold  = 1.00e-08
  Integral threshold = 1.00e-12

  ==> Primary Basis <==

  Basis Set: CC-PVTZ
    Blend: CC-PVTZ
    Number of shells: 20
    Number of basis functions: 60
    Number of Cartesian functions: 70
    Spherical Harmonics?: true
    Max angular momentum: 3

  ==> DFT Potential <==

   => LibXC <=

    Version 6.2.2
    S. Lehtola, C. Steigemann, M. J.T. Oliveira, and M. A.L. Marques.,  SoftwareX 7, 1–5 (2018) (10.1016/j.softx.2017.11.002)

   => Composite Functional: B3LYP <= 

    B3LYP Hyb-GGA Exchange-Correlation Functional

    P. J. Stephens, F. J. Devlin, C. F. Chabalowski, and M. J. Frisch.,  J. Phys. Chem. 98, 11623 (1994) (10.1021/j100096a001)

    Deriv               =              1
    GGA                 =           TRUE
    Meta                =          FALSE

    Exchange Hybrid     =           TRUE
    MP2 Hybrid          =          FALSE

   => Exchange Functionals <=

    0.0800   Slater exchange
    0.7200         Becke 88

   => Exact (HF) Exchange <=

    0.2000               HF 

   => Correlation Functionals <=

    0.1900   Vosko, Wilk & Nusair (VWN5_RPA)
    0.8100   Lee, Yang & Parr

   => LibXC Density Thresholds  <==

    XC_HYB_GGA_XC_B3LYP:  1.00E-15 

   => Molecular Quadrature <=

    Radial Scheme          =       TREUTLER
    Pruning Scheme         =           NONE
    Nuclear Scheme         =       TREUTLER

    Blocking Scheme        =         OCTREE
    BS radius alpha        =              1
    Pruning alpha          =              1
    Radial Points          =             75
    Spherical Points       =            302
    Total Points           =          42480
    Total Blocks           =            382
    Max Points             =            250
    Max Functions          =             60
    Weights Tolerance      =       1.00E-15

   => Loading Basis Set <=

    Name: (CC-PVTZ AUX)
    Role: JKFIT
    Keyword: DF_BASIS_SCF
    atoms 1-2 entry N          line   177 file /Users/joseantoniorodriguesromero/anaconda3/share/psi4/basis/cc-pvtz-jkfit.gbs 

   => Loading Basis Set <=

    Name: CC-PVTZ
    Role: ORBITAL
    Keyword: BASIS
    atoms 1-2 entry N          line   224 file /Users/joseantoniorodriguesromero/anaconda3/share/psi4/basis/cc-pvtz.gbs 

  Reading orbitals from file /tmp/scan_NN_38.default.48285.180.npy, no projection.

  ==> Integral Setup <==

  DFHelper Memory: AOs need 0.005 GiB; user supplied 0.295 GiB. 
  Using in-core AOs.

  ==> MemDFJK: Density-Fitted J/K Matrices <==

    J tasked:                   Yes
    K tasked:                   Yes
    wK tasked:                   No
    OpenMP threads:               1
    Memory [MiB]:               302
    Algorithm:                 Core
    Schwarz Cutoff:           1E-12
    Mask sparsity (%):       0.0000
    Fitting Condition:        1E-10

   => Auxiliary Basis Set <=

  Basis Set: (CC-PVTZ AUX)
    Blend: CC-PVTZ-JKFIT
    Number of shells: 50
    Number of basis functions: 158
    Number of Cartesian functions: 192
    Spherical Harmonics?: true
    Max angular momentum: 4

  Cached 100.0% of DFT collocation blocks in 0.071 [GiB].

  Minimum eigenvalue in the overlap matrix is 6.7360052587E-03.
  Reciprocal condition number of the overlap matrix is 2.0076890125E-03.
    Using symmetric orthogonalization.

  ==> Pre-Iterations <==

  SCF Guess: Orbitals guess was supplied from a previous computation.

   -------------------------------------------------------
    Irrep   Nso     Nmo     Nalpha   Nbeta   Ndocc  Nsocc
   -------------------------------------------------------
     Ag        13      13       3       3       3       0
     B1g        3       3       0       0       0       0
     B2g        7       7       0       0       0       0
     B3g        7       7       0       0       0       0
     Au         3       3       0       0       0       0
     B1u       13      13       2       2       2       0
     B2u        7       7       1       1       1       0
     B3u        7       7       1       1       1       0
   -------------------------------------------------------
    Total      60      60       7       7       7       0
   -------------------------------------------------------

  ==> Iterations <==

                           Total Energy        Delta E     RMS |[F,P]|

   @DF-UKS iter   0:  -109.43243358264780   -1.09432e+02   3.93462e-12 
   @DF-UKS iter   1:  -109.43243358264759    2.13163e-13   2.74659e-12 DIIS
  Energy and wave function converged.


  ==> Post-Iterations <==

   Electrons on quadrature grid:
      Nalpha   =    7.0000001782 ; deviation = 1.782e-07
      Nbeta    =    7.0000001782 ; deviation = 1.782e-07
      Ntotal   =   14.0000003565 ; deviation = 3.565e-07 

   @Spin Contamination Metric:   3.552713679E-15
   @S^2 Expected:                0.000000000E+00
   @S^2 Observed:                3.552713679E-15
   @S   Expected:                0.000000000E+00
   @S   Observed:                0.000000000E+00

    Orbital Energies [Eh]
    ---------------------

    Alpha Occupied:                                                       

       1Ag   -14.482684     1B1u  -14.482406     2Ag    -0.971495  
       2B1u   -0.629496     3Ag    -0.417618     1B2u   -0.395368  
       1B3u   -0.395368  

    Alpha Virtual:                                                        

       1B3g   -0.134359     1B2g   -0.134359     3B1u    0.157656  
       2B2u    0.415163     2B3u    0.415163     4B1u    0.415382  
       4Ag     0.439054     5Ag     0.486640     2B2g    0.507329  
       2B3g    0.507329     5B1u    0.866702     1B1g    0.868279  
       6Ag     0.868279     3B2u    0.940901     3B3u    0.940901  
       1Au     1.168692     6B1u    1.168692     7Ag     1.562300  
       3B2g    1.586450     3B3g    1.586450     7B1u    1.633378  
       4B2u    2.690482     4B3u    2.690482     8Ag     2.807323  
       4B3g    2.894132     4B2g    2.894132     9Ag     3.488459  
       2B1g    3.488459     5B2u    3.500393     5B3u    3.500393  
       8B1u    3.580986    10Ag     3.618734     6B2u    3.737260  
       6B3u    3.737260     5B3g    3.910150     5B2g    3.910150  
       9B1u    4.261574     2Au     4.261576    11Ag     4.324739  
       3B1g    4.324749    10B1u    4.344471    11B1u    4.530174  
       3Au     4.530182     6B2g    4.543590     6B3g    4.543590  
       7B2u    4.614982     7B3u    4.614982    12B1u    4.913700  
      12Ag     5.143891     7B2g    5.404032     7B3g    5.404032  
      13Ag     5.578703    13B1u    8.881349  

    Beta Occupied:                                                        

       1Ag   -14.482684     1B1u  -14.482406     2Ag    -0.971495  
       2B1u   -0.629496     3Ag    -0.417618     1B3u   -0.395368  
       1B2u   -0.395368  

    Beta Virtual:                                                         

       1B3g   -0.134359     1B2g   -0.134359     3B1u    0.157656  
       2B2u    0.415163     2B3u    0.415163     4B1u    0.415382  
       4Ag     0.439054     5Ag     0.486640     2B2g    0.507329  
       2B3g    0.507329     5B1u    0.866702     1B1g    0.868279  
       6Ag     0.868279     3B2u    0.940901     3B3u    0.940901  
       1Au     1.168692     6B1u    1.168692     7Ag     1.562300  
       3B2g    1.586450     3B3g    1.586450     7B1u    1.633378  
       4B2u    2.690482     4B3u    2.690482     8Ag     2.807323  
       4B3g    2.894132     4B2g    2.894132     9Ag     3.488459  
       2B1g    3.488459     5B2u    3.500393     5B3u    3.500393  
       8B1u    3.580986    10Ag     3.618734     6B2u    3.737260  
       6B3u    3.737260     5B3g    3.910150     5B2g    3.910150  
       9B1u    4.261574     2Au     4.261576    11Ag     4.324739  
       3B1g    4.324749    10B1u    4.344471    11B1u    4.530174  
       3Au     4.530182     6B2g    4.543590     6B3g    4.543590  
       7B2u    4.614982     7B3u    4.614982    12B1u    4.913700  
      12Ag     5.143891     7B2g    5.404032     7B3g    5.404032  
      13Ag     5.578703    13B1u    8.881349  

    Final Occupation by Irrep:
             Ag   B1g   B2g   B3g    Au   B1u   B2u   B3u 
    DOCC [     3,    0,    0,    0,    0,    2,    1,    1 ]
    SOCC [     0,    0,    0,    0,    0,    0,    0,    0 ]
    NA   [     3,    0,    0,    0,    0,    2,    1,    1 ]
    NB   [     3,    0,    0,    0,    0,    2,    1,    1 ]

  @DF-UKS Final Energy:  -109.43243358264759

   => Energetics <=

    Nuclear Repulsion Energy =             18.5682463518858150
    One-Electron Energy =                -184.6288004121443862
    Two-Electron Energy =                  67.4913193790716122
    DFT Exchange-Correlation Energy =     -10.8631989014606347
    Empirical Dispersion Energy =           0.0000000000000000
    VV10 Nonlocal Energy =                  0.0000000000000000
    Total Energy =                       -109.4324335826475902

  UHF NO Occupations:
  HONO-2 :    2B1u 2.0000000
  HONO-1 :    3 Ag 2.0000000
  HONO-0 :    1B3u 2.0000000
  LUNO+0 :    3B1u 0.0000000
  LUNO+1 :    4B1u 0.0000000
  LUNO+2 :    4 Ag 0.0000000
  LUNO+3 :    5B1u 0.0000000


Computation Completed


Properties will be evaluated at   0.000000,   0.000000,   0.000000 [a0]

Properties computed using the B3LYP density matrix


 Multipole Moments:

 ------------------------------------------------------------------------------------
     Multipole            Electronic (a.u.)      Nuclear  (a.u.)        Total (a.u.)
 ------------------------------------------------------------------------------------

 L = 1.  Multiply by 2.5417464519 to convert [e a0] to [Debye]
 Dipole X            :          0.0000000            0.0000000            0.0000000
 Dipole Y            :          0.0000000            0.0000000            0.0000000
 Dipole Z            :          0.0000000            0.0000000            0.0000000
 Magnitude           :                                                    0.0000000

 L = 2.  Multiply by 1.3450342976 to convert [e a0^2] to [Debye ang]
 Quadrupole XX       :         -8.1004001            0.0000000           -8.1004001
 Quadrupole XY       :          0.0000000            0.0000000            0.0000000
 Quadrupole XZ       :          0.0000000            0.0000000            0.0000000
 Quadrupole YY       :         -8.1004001            0.0000000           -8.1004001
 Quadrupole YZ       :          0.0000000            0.0000000            0.0000000
 Quadrupole ZZ       :        -32.9819463           24.3735296           -8.6084167
 Traceless XX        :          8.2938487           -8.1245099            0.1693388
 Traceless YY        :          8.2938487           -8.1245099            0.1693388
 Traceless ZZ        :        -16.5876974           16.2490197           -0.3386777

 ------------------------------------------------------------------------------------
  ==> Computing MBIS Charges <==

  Electron Count from Grid (Expected Number): 14.00000 (14.00000)
  Difference:  0.00000

  MBIS Charges: (a.u.)
   Center  Symbol  Z      Pop.       Charge
      1       N    7    7.000000   -0.000000
      2       N    7    7.000000   -0.000000

  MBIS Dipoles: [e a0]
   Center  Symbol  Z        X           Y           Z
      1       N    7   -0.000000   -0.000000   -0.014331
      2       N    7   -0.000000    0.000000    0.014331

  MBIS Quadrupoles: [e a0^2]
   Center  Symbol  Z      XX        XY        XZ        YY        YZ        ZZ
      1       N    7   -4.0502    0.0000   -0.0000   -4.0502   -0.0000   -4.3420
      2       N    7   -4.0502    0.0000    0.0000   -4.0502    0.0000   -4.3420

  MBIS Octupoles: [e a0^3]
   Center  Symbol  Z      XXX       XXY       XXZ       XYY       XYZ       XZZ       YYY       YYZ       YZZ       ZZZ
      1       N    7   -0.0000   -0.0000   -0.1386    0.0000   -0.0000    0.0000   -0.0000   -0.1386    0.0000   -0.2809
      2       N    7   -0.0000    0.0000    0.1386    0.0000    0.0000    0.0000   -0.0000    0.1386   -0.0000    0.2809

  MBIS Radial Moments:
   Center  Symbol  Z      [a0^2]      [a0^3]      [a0^4]      
      1       N    7   12.442426   26.363455   66.500473
      2       N    7   12.442426   26.363455   66.500473

  MBIS Valence Widths: [a0]
   Center  Symbol  Z     Width
      1       N    7    0.443876
      2       N    7    0.443876

*** tstop() called on Mac.lan at Sun Aug 10 17:07:21 2025
Module time:
	user time   =       7.42 seconds =       0.12 minutes
	system time =       1.87 seconds =       0.03 minutes
	total time  =          1 seconds =       0.02 minutes
Total time:
	user time   =      34.05 seconds =       0.57 minutes
	system time =       3.61 seconds =       0.06 minutes
	total time  =          4 seconds =       0.07 minutes

    Psi4 stopped on: Sunday, 10 August 2025 05:07PM
    Psi4 wall time for execution: 0:00:03.83

*** Psi4 exiting successfully. Buy a developer a beer!
