
    -----------------------------------------------------------------------
          Psi4: An Open-Source Ab Initio Electronic Structure Package
                               Psi4 1.9.1 release

                         Git: Rev {} zzzzzzz 


    D. G. A. Smith, L. A. Burns, A. C. Simmonett, R. M. Parrish,
    M. C. Schieber, R. Galvelis, P. Kraus, H. Kruse, R. Di Remigio,
    A. Alenaizan, A. M. James, S. Lehtola, J. P. Misiewicz, M. Scheurer,
    R. A. Shaw, J. B. Schriber, Y. Xie, Z. L. Glick, D. A. Sirianni,
    J. S. O'Brien, J. M. Waldrop, A. Kumar, E. G. Hohenstein,
    B. P. Pritchard, B. R. Brooks, H. F. Schaefer III, A. Yu. Sokolov,
    K. Patkowski, A. E. DePrince III, U. Bozkaya, R. A. King,
    F. A. Evangelista, J. M. Turney, T. D. Crawford, C. D. Sherrill,
    J. Chem. Phys. 152(18) 184108 (2020). https://doi.org/10.1063/5.0006002

                            Additional Code Authors
    E. T. Seidl, C. L. Janssen, E. F. Valeev, M. L. Leininger,
    J. F. Gonthier, R. M. Richard, H. R. McAlexander, M. Saitow, X. Wang,
    P. Verma, M. H. Lechner, A. Jiang, S. Behnle, A. G. Heide,
    M. F. Herbst, and D. L. Poole

             Previous Authors, Complete List of Code Contributors,
                       and Citations for Specific Modules
    https://github.com/psi4/psi4/blob/master/codemeta.json
    https://github.com/psi4/psi4/graphs/contributors
    http://psicode.org/psi4manual/master/introduction.html#citing-psifour

    -----------------------------------------------------------------------


    Psi4 started on: Sunday, 10 August 2025 05:14PM

    Process ID: 48516
    Host:       Mac.lan
    PSIDATADIR: /Users/joseantoniorodriguesromero/anaconda3/share/psi4
    Memory:     500.0 MiB
    Threads:    1
    
  ==> Input File <==

--------------------------------------------------------------------------
molecule { 
0 2
N           0.000000           0.000000           0.000000
C           0.000000           0.000000           1.338387
}

set { 
basis              cc-pvtz
reference          uks
maxiter            500
DAMPING_PERCENTAGE 1
E_CONVERGENCE      1.0E-8
D_CONVERGENCE      1.0E-8
DIIS_MAX_VECS      400
MBIS_MAXITER       8000
guess              read
}

E, wfn = energy('b3lyp', restart_file='last_wfn', return_wfn=True)
properties('b3lyp','MBIS_CHARGES', wfn=wfn)
wfn.to_file('last_wfn')
--------------------------------------------------------------------------

Scratch directory: /tmp/
 Found user provided orbital data. Setting orbital guess to READ 
 Copying restart file <last_wfn.npy> to </tmp/scan_CN_31.default.48516.180.npy> for internal processing
   => Libint2 <=

    Primary   basis highest AM E, G, H:  6, 6, 3
    Auxiliary basis highest AM E, G, H:  7, 7, 4
    Onebody   basis highest AM E, G, H:  -, -, -
    Solid Harmonics ordering:            Gaussian

*** tstart() called on Mac.lan
*** at Sun Aug 10 17:14:04 2025

   => Loading Basis Set <=

    Name: CC-PVTZ
    Role: ORBITAL
    Keyword: BASIS
    atoms 1 entry N          line   224 file /Users/joseantoniorodriguesromero/anaconda3/share/psi4/basis/cc-pvtz.gbs 
    atoms 2 entry C          line   186 file /Users/joseantoniorodriguesromero/anaconda3/share/psi4/basis/cc-pvtz.gbs 


         ---------------------------------------------------------
                                   SCF
               by Justin Turney, Rob Parrish, Andy Simmonett
                          and Daniel G. A. Smith
                              UKS Reference
                        1 Threads,    500 MiB Core
         ---------------------------------------------------------

  ==> Geometry <==

    Molecular point group: c2v
    Full point group: C_inf_v

    Geometry (in Angstrom), charge = 0, multiplicity = 2:

       Center              X                  Y                   Z               Mass       
    ------------   -----------------  -----------------  -----------------  -----------------
         N            0.000000000000     0.000000000000    -0.617644052286    14.003074004430
         C            0.000000000000     0.000000000000     0.720742947714    12.000000000000

  Running in c2v symmetry.

  Rotational constants: A = ************  B =      1.45631  C =      1.45631 [cm^-1]
  Rotational constants: A = ************  B =  43659.00583  C =  43659.00583 [MHz]
  Nuclear repulsion =   16.606140711274094

  Charge       = 0
  Multiplicity = 2
  Electrons    = 13
  Nalpha       = 7
  Nbeta        = 6

  ==> Algorithm <==

  SCF Algorithm Type is DF.
  DIIS enabled.
  MOM disabled.
  Fractional occupation disabled.
  Guess Type is READ.
  Energy threshold   = 1.00e-08
  Density threshold  = 1.00e-08
  Integral threshold = 1.00e-12

  ==> Primary Basis <==

  Basis Set: CC-PVTZ
    Blend: CC-PVTZ
    Number of shells: 20
    Number of basis functions: 60
    Number of Cartesian functions: 70
    Spherical Harmonics?: true
    Max angular momentum: 3

  ==> DFT Potential <==

   => LibXC <=

    Version 6.2.2
    S. Lehtola, C. Steigemann, M. J.T. Oliveira, and M. A.L. Marques.,  SoftwareX 7, 1–5 (2018) (10.1016/j.softx.2017.11.002)

   => Composite Functional: B3LYP <= 

    B3LYP Hyb-GGA Exchange-Correlation Functional

    P. J. Stephens, F. J. Devlin, C. F. Chabalowski, and M. J. Frisch.,  J. Phys. Chem. 98, 11623 (1994) (10.1021/j100096a001)

    Deriv               =              1
    GGA                 =           TRUE
    Meta                =          FALSE

    Exchange Hybrid     =           TRUE
    MP2 Hybrid          =          FALSE

   => Exchange Functionals <=

    0.0800   Slater exchange
    0.7200         Becke 88

   => Exact (HF) Exchange <=

    0.2000               HF 

   => Correlation Functionals <=

    0.1900   Vosko, Wilk & Nusair (VWN5_RPA)
    0.8100   Lee, Yang & Parr

   => LibXC Density Thresholds  <==

    XC_HYB_GGA_XC_B3LYP:  1.00E-15 

   => Molecular Quadrature <=

    Radial Scheme          =       TREUTLER
    Pruning Scheme         =           NONE
    Nuclear Scheme         =       TREUTLER

    Blocking Scheme        =         OCTREE
    BS radius alpha        =              1
    Pruning alpha          =              1
    Radial Points          =             75
    Spherical Points       =            302
    Total Points           =          43258
    Total Blocks           =            393
    Max Points             =            256
    Max Functions          =             60
    Weights Tolerance      =       1.00E-15

   => Loading Basis Set <=

    Name: (CC-PVTZ AUX)
    Role: JKFIT
    Keyword: DF_BASIS_SCF
    atoms 1 entry N          line   177 file /Users/joseantoniorodriguesromero/anaconda3/share/psi4/basis/cc-pvtz-jkfit.gbs 
    atoms 2 entry C          line   125 file /Users/joseantoniorodriguesromero/anaconda3/share/psi4/basis/cc-pvtz-jkfit.gbs 

   => Loading Basis Set <=

    Name: CC-PVTZ
    Role: ORBITAL
    Keyword: BASIS
    atoms 1 entry N          line   224 file /Users/joseantoniorodriguesromero/anaconda3/share/psi4/basis/cc-pvtz.gbs 
    atoms 2 entry C          line   186 file /Users/joseantoniorodriguesromero/anaconda3/share/psi4/basis/cc-pvtz.gbs 

  Reading orbitals from file /tmp/scan_CN_31.default.48516.180.npy, no projection.

  ==> Integral Setup <==

  DFHelper Memory: AOs need 0.005 GiB; user supplied 0.294 GiB. 
  Using in-core AOs.

  ==> MemDFJK: Density-Fitted J/K Matrices <==

    J tasked:                   Yes
    K tasked:                   Yes
    wK tasked:                   No
    OpenMP threads:               1
    Memory [MiB]:               301
    Algorithm:                 Core
    Schwarz Cutoff:           1E-12
    Mask sparsity (%):       0.0000
    Fitting Condition:        1E-10

   => Auxiliary Basis Set <=

  Basis Set: (CC-PVTZ AUX)
    Blend: CC-PVTZ-JKFIT
    Number of shells: 50
    Number of basis functions: 158
    Number of Cartesian functions: 192
    Spherical Harmonics?: true
    Max angular momentum: 4

  Cached 100.0% of DFT collocation blocks in 0.072 [GiB].

  Minimum eigenvalue in the overlap matrix is 2.8299882500E-03.
  Reciprocal condition number of the overlap matrix is 7.1589638150E-04.
    Using symmetric orthogonalization.

  ==> Pre-Iterations <==

  SCF Guess: Orbitals guess was supplied from a previous computation.

   -------------------------------------------------------
    Irrep   Nso     Nmo     Nalpha   Nbeta   Ndocc  Nsocc
   -------------------------------------------------------
     A1        26      26       5       4       4       1
     A2         6       6       0       0       0       0
     B1        14      14       1       1       1       0
     B2        14      14       1       1       1       0
   -------------------------------------------------------
    Total      60      60       7       6       6       1
   -------------------------------------------------------

  ==> Iterations <==

                           Total Energy        Delta E     RMS |[F,P]|

   @DF-UKS iter   0:   -92.68680503523586   -9.26868e+01   1.61191e-03 
   @DF-UKS iter   1:   -92.70288142483233   -1.60764e-02   5.29769e-04 ADIIS/DIIS
   @DF-UKS iter   2:   -92.70175628895528    1.12514e-03   1.63461e-03 ADIIS/DIIS/DAMP=1%
   @DF-UKS iter   3:   -92.70235940480541   -6.03116e-04   3.78375e-04 ADIIS/DIIS/DAMP=1%
   @DF-UKS iter   4:   -92.70301047475512   -6.51070e-04   4.65221e-05 DIIS/DAMP=1%
   @DF-UKS iter   5:   -92.70303931968107   -2.88449e-05   9.28819e-06 DIIS/DAMP=1%
   @DF-UKS iter   6:   -92.70305416639317   -1.48467e-05   6.27064e-06 DIIS/DAMP=1%
   @DF-UKS iter   7:   -92.70305478979498   -6.23402e-07   3.00427e-06 DIIS/DAMP=1%
   @DF-UKS iter   8:   -92.70305363968089    1.15011e-06   2.02302e-06 DIIS/DAMP=1%
   @DF-UKS iter   9:   -92.70305463791021   -9.98229e-07   4.16690e-07 DIIS/DAMP=1%
   @DF-UKS iter  10:   -92.70305388807319    7.49837e-07   4.47730e-08 DIIS/DAMP=1%
   @DF-UKS iter  11:   -92.70305395753746   -6.94643e-08   1.68722e-08 DIIS/DAMP=1%
   @DF-UKS iter  12:   -92.70305393395549    2.35820e-08   1.07108e-09 DIIS/DAMP=1%
   @DF-UKS iter  13:   -92.70305393965145   -5.69597e-09   2.62314e-10 DIIS/DAMP=1%
  Energy and wave function converged.


  ==> Post-Iterations <==

   Electrons on quadrature grid:
      Nalpha   =    7.0000002714 ; deviation = 2.714e-07
      Nbeta    =    6.0000003036 ; deviation = 3.036e-07
      Ntotal   =   13.0000005750 ; deviation = 5.750e-07 

   @Spin Contamination Metric:   9.866424319E-03
   @S^2 Expected:                7.500000000E-01
   @S^2 Observed:                7.598664243E-01
   @S   Expected:                5.000000000E-01
   @S   Observed:                5.000000000E-01

    Orbital Energies [Eh]
    ---------------------

    Alpha Occupied:                                                       

       1A1   -14.429603     2A1   -10.339398     3A1    -0.907290  
       4A1    -0.537982     5A1    -0.412025     1B1    -0.363755  
       1B2    -0.363755  

    Alpha Virtual:                                                        

       2B1    -0.074103     2B2    -0.074103     6A1     0.157846  
       7A1     0.283059     3B1     0.287864     3B2     0.287864  
       8A1     0.393221     9A1     0.440691     4B1     0.504555  
       4B2     0.504555     1A2     0.623740    10A1     0.623740  
       5B2     0.760563     5B1     0.760563    11A1     0.869280  
      12A1     1.107016     2A2     1.114205    13A1     1.114205  
       6B1     1.433186     6B2     1.433186    14A1     1.657118  
       7B1     1.965382     7B2     1.965382    15A1     2.129349  
       8B2     2.624783     8B1     2.624783     3A2     2.642908  
      16A1     2.642908     9B2     2.668854     9B1     2.668854  
      17A1     2.842143    10B1     2.892935    10B2     2.892935  
       4A2     2.902960    18A1     2.902962    19A1     2.952032  
      11B1     3.283959    11B2     3.283959    20A1     3.455684  
      12B2     3.884051    12B1     3.884051     5A2     4.174918  
      21A1     4.174918    22A1     4.473353     6A2     4.473361  
      23A1     4.621650    13B1     4.625565    13B2     4.625565  
      24A1     5.092431    14B1     5.120527    14B2     5.120527  
      25A1     5.382916    26A1     9.599979  

    Beta Occupied:                                                        

       1A1   -14.422976     2A1   -10.326108     3A1    -0.881318  
       4A1    -0.470133     1B1    -0.356252     1B2    -0.356252  

    Beta Virtual:                                                         

       5A1    -0.255517     2B1    -0.055270     2B2    -0.055270  
       6A1     0.167233     3B1     0.295575     3B2     0.295575  
       7A1     0.317451     8A1     0.417342     9A1     0.482246  
       4B1     0.505619     4B2     0.505619     1A2     0.631912  
      10A1     0.631912     5B2     0.789219     5B1     0.789219  
      11A1     0.882174     2A2     1.115348    12A1     1.115348  
      13A1     1.141984     6B1     1.454560     6B2     1.454560  
      14A1     1.685136     7B1     1.978010     7B2     1.978010  
      15A1     2.178473     8B2     2.637421     8B1     2.637421  
       3A2     2.664330    16A1     2.664330     9B2     2.690031  
       9B1     2.690031    17A1     2.888854     4A2     2.928891  
      18A1     2.928893    10B2     2.929516    10B1     2.929516  
      19A1     3.013822    11B1     3.323463    11B2     3.323463  
      20A1     3.500457    12B2     3.878891    12B1     3.878891  
       5A2     4.183814    21A1     4.183814    22A1     4.474766  
       6A2     4.474774    13B1     4.656519    13B2     4.656519  
      23A1     4.663559    24A1     5.137766    14B1     5.150730  
      14B2     5.150730    25A1     5.398770    26A1     9.618675  

    Final Occupation by Irrep:
             A1    A2    B1    B2 
    DOCC [     4,    0,    1,    1 ]
    SOCC [     1,    0,    0,    0 ]
    NA   [     5,    0,    1,    1 ]
    NB   [     4,    0,    1,    1 ]

  @DF-UKS Final Energy:   -92.70305393965145

   => Energetics <=

    Nuclear Repulsion Energy =             16.6061407112740937
    One-Electron Energy =                -157.4535028091017921
    Two-Electron Energy =                  57.8560598273930964
    DFT Exchange-Correlation Energy =      -9.7117516692168380
    Empirical Dispersion Energy =           0.0000000000000000
    VV10 Nonlocal Energy =                  0.0000000000000000
    Total Energy =                        -92.7030539396514399

  UHF NO Occupations:
  HONO-2 :    1 B2 1.9986540
  HONO-1 :    4 A1 1.9979177
  HONO-0 :    5 A1 1.0000000
  LUNO+0 :    6 A1 0.0020823
  LUNO+1 :    2 B1 0.0013460
  LUNO+2 :    2 B2 0.0013460
  LUNO+3 :    7 A1 0.0001623


Computation Completed


Properties will be evaluated at   0.000000,   0.000000,   0.000000 [a0]

Properties computed using the SCF density matrix


 Multipole Moments:

 ------------------------------------------------------------------------------------
     Multipole            Electronic (a.u.)      Nuclear  (a.u.)        Total (a.u.)
 ------------------------------------------------------------------------------------

 L = 1.  Multiply by 2.5417464519 to convert [e a0] to [Debye]
 Dipole X            :          0.0000000            0.0000000            0.0000000
 Dipole Y            :          0.0000000            0.0000000            0.0000000
 Dipole Z            :          0.4263287            0.0017940            0.4281227
 Magnitude           :                                                    0.4281227

 ------------------------------------------------------------------------------------

*** tstop() called on Mac.lan at Sun Aug 10 17:14:06 2025
Module time:
	user time   =      16.89 seconds =       0.28 minutes
	system time =       2.42 seconds =       0.04 minutes
	total time  =          2 seconds =       0.03 minutes
Total time:
	user time   =      16.89 seconds =       0.28 minutes
	system time =       2.42 seconds =       0.04 minutes
	total time  =          2 seconds =       0.03 minutes

*** tstart() called on Mac.lan
*** at Sun Aug 10 17:14:06 2025

   => Libint2 <=

    Primary   basis highest AM E, G, H:  6, 6, 3
    Auxiliary basis highest AM E, G, H:  7, 7, 4
    Onebody   basis highest AM E, G, H:  -, -, -
    Solid Harmonics ordering:            Gaussian
   => Loading Basis Set <=

    Name: CC-PVTZ
    Role: ORBITAL
    Keyword: BASIS
    atoms 1 entry N          line   224 file /Users/joseantoniorodriguesromero/anaconda3/share/psi4/basis/cc-pvtz.gbs 
    atoms 2 entry C          line   186 file /Users/joseantoniorodriguesromero/anaconda3/share/psi4/basis/cc-pvtz.gbs 


         ---------------------------------------------------------
                                   SCF
               by Justin Turney, Rob Parrish, Andy Simmonett
                          and Daniel G. A. Smith
                              UKS Reference
                        1 Threads,    500 MiB Core
         ---------------------------------------------------------

  ==> Geometry <==

    Molecular point group: c2v
    Full point group: C_inf_v

    Geometry (in Angstrom), charge = 0, multiplicity = 2:

       Center              X                  Y                   Z               Mass       
    ------------   -----------------  -----------------  -----------------  -----------------
         N            0.000000000000     0.000000000000    -0.617644052286    14.003074004430
         C            0.000000000000     0.000000000000     0.720742947714    12.000000000000

  Running in c2v symmetry.

  Rotational constants: A = ************  B =      1.45631  C =      1.45631 [cm^-1]
  Rotational constants: A = ************  B =  43659.00583  C =  43659.00583 [MHz]
  Nuclear repulsion =   16.606140711274094

  Charge       = 0
  Multiplicity = 2
  Electrons    = 13
  Nalpha       = 7
  Nbeta        = 6

  ==> Algorithm <==

  SCF Algorithm Type is DF.
  DIIS enabled.
  MOM disabled.
  Fractional occupation disabled.
  Guess Type is READ.
  Energy threshold   = 1.00e-08
  Density threshold  = 1.00e-08
  Integral threshold = 1.00e-12

  ==> Primary Basis <==

  Basis Set: CC-PVTZ
    Blend: CC-PVTZ
    Number of shells: 20
    Number of basis functions: 60
    Number of Cartesian functions: 70
    Spherical Harmonics?: true
    Max angular momentum: 3

  ==> DFT Potential <==

   => LibXC <=

    Version 6.2.2
    S. Lehtola, C. Steigemann, M. J.T. Oliveira, and M. A.L. Marques.,  SoftwareX 7, 1–5 (2018) (10.1016/j.softx.2017.11.002)

   => Composite Functional: B3LYP <= 

    B3LYP Hyb-GGA Exchange-Correlation Functional

    P. J. Stephens, F. J. Devlin, C. F. Chabalowski, and M. J. Frisch.,  J. Phys. Chem. 98, 11623 (1994) (10.1021/j100096a001)

    Deriv               =              1
    GGA                 =           TRUE
    Meta                =          FALSE

    Exchange Hybrid     =           TRUE
    MP2 Hybrid          =          FALSE

   => Exchange Functionals <=

    0.0800   Slater exchange
    0.7200         Becke 88

   => Exact (HF) Exchange <=

    0.2000               HF 

   => Correlation Functionals <=

    0.1900   Vosko, Wilk & Nusair (VWN5_RPA)
    0.8100   Lee, Yang & Parr

   => LibXC Density Thresholds  <==

    XC_HYB_GGA_XC_B3LYP:  1.00E-15 

   => Molecular Quadrature <=

    Radial Scheme          =       TREUTLER
    Pruning Scheme         =           NONE
    Nuclear Scheme         =       TREUTLER

    Blocking Scheme        =         OCTREE
    BS radius alpha        =              1
    Pruning alpha          =              1
    Radial Points          =             75
    Spherical Points       =            302
    Total Points           =          43258
    Total Blocks           =            393
    Max Points             =            256
    Max Functions          =             60
    Weights Tolerance      =       1.00E-15

   => Loading Basis Set <=

    Name: (CC-PVTZ AUX)
    Role: JKFIT
    Keyword: DF_BASIS_SCF
    atoms 1 entry N          line   177 file /Users/joseantoniorodriguesromero/anaconda3/share/psi4/basis/cc-pvtz-jkfit.gbs 
    atoms 2 entry C          line   125 file /Users/joseantoniorodriguesromero/anaconda3/share/psi4/basis/cc-pvtz-jkfit.gbs 

   => Loading Basis Set <=

    Name: CC-PVTZ
    Role: ORBITAL
    Keyword: BASIS
    atoms 1 entry N          line   224 file /Users/joseantoniorodriguesromero/anaconda3/share/psi4/basis/cc-pvtz.gbs 
    atoms 2 entry C          line   186 file /Users/joseantoniorodriguesromero/anaconda3/share/psi4/basis/cc-pvtz.gbs 

  Reading orbitals from file /tmp/scan_CN_31.default.48516.180.npy, no projection.

  ==> Integral Setup <==

  DFHelper Memory: AOs need 0.005 GiB; user supplied 0.294 GiB. 
  Using in-core AOs.

  ==> MemDFJK: Density-Fitted J/K Matrices <==

    J tasked:                   Yes
    K tasked:                   Yes
    wK tasked:                   No
    OpenMP threads:               1
    Memory [MiB]:               301
    Algorithm:                 Core
    Schwarz Cutoff:           1E-12
    Mask sparsity (%):       0.0000
    Fitting Condition:        1E-10

   => Auxiliary Basis Set <=

  Basis Set: (CC-PVTZ AUX)
    Blend: CC-PVTZ-JKFIT
    Number of shells: 50
    Number of basis functions: 158
    Number of Cartesian functions: 192
    Spherical Harmonics?: true
    Max angular momentum: 4

  Cached 100.0% of DFT collocation blocks in 0.072 [GiB].

  Minimum eigenvalue in the overlap matrix is 2.8299882500E-03.
  Reciprocal condition number of the overlap matrix is 7.1589638150E-04.
    Using symmetric orthogonalization.

  ==> Pre-Iterations <==

  SCF Guess: Orbitals guess was supplied from a previous computation.

   -------------------------------------------------------
    Irrep   Nso     Nmo     Nalpha   Nbeta   Ndocc  Nsocc
   -------------------------------------------------------
     A1        26      26       5       4       4       1
     A2         6       6       0       0       0       0
     B1        14      14       1       1       1       0
     B2        14      14       1       1       1       0
   -------------------------------------------------------
    Total      60      60       7       6       6       1
   -------------------------------------------------------

  ==> Iterations <==

                           Total Energy        Delta E     RMS |[F,P]|

   @DF-UKS iter   0:   -92.70305393963514   -9.27031e+01   5.08135e-11 
   @DF-UKS iter   1:   -92.70305393963505    8.52651e-14   2.08427e-10 DIIS
  Energy and wave function converged.


  ==> Post-Iterations <==

   Electrons on quadrature grid:
      Nalpha   =    7.0000002714 ; deviation = 2.714e-07
      Nbeta    =    6.0000003036 ; deviation = 3.036e-07
      Ntotal   =   13.0000005750 ; deviation = 5.750e-07 

   @Spin Contamination Metric:   9.866424808E-03
   @S^2 Expected:                7.500000000E-01
   @S^2 Observed:                7.598664248E-01
   @S   Expected:                5.000000000E-01
   @S   Observed:                5.000000000E-01

    Orbital Energies [Eh]
    ---------------------

    Alpha Occupied:                                                       

       1A1   -14.429603     2A1   -10.339398     3A1    -0.907290  
       4A1    -0.537982     5A1    -0.412025     1B1    -0.363755  
       1B2    -0.363755  

    Alpha Virtual:                                                        

       2B1    -0.074103     2B2    -0.074103     6A1     0.157846  
       7A1     0.283059     3B1     0.287864     3B2     0.287864  
       8A1     0.393221     9A1     0.440691     4B1     0.504555  
       4B2     0.504555     1A2     0.623740    10A1     0.623740  
       5B2     0.760563     5B1     0.760563    11A1     0.869280  
      12A1     1.107016     2A2     1.114205    13A1     1.114205  
       6B1     1.433186     6B2     1.433186    14A1     1.657118  
       7B1     1.965382     7B2     1.965382    15A1     2.129349  
       8B1     2.624783     8B2     2.624783     3A2     2.642908  
      16A1     2.642908     9B2     2.668854     9B1     2.668854  
      17A1     2.842143    10B2     2.892935    10B1     2.892935  
       4A2     2.902960    18A1     2.902962    19A1     2.952032  
      11B1     3.283959    11B2     3.283959    20A1     3.455684  
      12B2     3.884051    12B1     3.884051     5A2     4.174918  
      21A1     4.174918    22A1     4.473353     6A2     4.473361  
      23A1     4.621650    13B1     4.625565    13B2     4.625565  
      24A1     5.092431    14B1     5.120527    14B2     5.120527  
      25A1     5.382916    26A1     9.599979  

    Beta Occupied:                                                        

       1A1   -14.422976     2A1   -10.326108     3A1    -0.881318  
       4A1    -0.470133     1B1    -0.356252     1B2    -0.356252  

    Beta Virtual:                                                         

       5A1    -0.255517     2B1    -0.055270     2B2    -0.055270  
       6A1     0.167233     3B1     0.295575     3B2     0.295575  
       7A1     0.317451     8A1     0.417342     9A1     0.482246  
       4B1     0.505619     4B2     0.505619     1A2     0.631912  
      10A1     0.631912     5B2     0.789219     5B1     0.789219  
      11A1     0.882174     2A2     1.115348    12A1     1.115348  
      13A1     1.141984     6B1     1.454560     6B2     1.454560  
      14A1     1.685136     7B1     1.978010     7B2     1.978010  
      15A1     2.178473     8B1     2.637421     8B2     2.637421  
       3A2     2.664330    16A1     2.664330     9B2     2.690031  
       9B1     2.690031    17A1     2.888854     4A2     2.928891  
      18A1     2.928893    10B2     2.929516    10B1     2.929516  
      19A1     3.013822    11B1     3.323463    11B2     3.323463  
      20A1     3.500457    12B2     3.878891    12B1     3.878891  
       5A2     4.183814    21A1     4.183814    22A1     4.474766  
       6A2     4.474774    13B1     4.656519    13B2     4.656519  
      23A1     4.663559    24A1     5.137766    14B1     5.150730  
      14B2     5.150730    25A1     5.398770    26A1     9.618675  

    Final Occupation by Irrep:
             A1    A2    B1    B2 
    DOCC [     4,    0,    1,    1 ]
    SOCC [     1,    0,    0,    0 ]
    NA   [     5,    0,    1,    1 ]
    NB   [     4,    0,    1,    1 ]

  @DF-UKS Final Energy:   -92.70305393963505

   => Energetics <=

    Nuclear Repulsion Energy =             16.6061407112740937
    One-Electron Energy =                -157.4535028100673344
    Two-Electron Energy =                  57.8560598278651952
    DFT Exchange-Correlation Energy =      -9.7117516687070164
    Empirical Dispersion Energy =           0.0000000000000000
    VV10 Nonlocal Energy =                  0.0000000000000000
    Total Energy =                        -92.7030539396350548

  UHF NO Occupations:
  HONO-2 :    1 B1 1.9986540
  HONO-1 :    4 A1 1.9979177
  HONO-0 :    5 A1 1.0000000
  LUNO+0 :    6 A1 0.0020823
  LUNO+1 :    2 B1 0.0013460
  LUNO+2 :    2 B2 0.0013460
  LUNO+3 :    7 A1 0.0001623


Computation Completed


Properties will be evaluated at   0.000000,   0.000000,   0.000000 [a0]

Properties computed using the B3LYP density matrix


 Multipole Moments:

 ------------------------------------------------------------------------------------
     Multipole            Electronic (a.u.)      Nuclear  (a.u.)        Total (a.u.)
 ------------------------------------------------------------------------------------

 L = 1.  Multiply by 2.5417464519 to convert [e a0] to [Debye]
 Dipole X            :          0.0000000            0.0000000            0.0000000
 Dipole Y            :          0.0000000            0.0000000            0.0000000
 Dipole Z            :          0.4263288            0.0017940            0.4281228
 Magnitude           :                                                    0.4281228

 L = 2.  Multiply by 1.3450342976 to convert [e a0^2] to [Debye ang]
 Quadrupole XX       :         -8.5535432            0.0000000           -8.5535432
 Quadrupole XY       :          0.0000000            0.0000000            0.0000000
 Quadrupole XZ       :          0.0000000            0.0000000            0.0000000
 Quadrupole YY       :         -8.5535432            0.0000000           -8.5535432
 Quadrupole YZ       :          0.0000000            0.0000000            0.0000000
 Quadrupole ZZ       :        -28.3078200           20.6665078           -7.6413122
 Traceless XX        :          6.5847589           -6.8888359           -0.3040770
 Traceless YY        :          6.5847589           -6.8888359           -0.3040770
 Traceless ZZ        :        -13.1695179           13.7776719            0.6081540

 ------------------------------------------------------------------------------------
  ==> Computing MBIS Charges <==

  Electron Count from Grid (Expected Number): 13.00000 (13.00000)
  Difference:  0.00000

  MBIS Charges: (a.u.)
   Center  Symbol  Z      Pop.       Charge
      1       N    7    7.197721   -0.197721
      2       C    6    5.802280    0.197720

  MBIS Dipoles: [e a0]
   Center  Symbol  Z        X           Y           Z
      1       N    7    0.000000   -0.000000   -0.229298
      2       C    6   -0.000000    0.000000    0.157350

  MBIS Quadrupoles: [e a0^2]
   Center  Symbol  Z      XX        XY        XZ        YY        YZ        ZZ
      1       N    7   -4.3947   -0.0000   -0.0000   -4.3947    0.0000   -4.4490
      2       C    6   -4.1589    0.0000    0.0000   -4.1589    0.0000   -4.2536

  MBIS Octupoles: [e a0^3]
   Center  Symbol  Z      XXX       XXY       XXZ       XYY       XYZ       XZZ       YYY       YYZ       YZZ       ZZZ
      1       N    7   -0.0000   -0.0000   -0.3333   -0.0000    0.0000   -0.0000   -0.0000   -0.3333    0.0000   -0.8022
      2       C    6   -0.0000   -0.0000    0.2875   -0.0000   -0.0000    0.0000   -0.0000    0.2875   -0.0000    0.5797

  MBIS Radial Moments:
   Center  Symbol  Z      [a0^2]      [a0^3]      [a0^4]      
      1       N    7   13.238382   28.484251   73.057430
      2       C    6   12.571330   30.177692   86.157681

  MBIS Valence Widths: [a0]
   Center  Symbol  Z     Width
      1       N    7    0.449523
      2       C    6    0.508417

*** tstop() called on Mac.lan at Sun Aug 10 17:14:06 2025
Module time:
	user time   =       3.81 seconds =       0.06 minutes
	system time =       2.38 seconds =       0.04 minutes
	total time  =          0 seconds =       0.00 minutes
Total time:
	user time   =      20.73 seconds =       0.35 minutes
	system time =       4.97 seconds =       0.08 minutes
	total time  =          2 seconds =       0.03 minutes

    Psi4 stopped on: Sunday, 10 August 2025 05:14PM
    Psi4 wall time for execution: 0:00:02.49

*** Psi4 exiting successfully. Buy a developer a beer!
