
    -----------------------------------------------------------------------
          Psi4: An Open-Source Ab Initio Electronic Structure Package
                               Psi4 1.9.1 release

                         Git: Rev {} zzzzzzz 


    D. G. A. Smith, L. A. Burns, A. C. Simmonett, R. M. Parrish,
    M. C. Schieber, R. Galvelis, P. Kraus, H. Kruse, R. Di Remigio,
    A. Alenaizan, A. M. James, S. Lehtola, J. P. Misiewicz, M. Scheurer,
    R. A. Shaw, J. B. Schriber, Y. Xie, Z. L. Glick, D. A. Sirianni,
    J. S. O'Brien, J. M. Waldrop, A. Kumar, E. G. Hohenstein,
    B. P. Pritchard, B. R. Brooks, H. F. Schaefer III, A. Yu. Sokolov,
    K. Patkowski, A. E. DePrince III, U. Bozkaya, R. A. King,
    F. A. Evangelista, J. M. Turney, T. D. Crawford, C. D. Sherrill,
    J. Chem. Phys. 152(18) 184108 (2020). https://doi.org/10.1063/5.0006002

                            Additional Code Authors
    E. T. Seidl, C. L. Janssen, E. F. Valeev, M. L. Leininger,
    J. F. Gonthier, R. M. Richard, H. R. McAlexander, M. Saitow, X. Wang,
    P. Verma, M. H. Lechner, A. Jiang, S. Behnle, A. G. Heide,
    M. F. Herbst, and D. L. Poole

             Previous Authors, Complete List of Code Contributors,
                       and Citations for Specific Modules
    https://github.com/psi4/psi4/blob/master/codemeta.json
    https://github.com/psi4/psi4/graphs/contributors
    http://psicode.org/psi4manual/master/introduction.html#citing-psifour

    -----------------------------------------------------------------------


    Psi4 started on: Sunday, 10 August 2025 05:11PM

    Process ID: 48448
    Host:       Mac.lan
    PSIDATADIR: /Users/joseantoniorodriguesromero/anaconda3/share/psi4
    Memory:     500.0 MiB
    Threads:    1
    
  ==> Input File <==

--------------------------------------------------------------------------
molecule { 
0 2
O           0.000000           0.000000           0.000000
H           0.000000           0.000000           1.336602
}

set { 
basis              cc-pvtz
reference          uks
maxiter            500
DAMPING_PERCENTAGE 1
E_CONVERGENCE      1.0E-8
D_CONVERGENCE      1.0E-8
DIIS_MAX_VECS      400
MBIS_MAXITER       8000
guess              read
}

E, wfn = energy('b3lyp', restart_file='last_wfn', return_wfn=True)
properties('b3lyp','MBIS_CHARGES', wfn=wfn)
wfn.to_file('last_wfn')
--------------------------------------------------------------------------

Scratch directory: /tmp/
 Found user provided orbital data. Setting orbital guess to READ 
 Copying restart file <last_wfn.npy> to </tmp/scan_HO_43.default.48448.180.npy> for internal processing
   => Libint2 <=

    Primary   basis highest AM E, G, H:  6, 6, 3
    Auxiliary basis highest AM E, G, H:  7, 7, 4
    Onebody   basis highest AM E, G, H:  -, -, -
    Solid Harmonics ordering:            Gaussian

*** tstart() called on Mac.lan
*** at Sun Aug 10 17:11:49 2025

   => Loading Basis Set <=

    Name: CC-PVTZ
    Role: ORBITAL
    Keyword: BASIS
    atoms 1 entry O          line   262 file /Users/joseantoniorodriguesromero/anaconda3/share/psi4/basis/cc-pvtz.gbs 
    atoms 2 entry H          line    23 file /Users/joseantoniorodriguesromero/anaconda3/share/psi4/basis/cc-pvtz.gbs 


         ---------------------------------------------------------
                                   SCF
               by Justin Turney, Rob Parrish, Andy Simmonett
                          and Daniel G. A. Smith
                              UKS Reference
                        1 Threads,    500 MiB Core
         ---------------------------------------------------------

  ==> Geometry <==

    Molecular point group: c2v
    Full point group: C_inf_v

    Geometry (in Angstrom), charge = 0, multiplicity = 2:

       Center              X                  Y                   Z               Mass       
    ------------   -----------------  -----------------  -----------------  -----------------
         O            0.000000000000     0.000000000000    -0.079226111869    15.994914619570
         H            0.000000000000     0.000000000000     1.257375888131     1.007825032230

  Running in c2v symmetry.

  Rotational constants: A = ************  B =      9.95277  C =      9.95277 [cm^-1]
  Rotational constants: A = ************  B = 298376.64316  C = 298376.64316 [MHz]
  Nuclear repulsion =    3.167298631425061

  Charge       = 0
  Multiplicity = 2
  Electrons    = 9
  Nalpha       = 5
  Nbeta        = 4

  ==> Algorithm <==

  SCF Algorithm Type is DF.
  DIIS enabled.
  MOM disabled.
  Fractional occupation disabled.
  Guess Type is READ.
  Energy threshold   = 1.00e-08
  Density threshold  = 1.00e-08
  Integral threshold = 1.00e-12

  ==> Primary Basis <==

  Basis Set: CC-PVTZ
    Blend: CC-PVTZ
    Number of shells: 16
    Number of basis functions: 44
    Number of Cartesian functions: 50
    Spherical Harmonics?: true
    Max angular momentum: 3

  ==> DFT Potential <==

   => LibXC <=

    Version 6.2.2
    S. Lehtola, C. Steigemann, M. J.T. Oliveira, and M. A.L. Marques.,  SoftwareX 7, 1–5 (2018) (10.1016/j.softx.2017.11.002)

   => Composite Functional: B3LYP <= 

    B3LYP Hyb-GGA Exchange-Correlation Functional

    P. J. Stephens, F. J. Devlin, C. F. Chabalowski, and M. J. Frisch.,  J. Phys. Chem. 98, 11623 (1994) (10.1021/j100096a001)

    Deriv               =              1
    GGA                 =           TRUE
    Meta                =          FALSE

    Exchange Hybrid     =           TRUE
    MP2 Hybrid          =          FALSE

   => Exchange Functionals <=

    0.0800   Slater exchange
    0.7200         Becke 88

   => Exact (HF) Exchange <=

    0.2000               HF 

   => Correlation Functionals <=

    0.1900   Vosko, Wilk & Nusair (VWN5_RPA)
    0.8100   Lee, Yang & Parr

   => LibXC Density Thresholds  <==

    XC_HYB_GGA_XC_B3LYP:  1.00E-15 

   => Molecular Quadrature <=

    Radial Scheme          =       TREUTLER
    Pruning Scheme         =           NONE
    Nuclear Scheme         =       TREUTLER

    Blocking Scheme        =         OCTREE
    BS radius alpha        =              1
    Pruning alpha          =              1
    Radial Points          =             75
    Spherical Points       =            302
    Total Points           =          44188
    Total Blocks           =            394
    Max Points             =            255
    Max Functions          =             44
    Weights Tolerance      =       1.00E-15

   => Loading Basis Set <=

    Name: (CC-PVTZ AUX)
    Role: JKFIT
    Keyword: DF_BASIS_SCF
    atoms 1 entry O          line   229 file /Users/joseantoniorodriguesromero/anaconda3/share/psi4/basis/cc-pvtz-jkfit.gbs 
    atoms 2 entry H          line    51 file /Users/joseantoniorodriguesromero/anaconda3/share/psi4/basis/cc-pvtz-jkfit.gbs 

   => Loading Basis Set <=

    Name: CC-PVTZ
    Role: ORBITAL
    Keyword: BASIS
    atoms 1 entry O          line   262 file /Users/joseantoniorodriguesromero/anaconda3/share/psi4/basis/cc-pvtz.gbs 
    atoms 2 entry H          line    23 file /Users/joseantoniorodriguesromero/anaconda3/share/psi4/basis/cc-pvtz.gbs 

  Reading orbitals from file /tmp/scan_HO_43.default.48448.180.npy, no projection.

  ==> Integral Setup <==

  DFHelper Memory: AOs need 0.002 GiB; user supplied 0.312 GiB. 
  Using in-core AOs.

  ==> MemDFJK: Density-Fitted J/K Matrices <==

    J tasked:                   Yes
    K tasked:                   Yes
    wK tasked:                   No
    OpenMP threads:               1
    Memory [MiB]:               319
    Algorithm:                 Core
    Schwarz Cutoff:           1E-12
    Mask sparsity (%):       0.0000
    Fitting Condition:        1E-10

   => Auxiliary Basis Set <=

  Basis Set: (CC-PVTZ AUX)
    Blend: CC-PVTZ-JKFIT
    Number of shells: 35
    Number of basis functions: 109
    Number of Cartesian functions: 131
    Spherical Harmonics?: true
    Max angular momentum: 4

  Cached 100.0% of DFT collocation blocks in 0.054 [GiB].

  Minimum eigenvalue in the overlap matrix is 1.6784936393E-02.
  Reciprocal condition number of the overlap matrix is 4.7765027725E-03.
    Using symmetric orthogonalization.

  ==> Pre-Iterations <==

  SCF Guess: Orbitals guess was supplied from a previous computation.

   -------------------------------------------------------
    Irrep   Nso     Nmo     Nalpha   Nbeta   Ndocc  Nsocc
   -------------------------------------------------------
     A1        20      20       3       3       3       0
     A2         4       4       0       0       0       0
     B1        10      10       1       0       0       1
     B2        10      10       1       1       1       0
   -------------------------------------------------------
    Total      44      44       5       4       4       1
   -------------------------------------------------------

  ==> Iterations <==

                           Total Energy        Delta E     RMS |[F,P]|

   @DF-UKS iter   0:   -75.70253852030078   -7.57025e+01   6.93718e-04 
   @DF-UKS iter   1:   -75.70846105886795   -5.92254e-03   2.20420e-04 DIIS/ADIIS
   @DF-UKS iter   2:   -75.70847073871190   -9.67984e-06   1.10061e-04 DIIS/ADIIS/DAMP=1%
   @DF-UKS iter   3:   -75.70850701872574   -3.62800e-05   4.01252e-05 DIIS/DAMP=1%
   @DF-UKS iter   4:   -75.70845276129846    5.42574e-05   9.06748e-06 DIIS/DAMP=1%
   @DF-UKS iter   5:   -75.70847203226525   -1.92710e-05   5.32353e-06 DIIS/DAMP=1%
   @DF-UKS iter   6:   -75.70847518344971   -3.15118e-06   7.99794e-07 DIIS/DAMP=1%
   @DF-UKS iter   7:   -75.70847472074325    4.62706e-07   6.90365e-08 DIIS/DAMP=1%
   @DF-UKS iter   8:   -75.70847437433736    3.46406e-07   1.46412e-08 DIIS/DAMP=1%
   @DF-UKS iter   9:   -75.70847441472678   -4.03894e-08   3.10703e-09 DIIS/DAMP=1%
   @DF-UKS iter  10:   -75.70847440451679    1.02100e-08   3.87358e-10 DIIS/DAMP=1%
   @DF-UKS iter  11:   -75.70847440616653   -1.64974e-09   4.55930e-11 DIIS/DAMP=1%
  Energy and wave function converged.


  ==> Post-Iterations <==

   Electrons on quadrature grid:
      Nalpha   =    5.0000000090 ; deviation = 9.049e-09
      Nbeta    =    4.0000000102 ; deviation = 1.018e-08
      Ntotal   =    9.0000000192 ; deviation = 1.923e-08 

   @Spin Contamination Metric:   9.244332291E-03
   @S^2 Expected:                7.500000000E-01
   @S^2 Observed:                7.592443323E-01
   @S   Expected:                5.000000000E-01
   @S   Observed:                5.000000000E-01

    Orbital Energies [Eh]
    ---------------------

    Alpha Occupied:                                                       

       1A1   -19.215837     2A1    -0.961890     3A1    -0.427358  
       1B1    -0.408674     1B2    -0.334949  

    Alpha Virtual:                                                        

       4A1    -0.064677     5A1     0.256892     2B1     0.501297  
       2B2     0.529676     6A1     0.564818     3B1     0.673245  
       3B2     0.690066     7A1     0.839134     8A1     1.053495  
       1A2     1.434850     9A1     1.435649     4B1     1.554319  
       4B2     1.592076    10A1     2.012637    11A1     2.334035  
       2A2     3.150952    12A1     3.150982    13A1     3.175151  
       5B1     3.210592     5B2     3.233993     6B1     3.605787  
       6B2     3.629679     7B1     3.663212     7B2     3.699071  
      14A1     3.807696    15A1     4.670417     8B1     5.077491  
       8B2     5.077786     3A2     5.108079    16A1     5.109647  
       9B1     5.415188     9B2     5.463780    17A1     5.857980  
      18A1     6.121315     4A2     6.121628    10B1     6.324926  
      10B2     6.383369    19A1     6.928430    20A1     7.695336  

    Beta Occupied:                                                        

       1A1   -19.188459     2A1    -0.880993     3A1    -0.405783  
       1B2    -0.307874  

    Beta Virtual:                                                         

       1B1    -0.158094     4A1    -0.056640     5A1     0.252240  
       2B2     0.533668     2B1     0.551560     6A1     0.578786  
       3B2     0.689071     3B1     0.697261     7A1     0.859247  
       8A1     1.068936     1A2     1.487538     9A1     1.493646  
       4B2     1.599646     4B1     1.607020    10A1     2.030443  
      11A1     2.319679     2A2     3.138907    12A1     3.139070  
      13A1     3.184034     5B2     3.230890     5B1     3.237504  
       6B2     3.615820     6B1     3.616955     7B2     3.710246  
       7B1     3.734156    14A1     3.805031    15A1     4.690662  
       8B2     5.148177     8B1     5.151184     3A2     5.157495  
      16A1     5.162824     9B2     5.475526     9B1     5.482069  
      17A1     5.888191     4A2     6.215402    18A1     6.230148  
      10B2     6.401890    10B1     6.424917    19A1     6.971305  
      20A1     7.739973  

    Final Occupation by Irrep:
             A1    A2    B1    B2 
    DOCC [     3,    0,    0,    1 ]
    SOCC [     0,    0,    1,    0 ]
    NA   [     3,    0,    1,    1 ]
    NB   [     3,    0,    0,    1 ]

  @DF-UKS Final Energy:   -75.70847440616653

   => Energetics <=

    Nuclear Repulsion Energy =              3.1672986314250613
    One-Electron Energy =                -110.5164438317906956
    Two-Electron Energy =                  38.7368736926176780
    DFT Exchange-Correlation Energy =      -7.0962028984185661
    Empirical Dispersion Energy =           0.0000000000000000
    VV10 Nonlocal Energy =                  0.0000000000000000
    Total Energy =                        -75.7084744061665305

  UHF NO Occupations:
  HONO-2 :    2 A1 1.9994576
  HONO-1 :    3 A1 1.9960936
  HONO-0 :    1 B1 1.0000000
  LUNO+0 :    4 A1 0.0039064
  LUNO+1 :    5 A1 0.0005424
  LUNO+2 :    2 B2 0.0001806
  LUNO+3 :    6 A1 0.0000006


Computation Completed


Properties will be evaluated at   0.000000,   0.000000,   0.000000 [a0]

Properties computed using the SCF density matrix


 Multipole Moments:

 ------------------------------------------------------------------------------------
     Multipole            Electronic (a.u.)      Nuclear  (a.u.)        Total (a.u.)
 ------------------------------------------------------------------------------------

 L = 1.  Multiply by 2.5417464519 to convert [e a0] to [Debye]
 Dipole X            :          0.0000000            0.0000000            0.0000000
 Dipole Y            :          0.0000000            0.0000000            0.0000000
 Dipole Z            :         -0.4761757            1.1783708            0.7021951
 Magnitude           :                                                    0.7021951

 ------------------------------------------------------------------------------------

*** tstop() called on Mac.lan at Sun Aug 10 17:11:50 2025
Module time:
	user time   =      10.94 seconds =       0.18 minutes
	system time =       2.22 seconds =       0.04 minutes
	total time  =          1 seconds =       0.02 minutes
Total time:
	user time   =      10.94 seconds =       0.18 minutes
	system time =       2.22 seconds =       0.04 minutes
	total time  =          1 seconds =       0.02 minutes

*** tstart() called on Mac.lan
*** at Sun Aug 10 17:11:50 2025

   => Libint2 <=

    Primary   basis highest AM E, G, H:  6, 6, 3
    Auxiliary basis highest AM E, G, H:  7, 7, 4
    Onebody   basis highest AM E, G, H:  -, -, -
    Solid Harmonics ordering:            Gaussian
   => Loading Basis Set <=

    Name: CC-PVTZ
    Role: ORBITAL
    Keyword: BASIS
    atoms 1 entry O          line   262 file /Users/joseantoniorodriguesromero/anaconda3/share/psi4/basis/cc-pvtz.gbs 
    atoms 2 entry H          line    23 file /Users/joseantoniorodriguesromero/anaconda3/share/psi4/basis/cc-pvtz.gbs 


         ---------------------------------------------------------
                                   SCF
               by Justin Turney, Rob Parrish, Andy Simmonett
                          and Daniel G. A. Smith
                              UKS Reference
                        1 Threads,    500 MiB Core
         ---------------------------------------------------------

  ==> Geometry <==

    Molecular point group: c2v
    Full point group: C_inf_v

    Geometry (in Angstrom), charge = 0, multiplicity = 2:

       Center              X                  Y                   Z               Mass       
    ------------   -----------------  -----------------  -----------------  -----------------
         O            0.000000000000     0.000000000000    -0.079226111869    15.994914619570
         H            0.000000000000     0.000000000000     1.257375888131     1.007825032230

  Running in c2v symmetry.

  Rotational constants: A = ************  B =      9.95277  C =      9.95277 [cm^-1]
  Rotational constants: A = ************  B = 298376.64316  C = 298376.64316 [MHz]
  Nuclear repulsion =    3.167298631425061

  Charge       = 0
  Multiplicity = 2
  Electrons    = 9
  Nalpha       = 5
  Nbeta        = 4

  ==> Algorithm <==

  SCF Algorithm Type is DF.
  DIIS enabled.
  MOM disabled.
  Fractional occupation disabled.
  Guess Type is READ.
  Energy threshold   = 1.00e-08
  Density threshold  = 1.00e-08
  Integral threshold = 1.00e-12

  ==> Primary Basis <==

  Basis Set: CC-PVTZ
    Blend: CC-PVTZ
    Number of shells: 16
    Number of basis functions: 44
    Number of Cartesian functions: 50
    Spherical Harmonics?: true
    Max angular momentum: 3

  ==> DFT Potential <==

   => LibXC <=

    Version 6.2.2
    S. Lehtola, C. Steigemann, M. J.T. Oliveira, and M. A.L. Marques.,  SoftwareX 7, 1–5 (2018) (10.1016/j.softx.2017.11.002)

   => Composite Functional: B3LYP <= 

    B3LYP Hyb-GGA Exchange-Correlation Functional

    P. J. Stephens, F. J. Devlin, C. F. Chabalowski, and M. J. Frisch.,  J. Phys. Chem. 98, 11623 (1994) (10.1021/j100096a001)

    Deriv               =              1
    GGA                 =           TRUE
    Meta                =          FALSE

    Exchange Hybrid     =           TRUE
    MP2 Hybrid          =          FALSE

   => Exchange Functionals <=

    0.0800   Slater exchange
    0.7200         Becke 88

   => Exact (HF) Exchange <=

    0.2000               HF 

   => Correlation Functionals <=

    0.1900   Vosko, Wilk & Nusair (VWN5_RPA)
    0.8100   Lee, Yang & Parr

   => LibXC Density Thresholds  <==

    XC_HYB_GGA_XC_B3LYP:  1.00E-15 

   => Molecular Quadrature <=

    Radial Scheme          =       TREUTLER
    Pruning Scheme         =           NONE
    Nuclear Scheme         =       TREUTLER

    Blocking Scheme        =         OCTREE
    BS radius alpha        =              1
    Pruning alpha          =              1
    Radial Points          =             75
    Spherical Points       =            302
    Total Points           =          44188
    Total Blocks           =            394
    Max Points             =            255
    Max Functions          =             44
    Weights Tolerance      =       1.00E-15

   => Loading Basis Set <=

    Name: (CC-PVTZ AUX)
    Role: JKFIT
    Keyword: DF_BASIS_SCF
    atoms 1 entry O          line   229 file /Users/joseantoniorodriguesromero/anaconda3/share/psi4/basis/cc-pvtz-jkfit.gbs 
    atoms 2 entry H          line    51 file /Users/joseantoniorodriguesromero/anaconda3/share/psi4/basis/cc-pvtz-jkfit.gbs 

   => Loading Basis Set <=

    Name: CC-PVTZ
    Role: ORBITAL
    Keyword: BASIS
    atoms 1 entry O          line   262 file /Users/joseantoniorodriguesromero/anaconda3/share/psi4/basis/cc-pvtz.gbs 
    atoms 2 entry H          line    23 file /Users/joseantoniorodriguesromero/anaconda3/share/psi4/basis/cc-pvtz.gbs 

  Reading orbitals from file /tmp/scan_HO_43.default.48448.180.npy, no projection.

  ==> Integral Setup <==

  DFHelper Memory: AOs need 0.002 GiB; user supplied 0.312 GiB. 
  Using in-core AOs.

  ==> MemDFJK: Density-Fitted J/K Matrices <==

    J tasked:                   Yes
    K tasked:                   Yes
    wK tasked:                   No
    OpenMP threads:               1
    Memory [MiB]:               319
    Algorithm:                 Core
    Schwarz Cutoff:           1E-12
    Mask sparsity (%):       0.0000
    Fitting Condition:        1E-10

   => Auxiliary Basis Set <=

  Basis Set: (CC-PVTZ AUX)
    Blend: CC-PVTZ-JKFIT
    Number of shells: 35
    Number of basis functions: 109
    Number of Cartesian functions: 131
    Spherical Harmonics?: true
    Max angular momentum: 4

  Cached 100.0% of DFT collocation blocks in 0.054 [GiB].

  Minimum eigenvalue in the overlap matrix is 1.6784936393E-02.
  Reciprocal condition number of the overlap matrix is 4.7765027725E-03.
    Using symmetric orthogonalization.

  ==> Pre-Iterations <==

  SCF Guess: Orbitals guess was supplied from a previous computation.

   -------------------------------------------------------
    Irrep   Nso     Nmo     Nalpha   Nbeta   Ndocc  Nsocc
   -------------------------------------------------------
     A1        20      20       3       3       3       0
     A2         4       4       0       0       0       0
     B1        10      10       1       0       0       1
     B2        10      10       1       1       1       0
   -------------------------------------------------------
    Total      44      44       5       4       4       1
   -------------------------------------------------------

  ==> Iterations <==

                           Total Energy        Delta E     RMS |[F,P]|

   @DF-UKS iter   0:   -75.70847440606303   -7.57085e+01   2.80337e-12 
   @DF-UKS iter   1:   -75.70847440606308   -4.26326e-14   3.64105e-12 DIIS
  Energy and wave function converged.


  ==> Post-Iterations <==

   Electrons on quadrature grid:
      Nalpha   =    5.0000000090 ; deviation = 9.049e-09
      Nbeta    =    4.0000000102 ; deviation = 1.018e-08
      Ntotal   =    9.0000000192 ; deviation = 1.923e-08 

   @Spin Contamination Metric:   9.244332293E-03
   @S^2 Expected:                7.500000000E-01
   @S^2 Observed:                7.592443323E-01
   @S   Expected:                5.000000000E-01
   @S   Observed:                5.000000000E-01

    Orbital Energies [Eh]
    ---------------------

    Alpha Occupied:                                                       

       1A1   -19.215837     2A1    -0.961890     3A1    -0.427358  
       1B1    -0.408674     1B2    -0.334949  

    Alpha Virtual:                                                        

       4A1    -0.064677     5A1     0.256892     2B1     0.501297  
       2B2     0.529676     6A1     0.564818     3B1     0.673245  
       3B2     0.690066     7A1     0.839134     8A1     1.053495  
       1A2     1.434850     9A1     1.435649     4B1     1.554319  
       4B2     1.592076    10A1     2.012637    11A1     2.334035  
       2A2     3.150952    12A1     3.150982    13A1     3.175151  
       5B1     3.210592     5B2     3.233993     6B1     3.605787  
       6B2     3.629679     7B1     3.663212     7B2     3.699071  
      14A1     3.807696    15A1     4.670417     8B1     5.077491  
       8B2     5.077786     3A2     5.108079    16A1     5.109647  
       9B1     5.415188     9B2     5.463780    17A1     5.857980  
      18A1     6.121315     4A2     6.121628    10B1     6.324926  
      10B2     6.383369    19A1     6.928430    20A1     7.695336  

    Beta Occupied:                                                        

       1A1   -19.188459     2A1    -0.880993     3A1    -0.405783  
       1B2    -0.307874  

    Beta Virtual:                                                         

       1B1    -0.158094     4A1    -0.056640     5A1     0.252240  
       2B2     0.533668     2B1     0.551560     6A1     0.578786  
       3B2     0.689071     3B1     0.697261     7A1     0.859247  
       8A1     1.068936     1A2     1.487538     9A1     1.493646  
       4B2     1.599646     4B1     1.607020    10A1     2.030443  
      11A1     2.319679     2A2     3.138907    12A1     3.139070  
      13A1     3.184034     5B2     3.230890     5B1     3.237504  
       6B2     3.615820     6B1     3.616955     7B2     3.710246  
       7B1     3.734156    14A1     3.805031    15A1     4.690662  
       8B2     5.148177     8B1     5.151184     3A2     5.157495  
      16A1     5.162824     9B2     5.475526     9B1     5.482069  
      17A1     5.888191     4A2     6.215402    18A1     6.230148  
      10B2     6.401890    10B1     6.424917    19A1     6.971305  
      20A1     7.739973  

    Final Occupation by Irrep:
             A1    A2    B1    B2 
    DOCC [     3,    0,    0,    1 ]
    SOCC [     0,    0,    1,    0 ]
    NA   [     3,    0,    1,    1 ]
    NB   [     3,    0,    0,    1 ]

  @DF-UKS Final Energy:   -75.70847440606308

   => Energetics <=

    Nuclear Repulsion Energy =              3.1672986314250613
    One-Electron Energy =                -110.5164438339344599
    Two-Electron Energy =                  38.7368736948139230
    DFT Exchange-Correlation Energy =      -7.0962028983675927
    Empirical Dispersion Energy =           0.0000000000000000
    VV10 Nonlocal Energy =                  0.0000000000000000
    Total Energy =                        -75.7084744060630754

  UHF NO Occupations:
  HONO-2 :    2 A1 1.9994576
  HONO-1 :    3 A1 1.9960936
  HONO-0 :    1 B1 1.0000000
  LUNO+0 :    4 A1 0.0039064
  LUNO+1 :    5 A1 0.0005424
  LUNO+2 :    2 B2 0.0001806
  LUNO+3 :    6 A1 0.0000006


Computation Completed


Properties will be evaluated at   0.000000,   0.000000,   0.000000 [a0]

Properties computed using the B3LYP density matrix


 Multipole Moments:

 ------------------------------------------------------------------------------------
     Multipole            Electronic (a.u.)      Nuclear  (a.u.)        Total (a.u.)
 ------------------------------------------------------------------------------------

 L = 1.  Multiply by 2.5417464519 to convert [e a0] to [Debye]
 Dipole X            :          0.0000000            0.0000000            0.0000000
 Dipole Y            :          0.0000000            0.0000000            0.0000000
 Dipole Z            :         -0.4761757            1.1783708            0.7021951
 Magnitude           :                                                    0.7021951

 L = 2.  Multiply by 1.3450342976 to convert [e a0^2] to [Debye ang]
 Quadrupole XX       :         -4.2491228            0.0000000           -4.2491228
 Quadrupole XY       :          0.0000000            0.0000000            0.0000000
 Quadrupole XZ       :          0.0000000            0.0000000            0.0000000
 Quadrupole YY       :         -5.1472339            0.0000000           -5.1472339
 Quadrupole YZ       :          0.0000000            0.0000000            0.0000000
 Quadrupole ZZ       :         -8.5049235            5.8251507           -2.6797727
 Traceless XX        :          1.7179706           -1.9417169           -0.2237463
 Traceless YY        :          0.8198595           -1.9417169           -1.1218574
 Traceless ZZ        :         -2.5378301            3.8834338            1.3456037

 ------------------------------------------------------------------------------------
  ==> Computing MBIS Charges <==

  Electron Count from Grid (Expected Number):  9.00000 ( 9.00000)
  Difference:  0.00000

  MBIS Charges: (a.u.)
   Center  Symbol  Z      Pop.       Charge
      1       O    8    8.302187   -0.302187
      2       H    1    0.697813    0.302187

  MBIS Dipoles: [e a0]
   Center  Symbol  Z        X           Y           Z
      1       O    8   -0.000000   -0.000000   -0.122657
      2       H    1   -0.000000    0.000000    0.061584

  MBIS Quadrupoles: [e a0^2]
   Center  Symbol  Z      XX        XY        XZ        YY        YZ        ZZ
      1       O    8   -3.7379    0.0000   -0.0000   -4.5956   -0.0000   -4.2145
      2       H    1   -0.5112   -0.0000   -0.0000   -0.5517    0.0000   -0.4940

  MBIS Octupoles: [e a0^3]
   Center  Symbol  Z      XXX       XXY       XXZ       XYY       XYZ       XZZ       YYY       YYZ       YZZ       ZZZ
      1       O    8   -0.0000   -0.0000   -0.1629    0.0000   -0.0000    0.0000   -0.0000   -0.1467   -0.0000   -0.6202
      2       H    1    0.0000    0.0000    0.0100    0.0000   -0.0000   -0.0000    0.0000    0.0469    0.0000    0.0840

  MBIS Radial Moments:
   Center  Symbol  Z      [a0^2]      [a0^3]      [a0^4]      
      1       O    8   12.547992   24.343947   56.434748
      2       H    1    1.556848    3.326138    8.497347

  MBIS Valence Widths: [a0]
   Center  Symbol  Z     Width
      1       O    8    0.397890
      2       H    1    0.433191

*** tstop() called on Mac.lan at Sun Aug 10 17:11:51 2025
Module time:
	user time   =       3.69 seconds =       0.06 minutes
	system time =       1.27 seconds =       0.02 minutes
	total time  =          1 seconds =       0.02 minutes
Total time:
	user time   =      14.72 seconds =       0.25 minutes
	system time =       3.60 seconds =       0.06 minutes
	total time  =          2 seconds =       0.03 minutes

    Psi4 stopped on: Sunday, 10 August 2025 05:11PM
    Psi4 wall time for execution: 0:00:01.78

*** Psi4 exiting successfully. Buy a developer a beer!
