
    -----------------------------------------------------------------------
          Psi4: An Open-Source Ab Initio Electronic Structure Package
                               Psi4 1.9.1 release

                         Git: Rev {} zzzzzzz 


    D. G. A. Smith, L. A. Burns, A. C. Simmonett, R. M. Parrish,
    M. C. Schieber, R. Galvelis, P. Kraus, H. Kruse, R. Di Remigio,
    A. Alenaizan, A. M. James, S. Lehtola, J. P. Misiewicz, M. Scheurer,
    R. A. Shaw, J. B. Schriber, Y. Xie, Z. L. Glick, D. A. Sirianni,
    J. S. O'Brien, J. M. Waldrop, A. Kumar, E. G. Hohenstein,
    B. P. Pritchard, B. R. Brooks, H. F. Schaefer III, A. Yu. Sokolov,
    K. Patkowski, A. E. DePrince III, U. Bozkaya, R. A. King,
    F. A. Evangelista, J. M. Turney, T. D. Crawford, C. D. Sherrill,
    J. Chem. Phys. 152(18) 184108 (2020). https://doi.org/10.1063/5.0006002

                            Additional Code Authors
    E. T. Seidl, C. L. Janssen, E. F. Valeev, M. L. Leininger,
    J. F. Gonthier, R. M. Richard, H. R. McAlexander, M. Saitow, X. Wang,
    P. Verma, M. H. Lechner, A. Jiang, S. Behnle, A. G. Heide,
    M. F. Herbst, and D. L. Poole

             Previous Authors, Complete List of Code Contributors,
                       and Citations for Specific Modules
    https://github.com/psi4/psi4/blob/master/codemeta.json
    https://github.com/psi4/psi4/graphs/contributors
    http://psicode.org/psi4manual/master/introduction.html#citing-psifour

    -----------------------------------------------------------------------


    Psi4 started on: Sunday, 10 August 2025 05:20PM

    Process ID: 48658
    Host:       Mac.lan
    PSIDATADIR: /Users/joseantoniorodriguesromero/anaconda3/share/psi4
    Memory:     500.0 MiB
    Threads:    1
    
  ==> Input File <==

--------------------------------------------------------------------------
molecule { 
0 2
O           0.000000           0.000000           0.000000
N           0.000000           0.000000           0.898052
}

set { 
basis              cc-pvtz
reference          uks
maxiter            500
DAMPING_PERCENTAGE 1
E_CONVERGENCE      1.0E-8
D_CONVERGENCE      1.0E-8
DIIS_MAX_VECS      400
MBIS_MAXITER       8000
guess              read
}

E, wfn = energy('b3lyp', restart_file='last_wfn', return_wfn=True)
properties('b3lyp','MBIS_CHARGES', wfn=wfn)
wfn.to_file('last_wfn')
--------------------------------------------------------------------------

Scratch directory: /tmp/
 Found user provided orbital data. Setting orbital guess to READ 
 Copying restart file <last_wfn.npy> to </tmp/scan_NO_11.default.48658.180.npy> for internal processing
   => Libint2 <=

    Primary   basis highest AM E, G, H:  6, 6, 3
    Auxiliary basis highest AM E, G, H:  7, 7, 4
    Onebody   basis highest AM E, G, H:  -, -, -
    Solid Harmonics ordering:            Gaussian

*** tstart() called on Mac.lan
*** at Sun Aug 10 17:20:04 2025

   => Loading Basis Set <=

    Name: CC-PVTZ
    Role: ORBITAL
    Keyword: BASIS
    atoms 1 entry O          line   262 file /Users/joseantoniorodriguesromero/anaconda3/share/psi4/basis/cc-pvtz.gbs 
    atoms 2 entry N          line   224 file /Users/joseantoniorodriguesromero/anaconda3/share/psi4/basis/cc-pvtz.gbs 


         ---------------------------------------------------------
                                   SCF
               by Justin Turney, Rob Parrish, Andy Simmonett
                          and Daniel G. A. Smith
                              UKS Reference
                        1 Threads,    500 MiB Core
         ---------------------------------------------------------

  ==> Geometry <==

    Molecular point group: c2v
    Full point group: C_inf_v

    Geometry (in Angstrom), charge = 0, multiplicity = 2:

       Center              X                  Y                   Z               Mass       
    ------------   -----------------  -----------------  -----------------  -----------------
         O            0.000000000000     0.000000000000    -0.419211060230    15.994914619570
         N            0.000000000000     0.000000000000     0.478840939770    14.003074004430

  Running in c2v symmetry.

  Rotational constants: A = ************  B =      2.79950  C =      2.79950 [cm^-1]
  Rotational constants: A = ************  B =  83926.87576  C =  83926.87576 [MHz]
  Nuclear repulsion =   32.998004344425496

  Charge       = 0
  Multiplicity = 2
  Electrons    = 15
  Nalpha       = 8
  Nbeta        = 7

  ==> Algorithm <==

  SCF Algorithm Type is DF.
  DIIS enabled.
  MOM disabled.
  Fractional occupation disabled.
  Guess Type is READ.
  Energy threshold   = 1.00e-08
  Density threshold  = 1.00e-08
  Integral threshold = 1.00e-12

  ==> Primary Basis <==

  Basis Set: CC-PVTZ
    Blend: CC-PVTZ
    Number of shells: 20
    Number of basis functions: 60
    Number of Cartesian functions: 70
    Spherical Harmonics?: true
    Max angular momentum: 3

  ==> DFT Potential <==

   => LibXC <=

    Version 6.2.2
    S. Lehtola, C. Steigemann, M. J.T. Oliveira, and M. A.L. Marques.,  SoftwareX 7, 1–5 (2018) (10.1016/j.softx.2017.11.002)

   => Composite Functional: B3LYP <= 

    B3LYP Hyb-GGA Exchange-Correlation Functional

    P. J. Stephens, F. J. Devlin, C. F. Chabalowski, and M. J. Frisch.,  J. Phys. Chem. 98, 11623 (1994) (10.1021/j100096a001)

    Deriv               =              1
    GGA                 =           TRUE
    Meta                =          FALSE

    Exchange Hybrid     =           TRUE
    MP2 Hybrid          =          FALSE

   => Exchange Functionals <=

    0.0800   Slater exchange
    0.7200         Becke 88

   => Exact (HF) Exchange <=

    0.2000               HF 

   => Correlation Functionals <=

    0.1900   Vosko, Wilk & Nusair (VWN5_RPA)
    0.8100   Lee, Yang & Parr

   => LibXC Density Thresholds  <==

    XC_HYB_GGA_XC_B3LYP:  1.00E-15 

   => Molecular Quadrature <=

    Radial Scheme          =       TREUTLER
    Pruning Scheme         =           NONE
    Nuclear Scheme         =       TREUTLER

    Blocking Scheme        =         OCTREE
    BS radius alpha        =              1
    Pruning alpha          =              1
    Radial Points          =             75
    Spherical Points       =            302
    Total Points           =          42670
    Total Blocks           =            379
    Max Points             =            256
    Max Functions          =             60
    Weights Tolerance      =       1.00E-15

   => Loading Basis Set <=

    Name: (CC-PVTZ AUX)
    Role: JKFIT
    Keyword: DF_BASIS_SCF
    atoms 1 entry O          line   229 file /Users/joseantoniorodriguesromero/anaconda3/share/psi4/basis/cc-pvtz-jkfit.gbs 
    atoms 2 entry N          line   177 file /Users/joseantoniorodriguesromero/anaconda3/share/psi4/basis/cc-pvtz-jkfit.gbs 

   => Loading Basis Set <=

    Name: CC-PVTZ
    Role: ORBITAL
    Keyword: BASIS
    atoms 1 entry O          line   262 file /Users/joseantoniorodriguesromero/anaconda3/share/psi4/basis/cc-pvtz.gbs 
    atoms 2 entry N          line   224 file /Users/joseantoniorodriguesromero/anaconda3/share/psi4/basis/cc-pvtz.gbs 

  Reading orbitals from file /tmp/scan_NO_11.default.48658.180.npy, no projection.

  ==> Integral Setup <==

  DFHelper Memory: AOs need 0.005 GiB; user supplied 0.295 GiB. 
  Using in-core AOs.

  ==> MemDFJK: Density-Fitted J/K Matrices <==

    J tasked:                   Yes
    K tasked:                   Yes
    wK tasked:                   No
    OpenMP threads:               1
    Memory [MiB]:               302
    Algorithm:                 Core
    Schwarz Cutoff:           1E-12
    Mask sparsity (%):       0.0000
    Fitting Condition:        1E-10

   => Auxiliary Basis Set <=

  Basis Set: (CC-PVTZ AUX)
    Blend: CC-PVTZ-JKFIT
    Number of shells: 50
    Number of basis functions: 158
    Number of Cartesian functions: 192
    Spherical Harmonics?: true
    Max angular momentum: 4

  Cached 100.0% of DFT collocation blocks in 0.071 [GiB].

  Minimum eigenvalue in the overlap matrix is 1.4768377813E-03.
  Reciprocal condition number of the overlap matrix is 3.5491034606E-04.
    Using symmetric orthogonalization.

  ==> Pre-Iterations <==

  SCF Guess: Orbitals guess was supplied from a previous computation.

   -------------------------------------------------------
    Irrep   Nso     Nmo     Nalpha   Nbeta   Ndocc  Nsocc
   -------------------------------------------------------
     A1        26      26       5       5       5       0
     A2         6       6       0       0       0       0
     B1        14      14       2       1       1       1
     B2        14      14       1       1       1       0
   -------------------------------------------------------
    Total      60      60       8       7       7       1
   -------------------------------------------------------

  ==> Iterations <==

                           Total Energy        Delta E     RMS |[F,P]|

   @DF-UKS iter   0:  -129.72192902462879   -1.29722e+02   5.07919e-03 
   @DF-UKS iter   1:  -129.70766151659055    1.42675e-02   7.32868e-04 DIIS/ADIIS
   @DF-UKS iter   2:  -129.70744628768614    2.15229e-04   1.11571e-03 DIIS/ADIIS/DAMP=1%
   @DF-UKS iter   3:  -129.70804524483097   -5.98957e-04   5.15639e-05 DIIS/DAMP=1%
   @DF-UKS iter   4:  -129.70782689834061    2.18346e-04   1.31634e-05 DIIS/DAMP=1%
   @DF-UKS iter   5:  -129.70787601494231   -4.91166e-05   4.57007e-06 DIIS/DAMP=1%
   @DF-UKS iter   6:  -129.70785702491031    1.89900e-05   5.40850e-07 DIIS/DAMP=1%
   @DF-UKS iter   7:  -129.70786050427631   -3.47937e-06   1.27266e-07 DIIS/DAMP=1%
   @DF-UKS iter   8:  -129.70786060998401   -1.05708e-07   2.54830e-08 DIIS/DAMP=1%
   @DF-UKS iter   9:  -129.70786067016152   -6.01775e-08   6.43071e-09 DIIS/DAMP=1%
   @DF-UKS iter  10:  -129.70786066647497    3.68655e-09   1.30072e-09 DIIS/DAMP=1%
  Energy and wave function converged.


  ==> Post-Iterations <==

   Electrons on quadrature grid:
      Nalpha   =    7.9999997617 ; deviation = -2.383e-07
      Nbeta    =    6.9999998003 ; deviation = -1.997e-07
      Ntotal   =   14.9999995620 ; deviation = -4.380e-07 

   @Spin Contamination Metric:   1.588612746E-03
   @S^2 Expected:                7.500000000E-01
   @S^2 Observed:                7.515886127E-01
   @S   Expected:                5.000000000E-01
   @S   Observed:                5.000000000E-01

    Orbital Energies [Eh]
    ---------------------

    Alpha Occupied:                                                       

       1A1   -19.253236     2A1   -14.392624     3A1    -1.464541  
       1B1    -0.665402     4A1    -0.660205     1B2    -0.646286  
       5A1    -0.498942     2B1    -0.089416  

    Alpha Virtual:                                                        

       2B2     0.016224     6A1     0.239278     3B1     0.380244  
       3B2     0.382674     7A1     0.425036     8A1     0.526758  
       4B1     0.602477     4B2     0.615408     1A2     0.897741  
       9A1     0.899262    10A1     1.028473    11A1     1.200035  
       5B1     1.276625     5B2     1.280002     2A2     1.601544  
      12A1     1.603058    13A1     1.939982     6B1     2.072472  
       6B2     2.076516    14A1     2.463580     7B1     2.743724  
       7B2     2.753624    15A1     3.197035    16A1     3.687885  
       8B1     3.725476     8B2     3.725781     9B1     3.802728  
       9B2     3.810244     3A2     3.878805    17A1     3.880412  
      10B1     4.167972    10B2     4.170415     4A2     4.369916  
      18A1     4.373900    19A1     4.652035    11B2     4.846953  
      11B1     4.847924    12B1     5.130724    12B2     5.130859  
      20A1     5.670900     5A2     6.119601    21A1     6.121531  
       6A2     6.177786    22A1     6.179171    13B1     6.562781  
      13B2     6.563368    23A1     6.792416    24A1     7.386748  
      14B1     7.999166    14B2     8.000336    25A1     8.939465  
      26A1    21.019407  

    Beta Occupied:                                                        

       1A1   -19.242387     2A1   -14.380240     3A1    -1.448836  
       1B2    -0.637011     4A1    -0.630846     1B1    -0.599833  
       5A1    -0.466664  

    Beta Virtual:                                                         

       2B2     0.029775     2B1     0.066873     6A1     0.243849  
       3B2     0.386746     3B1     0.407271     7A1     0.435574  
       8A1     0.537951     4B2     0.621399     4B1     0.641551  
       9A1     0.920335     1A2     0.920718    10A1     1.049800  
      11A1     1.208762     5B2     1.283509     5B1     1.312267  
       2A2     1.629583    12A1     1.629798    13A1     1.952029  
       6B2     2.080777     6B1     2.103686    14A1     2.482209  
       7B2     2.763390     7B1     2.799112    15A1     3.213043  
      16A1     3.703340     8B2     3.759783     8B1     3.759865  
       9B2     3.818275     9B1     3.850384     3A2     3.898126  
      17A1     3.898762    10B2     4.174521    10B1     4.207797  
      18A1     4.420391     4A2     4.421187    19A1     4.669208  
      11B2     4.850769    11B1     4.880460    12B2     5.158299  
      12B1     5.158313    20A1     5.686151    21A1     6.157332  
       5A2     6.157355     6A2     6.202561    22A1     6.203015  
      13B2     6.567208    13B1     6.596353    23A1     6.802563  
      24A1     7.400042    14B2     8.005700    14B1     8.038038  
      25A1     8.959426    26A1    21.034974  

    Final Occupation by Irrep:
             A1    A2    B1    B2 
    DOCC [     5,    0,    1,    1 ]
    SOCC [     0,    0,    1,    0 ]
    NA   [     5,    0,    2,    1 ]
    NB   [     5,    0,    1,    1 ]

  @DF-UKS Final Energy:  -129.70786066647497

   => Energetics <=

    Nuclear Repulsion Energy =             32.9980043444254960
    One-Electron Energy =                -241.2114055794514798
    Two-Electron Energy =                  91.2133110424934586
    DFT Exchange-Correlation Energy =     -12.7077704739424604
    Empirical Dispersion Energy =           0.0000000000000000
    VV10 Nonlocal Energy =                  0.0000000000000000
    Total Energy =                       -129.7078606664749714

  UHF NO Occupations:
  HONO-2 :    5 A1 1.9996726
  HONO-1 :    1 B1 1.9996507
  HONO-0 :    2 B1 1.0000000
  LUNO+0 :    3 B1 0.0003493
  LUNO+1 :    6 A1 0.0003274
  LUNO+2 :    7 A1 0.0000924
  LUNO+3 :    2 B2 0.0000203


Computation Completed


Properties will be evaluated at   0.000000,   0.000000,   0.000000 [a0]

Properties computed using the SCF density matrix


 Multipole Moments:

 ------------------------------------------------------------------------------------
     Multipole            Electronic (a.u.)      Nuclear  (a.u.)        Total (a.u.)
 ------------------------------------------------------------------------------------

 L = 1.  Multiply by 2.5417464519 to convert [e a0] to [Debye]
 Dipole X            :          0.0000000            0.0000000            0.0000000
 Dipole Y            :          0.0000000            0.0000000            0.0000000
 Dipole Z            :         -0.3066570           -0.0034051           -0.3100621
 Magnitude           :                                                    0.3100621

 ------------------------------------------------------------------------------------

*** tstop() called on Mac.lan at Sun Aug 10 17:20:05 2025
Module time:
	user time   =      12.58 seconds =       0.21 minutes
	system time =       2.27 seconds =       0.04 minutes
	total time  =          1 seconds =       0.02 minutes
Total time:
	user time   =      12.58 seconds =       0.21 minutes
	system time =       2.27 seconds =       0.04 minutes
	total time  =          1 seconds =       0.02 minutes

*** tstart() called on Mac.lan
*** at Sun Aug 10 17:20:05 2025

   => Libint2 <=

    Primary   basis highest AM E, G, H:  6, 6, 3
    Auxiliary basis highest AM E, G, H:  7, 7, 4
    Onebody   basis highest AM E, G, H:  -, -, -
    Solid Harmonics ordering:            Gaussian
   => Loading Basis Set <=

    Name: CC-PVTZ
    Role: ORBITAL
    Keyword: BASIS
    atoms 1 entry O          line   262 file /Users/joseantoniorodriguesromero/anaconda3/share/psi4/basis/cc-pvtz.gbs 
    atoms 2 entry N          line   224 file /Users/joseantoniorodriguesromero/anaconda3/share/psi4/basis/cc-pvtz.gbs 


         ---------------------------------------------------------
                                   SCF
               by Justin Turney, Rob Parrish, Andy Simmonett
                          and Daniel G. A. Smith
                              UKS Reference
                        1 Threads,    500 MiB Core
         ---------------------------------------------------------

  ==> Geometry <==

    Molecular point group: c2v
    Full point group: C_inf_v

    Geometry (in Angstrom), charge = 0, multiplicity = 2:

       Center              X                  Y                   Z               Mass       
    ------------   -----------------  -----------------  -----------------  -----------------
         O            0.000000000000     0.000000000000    -0.419211060230    15.994914619570
         N            0.000000000000     0.000000000000     0.478840939770    14.003074004430

  Running in c2v symmetry.

  Rotational constants: A = ************  B =      2.79950  C =      2.79950 [cm^-1]
  Rotational constants: A = ************  B =  83926.87576  C =  83926.87576 [MHz]
  Nuclear repulsion =   32.998004344425496

  Charge       = 0
  Multiplicity = 2
  Electrons    = 15
  Nalpha       = 8
  Nbeta        = 7

  ==> Algorithm <==

  SCF Algorithm Type is DF.
  DIIS enabled.
  MOM disabled.
  Fractional occupation disabled.
  Guess Type is READ.
  Energy threshold   = 1.00e-08
  Density threshold  = 1.00e-08
  Integral threshold = 1.00e-12

  ==> Primary Basis <==

  Basis Set: CC-PVTZ
    Blend: CC-PVTZ
    Number of shells: 20
    Number of basis functions: 60
    Number of Cartesian functions: 70
    Spherical Harmonics?: true
    Max angular momentum: 3

  ==> DFT Potential <==

   => LibXC <=

    Version 6.2.2
    S. Lehtola, C. Steigemann, M. J.T. Oliveira, and M. A.L. Marques.,  SoftwareX 7, 1–5 (2018) (10.1016/j.softx.2017.11.002)

   => Composite Functional: B3LYP <= 

    B3LYP Hyb-GGA Exchange-Correlation Functional

    P. J. Stephens, F. J. Devlin, C. F. Chabalowski, and M. J. Frisch.,  J. Phys. Chem. 98, 11623 (1994) (10.1021/j100096a001)

    Deriv               =              1
    GGA                 =           TRUE
    Meta                =          FALSE

    Exchange Hybrid     =           TRUE
    MP2 Hybrid          =          FALSE

   => Exchange Functionals <=

    0.0800   Slater exchange
    0.7200         Becke 88

   => Exact (HF) Exchange <=

    0.2000               HF 

   => Correlation Functionals <=

    0.1900   Vosko, Wilk & Nusair (VWN5_RPA)
    0.8100   Lee, Yang & Parr

   => LibXC Density Thresholds  <==

    XC_HYB_GGA_XC_B3LYP:  1.00E-15 

   => Molecular Quadrature <=

    Radial Scheme          =       TREUTLER
    Pruning Scheme         =           NONE
    Nuclear Scheme         =       TREUTLER

    Blocking Scheme        =         OCTREE
    BS radius alpha        =              1
    Pruning alpha          =              1
    Radial Points          =             75
    Spherical Points       =            302
    Total Points           =          42670
    Total Blocks           =            379
    Max Points             =            256
    Max Functions          =             60
    Weights Tolerance      =       1.00E-15

   => Loading Basis Set <=

    Name: (CC-PVTZ AUX)
    Role: JKFIT
    Keyword: DF_BASIS_SCF
    atoms 1 entry O          line   229 file /Users/joseantoniorodriguesromero/anaconda3/share/psi4/basis/cc-pvtz-jkfit.gbs 
    atoms 2 entry N          line   177 file /Users/joseantoniorodriguesromero/anaconda3/share/psi4/basis/cc-pvtz-jkfit.gbs 

   => Loading Basis Set <=

    Name: CC-PVTZ
    Role: ORBITAL
    Keyword: BASIS
    atoms 1 entry O          line   262 file /Users/joseantoniorodriguesromero/anaconda3/share/psi4/basis/cc-pvtz.gbs 
    atoms 2 entry N          line   224 file /Users/joseantoniorodriguesromero/anaconda3/share/psi4/basis/cc-pvtz.gbs 

  Reading orbitals from file /tmp/scan_NO_11.default.48658.180.npy, no projection.

  ==> Integral Setup <==

  DFHelper Memory: AOs need 0.005 GiB; user supplied 0.295 GiB. 
  Using in-core AOs.

  ==> MemDFJK: Density-Fitted J/K Matrices <==

    J tasked:                   Yes
    K tasked:                   Yes
    wK tasked:                   No
    OpenMP threads:               1
    Memory [MiB]:               302
    Algorithm:                 Core
    Schwarz Cutoff:           1E-12
    Mask sparsity (%):       0.0000
    Fitting Condition:        1E-10

   => Auxiliary Basis Set <=

  Basis Set: (CC-PVTZ AUX)
    Blend: CC-PVTZ-JKFIT
    Number of shells: 50
    Number of basis functions: 158
    Number of Cartesian functions: 192
    Spherical Harmonics?: true
    Max angular momentum: 4

  Cached 100.0% of DFT collocation blocks in 0.071 [GiB].

  Minimum eigenvalue in the overlap matrix is 1.4768377813E-03.
  Reciprocal condition number of the overlap matrix is 3.5491034606E-04.
    Using symmetric orthogonalization.

  ==> Pre-Iterations <==

  SCF Guess: Orbitals guess was supplied from a previous computation.

   -------------------------------------------------------
    Irrep   Nso     Nmo     Nalpha   Nbeta   Ndocc  Nsocc
   -------------------------------------------------------
     A1        26      26       5       5       5       0
     A2         6       6       0       0       0       0
     B1        14      14       2       1       1       1
     B2        14      14       1       1       1       0
   -------------------------------------------------------
    Total      60      60       8       7       7       1
   -------------------------------------------------------

  ==> Iterations <==

                           Total Energy        Delta E     RMS |[F,P]|

   @DF-UKS iter   0:  -129.70786066415263   -1.29708e+02   2.34694e-10 
   @DF-UKS iter   1:  -129.70786066415280   -1.70530e-13   3.60723e-10 DIIS
  Energy and wave function converged.


  ==> Post-Iterations <==

   Electrons on quadrature grid:
      Nalpha   =    7.9999997617 ; deviation = -2.383e-07
      Nbeta    =    6.9999998003 ; deviation = -1.997e-07
      Ntotal   =   14.9999995620 ; deviation = -4.380e-07 

   @Spin Contamination Metric:   1.588612698E-03
   @S^2 Expected:                7.500000000E-01
   @S^2 Observed:                7.515886127E-01
   @S   Expected:                5.000000000E-01
   @S   Observed:                5.000000000E-01

    Orbital Energies [Eh]
    ---------------------

    Alpha Occupied:                                                       

       1A1   -19.253236     2A1   -14.392624     3A1    -1.464541  
       1B1    -0.665402     4A1    -0.660205     1B2    -0.646286  
       5A1    -0.498942     2B1    -0.089416  

    Alpha Virtual:                                                        

       2B2     0.016224     6A1     0.239278     3B1     0.380244  
       3B2     0.382674     7A1     0.425036     8A1     0.526758  
       4B1     0.602477     4B2     0.615408     1A2     0.897741  
       9A1     0.899262    10A1     1.028473    11A1     1.200035  
       5B1     1.276625     5B2     1.280002     2A2     1.601544  
      12A1     1.603058    13A1     1.939982     6B1     2.072472  
       6B2     2.076516    14A1     2.463580     7B1     2.743724  
       7B2     2.753624    15A1     3.197035    16A1     3.687885  
       8B1     3.725476     8B2     3.725781     9B1     3.802728  
       9B2     3.810244     3A2     3.878805    17A1     3.880412  
      10B1     4.167972    10B2     4.170415     4A2     4.369916  
      18A1     4.373900    19A1     4.652035    11B2     4.846953  
      11B1     4.847924    12B1     5.130724    12B2     5.130859  
      20A1     5.670900     5A2     6.119601    21A1     6.121531  
       6A2     6.177786    22A1     6.179171    13B1     6.562781  
      13B2     6.563368    23A1     6.792416    24A1     7.386748  
      14B1     7.999166    14B2     8.000336    25A1     8.939465  
      26A1    21.019407  

    Beta Occupied:                                                        

       1A1   -19.242387     2A1   -14.380240     3A1    -1.448836  
       1B2    -0.637011     4A1    -0.630846     1B1    -0.599833  
       5A1    -0.466664  

    Beta Virtual:                                                         

       2B2     0.029775     2B1     0.066873     6A1     0.243849  
       3B2     0.386746     3B1     0.407271     7A1     0.435574  
       8A1     0.537951     4B2     0.621399     4B1     0.641551  
       9A1     0.920335     1A2     0.920718    10A1     1.049800  
      11A1     1.208762     5B2     1.283509     5B1     1.312267  
       2A2     1.629583    12A1     1.629798    13A1     1.952029  
       6B2     2.080777     6B1     2.103686    14A1     2.482209  
       7B2     2.763390     7B1     2.799112    15A1     3.213043  
      16A1     3.703340     8B2     3.759783     8B1     3.759865  
       9B2     3.818275     9B1     3.850384     3A2     3.898126  
      17A1     3.898762    10B2     4.174521    10B1     4.207797  
      18A1     4.420391     4A2     4.421187    19A1     4.669208  
      11B2     4.850769    11B1     4.880460    12B2     5.158299  
      12B1     5.158313    20A1     5.686151    21A1     6.157332  
       5A2     6.157355     6A2     6.202561    22A1     6.203015  
      13B2     6.567208    13B1     6.596353    23A1     6.802563  
      24A1     7.400042    14B2     8.005700    14B1     8.038038  
      25A1     8.959426    26A1    21.034974  

    Final Occupation by Irrep:
             A1    A2    B1    B2 
    DOCC [     5,    0,    1,    1 ]
    SOCC [     0,    0,    1,    0 ]
    NA   [     5,    0,    2,    1 ]
    NB   [     5,    0,    1,    1 ]

  @DF-UKS Final Energy:  -129.70786066415280

   => Energetics <=

    Nuclear Repulsion Energy =             32.9980043444254960
    One-Electron Energy =                -241.2114056506165127
    Two-Electron Energy =                  91.2133111232352007
    DFT Exchange-Correlation Energy =     -12.7077704811969827
    Empirical Dispersion Energy =           0.0000000000000000
    VV10 Nonlocal Energy =                  0.0000000000000000
    Total Energy =                       -129.7078606641528040

  UHF NO Occupations:
  HONO-2 :    5 A1 1.9996726
  HONO-1 :    1 B1 1.9996507
  HONO-0 :    2 B1 1.0000000
  LUNO+0 :    3 B1 0.0003493
  LUNO+1 :    6 A1 0.0003274
  LUNO+2 :    7 A1 0.0000924
  LUNO+3 :    2 B2 0.0000203


Computation Completed


Properties will be evaluated at   0.000000,   0.000000,   0.000000 [a0]

Properties computed using the B3LYP density matrix


 Multipole Moments:

 ------------------------------------------------------------------------------------
     Multipole            Electronic (a.u.)      Nuclear  (a.u.)        Total (a.u.)
 ------------------------------------------------------------------------------------

 L = 1.  Multiply by 2.5417464519 to convert [e a0] to [Debye]
 Dipole X            :          0.0000000            0.0000000            0.0000000
 Dipole Y            :          0.0000000            0.0000000            0.0000000
 Dipole Z            :         -0.3066570           -0.0034051           -0.3100621
 Magnitude           :                                                    0.3100621

 L = 2.  Multiply by 1.3450342976 to convert [e a0^2] to [Debye ang]
 Quadrupole XX       :         -7.6481772            0.0000000           -7.6481772
 Quadrupole XY       :          0.0000000            0.0000000            0.0000000
 Quadrupole XZ       :          0.0000000            0.0000000            0.0000000
 Quadrupole YY       :         -6.6345309            0.0000000           -6.6345309
 Quadrupole YZ       :          0.0000000            0.0000000            0.0000000
 Quadrupole ZZ       :        -19.2631619           10.7522042           -8.5109577
 Traceless XX        :          3.5337795           -3.5840681           -0.0502886
 Traceless YY        :          4.5474257           -3.5840681            0.9633577
 Traceless ZZ        :         -8.0812052            7.1681361           -0.9130691

 ------------------------------------------------------------------------------------
  ==> Computing MBIS Charges <==

  Electron Count from Grid (Expected Number): 15.00000 (15.00000)
  Difference: -0.00000

  MBIS Charges: (a.u.)
   Center  Symbol  Z      Pop.       Charge
      1       O    8    7.887460    0.112540
      2       N    7    7.112540   -0.112540

  MBIS Dipoles: [e a0]
   Center  Symbol  Z        X           Y           Z
      1       O    8    0.000000   -0.000000    0.107209
      2       N    7    0.000000   -0.000000   -0.226282

  MBIS Quadrupoles: [e a0^2]
   Center  Symbol  Z      XX        XY        XZ        YY        YZ        ZZ
      1       O    8   -3.3193   -0.0000    0.0000   -3.0343    0.0000   -3.5372
      2       N    7   -4.3289    0.0000    0.0000   -3.6002   -0.0000   -4.3729

  MBIS Octupoles: [e a0^3]
   Center  Symbol  Z      XXX       XXY       XXZ       XYY       XYZ       XZZ       YYY       YYZ       YZZ       ZZZ
      1       O    8    0.0000   -0.0000    0.2133    0.0000    0.0000   -0.0000   -0.0000    0.1433    0.0000    0.2431
      2       N    7    0.0000   -0.0000   -0.6568    0.0000   -0.0000    0.0000   -0.0000   -0.2255   -0.0000   -0.3018

  MBIS Radial Moments:
   Center  Symbol  Z      [a0^2]      [a0^3]      [a0^4]      
      1       O    8    9.890770   17.546879   37.570806
      2       N    7   12.301999   26.114381   66.458481

  MBIS Valence Widths: [a0]
   Center  Symbol  Z     Width
      1       O    8    0.362834
      2       N    7    0.433666

*** tstop() called on Mac.lan at Sun Aug 10 17:20:06 2025
Module time:
	user time   =       3.77 seconds =       0.06 minutes
	system time =       2.56 seconds =       0.04 minutes
	total time  =          1 seconds =       0.02 minutes
Total time:
	user time   =      16.39 seconds =       0.27 minutes
	system time =       5.06 seconds =       0.08 minutes
	total time  =          2 seconds =       0.03 minutes

    Psi4 stopped on: Sunday, 10 August 2025 05:20PM
    Psi4 wall time for execution: 0:00:02.07

*** Psi4 exiting successfully. Buy a developer a beer!
