
    -----------------------------------------------------------------------
          Psi4: An Open-Source Ab Initio Electronic Structure Package
                               Psi4 1.9.1 release

                         Git: Rev {} zzzzzzz 


    D. G. A. Smith, L. A. Burns, A. C. Simmonett, R. M. Parrish,
    M. C. Schieber, R. Galvelis, P. Kraus, H. Kruse, R. Di Remigio,
    A. Alenaizan, A. M. James, S. Lehtola, J. P. Misiewicz, M. Scheurer,
    R. A. Shaw, J. B. Schriber, Y. Xie, Z. L. Glick, D. A. Sirianni,
    J. S. O'Brien, J. M. Waldrop, A. Kumar, E. G. Hohenstein,
    B. P. Pritchard, B. R. Brooks, H. F. Schaefer III, A. Yu. Sokolov,
    K. Patkowski, A. E. DePrince III, U. Bozkaya, R. A. King,
    F. A. Evangelista, J. M. Turney, T. D. Crawford, C. D. Sherrill,
    J. Chem. Phys. 152(18) 184108 (2020). https://doi.org/10.1063/5.0006002

                            Additional Code Authors
    E. T. Seidl, C. L. Janssen, E. F. Valeev, M. L. Leininger,
    J. F. Gonthier, R. M. Richard, H. R. McAlexander, M. Saitow, X. Wang,
    P. Verma, M. H. Lechner, A. Jiang, S. Behnle, A. G. Heide,
    M. F. Herbst, and D. L. Poole

             Previous Authors, Complete List of Code Contributors,
                       and Citations for Specific Modules
    https://github.com/psi4/psi4/blob/master/codemeta.json
    https://github.com/psi4/psi4/graphs/contributors
    http://psicode.org/psi4manual/master/introduction.html#citing-psifour

    -----------------------------------------------------------------------


    Psi4 started on: Sunday, 10 August 2025 05:21PM

    Process ID: 48696
    Host:       Mac.lan
    PSIDATADIR: /Users/joseantoniorodriguesromero/anaconda3/share/psi4
    Memory:     500.0 MiB
    Threads:    1
    
  ==> Input File <==

--------------------------------------------------------------------------
molecule { 
0 2
O           0.000000           0.000000           0.000000
N           0.000000           0.000000           1.676832
}

set { 
basis              cc-pvtz
reference          uks
maxiter            500
DAMPING_PERCENTAGE 1
E_CONVERGENCE      1.0E-8
D_CONVERGENCE      1.0E-8
DIIS_MAX_VECS      400
MBIS_MAXITER       8000
guess              read
}

E, wfn = energy('b3lyp', restart_file='last_wfn', return_wfn=True)
properties('b3lyp','MBIS_CHARGES', wfn=wfn)
wfn.to_file('last_wfn')
--------------------------------------------------------------------------

Scratch directory: /tmp/
 Found user provided orbital data. Setting orbital guess to READ 
 Copying restart file <last_wfn.npy> to </tmp/scan_NO_48.default.48696.180.npy> for internal processing
   => Libint2 <=

    Primary   basis highest AM E, G, H:  6, 6, 3
    Auxiliary basis highest AM E, G, H:  7, 7, 4
    Onebody   basis highest AM E, G, H:  -, -, -
    Solid Harmonics ordering:            Gaussian

*** tstart() called on Mac.lan
*** at Sun Aug 10 17:21:39 2025

   => Loading Basis Set <=

    Name: CC-PVTZ
    Role: ORBITAL
    Keyword: BASIS
    atoms 1 entry O          line   262 file /Users/joseantoniorodriguesromero/anaconda3/share/psi4/basis/cc-pvtz.gbs 
    atoms 2 entry N          line   224 file /Users/joseantoniorodriguesromero/anaconda3/share/psi4/basis/cc-pvtz.gbs 


         ---------------------------------------------------------
                                   SCF
               by Justin Turney, Rob Parrish, Andy Simmonett
                          and Daniel G. A. Smith
                              UKS Reference
                        1 Threads,    500 MiB Core
         ---------------------------------------------------------

  ==> Geometry <==

    Molecular point group: c2v
    Full point group: C_inf_v

    Geometry (in Angstrom), charge = 0, multiplicity = 2:

       Center              X                  Y                   Z               Mass       
    ------------   -----------------  -----------------  -----------------  -----------------
         O            0.000000000000     0.000000000000    -0.782745899510    15.994914619570
         N            0.000000000000     0.000000000000     0.894086100490    14.003074004430

  Running in c2v symmetry.

  Rotational constants: A = ************  B =      0.80298  C =      0.80298 [cm^-1]
  Rotational constants: A = ************  B =  24072.70638  C =  24072.70638 [MHz]
  Nuclear repulsion =   17.672565765395699

  Charge       = 0
  Multiplicity = 2
  Electrons    = 15
  Nalpha       = 8
  Nbeta        = 7

  ==> Algorithm <==

  SCF Algorithm Type is DF.
  DIIS enabled.
  MOM disabled.
  Fractional occupation disabled.
  Guess Type is READ.
  Energy threshold   = 1.00e-08
  Density threshold  = 1.00e-08
  Integral threshold = 1.00e-12

  ==> Primary Basis <==

  Basis Set: CC-PVTZ
    Blend: CC-PVTZ
    Number of shells: 20
    Number of basis functions: 60
    Number of Cartesian functions: 70
    Spherical Harmonics?: true
    Max angular momentum: 3

  ==> DFT Potential <==

   => LibXC <=

    Version 6.2.2
    S. Lehtola, C. Steigemann, M. J.T. Oliveira, and M. A.L. Marques.,  SoftwareX 7, 1–5 (2018) (10.1016/j.softx.2017.11.002)

   => Composite Functional: B3LYP <= 

    B3LYP Hyb-GGA Exchange-Correlation Functional

    P. J. Stephens, F. J. Devlin, C. F. Chabalowski, and M. J. Frisch.,  J. Phys. Chem. 98, 11623 (1994) (10.1021/j100096a001)

    Deriv               =              1
    GGA                 =           TRUE
    Meta                =          FALSE

    Exchange Hybrid     =           TRUE
    MP2 Hybrid          =          FALSE

   => Exchange Functionals <=

    0.0800   Slater exchange
    0.7200         Becke 88

   => Exact (HF) Exchange <=

    0.2000               HF 

   => Correlation Functionals <=

    0.1900   Vosko, Wilk & Nusair (VWN5_RPA)
    0.8100   Lee, Yang & Parr

   => LibXC Density Thresholds  <==

    XC_HYB_GGA_XC_B3LYP:  1.00E-15 

   => Molecular Quadrature <=

    Radial Scheme          =       TREUTLER
    Pruning Scheme         =           NONE
    Nuclear Scheme         =       TREUTLER

    Blocking Scheme        =         OCTREE
    BS radius alpha        =              1
    Pruning alpha          =              1
    Radial Points          =             75
    Spherical Points       =            302
    Total Points           =          42780
    Total Blocks           =            388
    Max Points             =            254
    Max Functions          =             60
    Weights Tolerance      =       1.00E-15

   => Loading Basis Set <=

    Name: (CC-PVTZ AUX)
    Role: JKFIT
    Keyword: DF_BASIS_SCF
    atoms 1 entry O          line   229 file /Users/joseantoniorodriguesromero/anaconda3/share/psi4/basis/cc-pvtz-jkfit.gbs 
    atoms 2 entry N          line   177 file /Users/joseantoniorodriguesromero/anaconda3/share/psi4/basis/cc-pvtz-jkfit.gbs 

   => Loading Basis Set <=

    Name: CC-PVTZ
    Role: ORBITAL
    Keyword: BASIS
    atoms 1 entry O          line   262 file /Users/joseantoniorodriguesromero/anaconda3/share/psi4/basis/cc-pvtz.gbs 
    atoms 2 entry N          line   224 file /Users/joseantoniorodriguesromero/anaconda3/share/psi4/basis/cc-pvtz.gbs 

  Reading orbitals from file /tmp/scan_NO_48.default.48696.180.npy, no projection.

  ==> Integral Setup <==

  DFHelper Memory: AOs need 0.005 GiB; user supplied 0.296 GiB. 
  Using in-core AOs.

  ==> MemDFJK: Density-Fitted J/K Matrices <==

    J tasked:                   Yes
    K tasked:                   Yes
    wK tasked:                   No
    OpenMP threads:               1
    Memory [MiB]:               303
    Algorithm:                 Core
    Schwarz Cutoff:           1E-12
    Mask sparsity (%):       0.0000
    Fitting Condition:        1E-10

   => Auxiliary Basis Set <=

  Basis Set: (CC-PVTZ AUX)
    Blend: CC-PVTZ-JKFIT
    Number of shells: 50
    Number of basis functions: 158
    Number of Cartesian functions: 192
    Spherical Harmonics?: true
    Max angular momentum: 4

  Cached 100.0% of DFT collocation blocks in 0.070 [GiB].

  Minimum eigenvalue in the overlap matrix is 1.3476592720E-02.
  Reciprocal condition number of the overlap matrix is 4.1100227136E-03.
    Using symmetric orthogonalization.

  ==> Pre-Iterations <==

  SCF Guess: Orbitals guess was supplied from a previous computation.

   -------------------------------------------------------
    Irrep   Nso     Nmo     Nalpha   Nbeta   Ndocc  Nsocc
   -------------------------------------------------------
     A1        26      26       5       5       5       0
     A2         6       6       0       0       0       0
     B1        14      14       2       1       1       1
     B2        14      14       1       1       1       0
   -------------------------------------------------------
    Total      60      60       8       7       7       1
   -------------------------------------------------------

  ==> Iterations <==

                           Total Energy        Delta E     RMS |[F,P]|

   @DF-UKS iter   0:  -129.76817382283130   -1.29768e+02   8.23735e-04 
   @DF-UKS iter   1:  -129.77591746209961   -7.74364e-03   3.39459e-04 ADIIS/DIIS
   @DF-UKS iter   2:  -129.77578431564191    1.33146e-04   6.70893e-04 ADIIS/DIIS/DAMP=1%
   @DF-UKS iter   3:  -129.77565862537230    1.25690e-04   2.67951e-04 ADIIS/DIIS/DAMP=1%
   @DF-UKS iter   4:  -129.77601236790747   -3.53743e-04   4.13421e-05 DIIS/DAMP=1%
   @DF-UKS iter   5:  -129.77600475368075    7.61423e-06   2.17142e-05 DIIS/DAMP=1%
   @DF-UKS iter   6:  -129.77599531503620    9.43864e-06   7.83828e-06 DIIS/DAMP=1%
   @DF-UKS iter   7:  -129.77601082873881   -1.55137e-05   4.10835e-06 DIIS/DAMP=1%
   @DF-UKS iter   8:  -129.77600455896351    6.26978e-06   9.50666e-07 DIIS/DAMP=1%
   @DF-UKS iter   9:  -129.77600723845310   -2.67949e-06   9.70068e-08 DIIS/DAMP=1%
   @DF-UKS iter  10:  -129.77600691920767    3.19245e-07   1.57195e-08 DIIS/DAMP=1%
   @DF-UKS iter  11:  -129.77600691659683    2.61085e-09   2.62452e-09 DIIS/DAMP=1%
  Energy and wave function converged.


  ==> Post-Iterations <==

   Electrons on quadrature grid:
      Nalpha   =    7.9999994375 ; deviation = -5.625e-07
      Nbeta    =    6.9999995946 ; deviation = -4.054e-07
      Ntotal   =   14.9999990321 ; deviation = -9.679e-07 

   @Spin Contamination Metric:   7.659835014E-01
   @S^2 Expected:                7.500000000E-01
   @S^2 Observed:                1.515983501E+00
   @S   Expected:                5.000000000E-01
   @S   Observed:                5.000000000E-01

    Orbital Energies [Eh]
    ---------------------

    Alpha Occupied:                                                       

       1A1   -19.240287     2A1   -14.507243     3A1    -0.970305  
       4A1    -0.784327     5A1    -0.422421     1B1    -0.418651  
       1B2    -0.398924     2B1    -0.318027  

    Alpha Virtual:                                                        

       2B2    -0.184587     6A1    -0.075886     7A1     0.404426  
       3B1     0.414379     3B2     0.414575     8A1     0.504720  
       9A1     0.594074     4B1     0.602600     4B2     0.624988  
       1A2     0.947632    10A1     0.947831     5B2     0.958897  
       5B1     0.961767    11A1     1.054111    12A1     1.345838  
       2A2     1.472803    13A1     1.477709     6B1     1.707032  
       6B2     1.713192    14A1     1.992506     7B1     2.709859  
       7B2     2.710017    15A1     2.957998    16A1     3.471154  
       8B1     3.511938     8B2     3.540377     9B1     3.768718  
       9B2     3.768723     3A2     3.771679    17A1     3.771851  
      10B1     3.856765    10B2     3.859604    18A1     4.141368  
       4A2     4.277031    19A1     4.277297    11B2     4.393039  
      11B1     4.393993    20A1     4.825215    12B1     5.102759  
      12B2     5.104842     5A2     5.112304    21A1     5.116909  
      22A1     5.230358    13B1     5.330299    13B2     5.336919  
      23A1     5.746419     6A2     6.165715    24A1     6.178096  
      14B1     6.369357    14B2     6.394854    25A1     6.946408  
      26A1     7.848773  

    Beta Occupied:                                                        

       1A1   -19.264087     2A1   -14.466404     3A1    -1.010931  
       4A1    -0.691609     1B2    -0.440039     5A1    -0.420220  
       1B1    -0.371498  

    Beta Virtual:                                                         

       2B2    -0.151268     2B1    -0.139142     6A1    -0.055825  
       7A1     0.422966     3B2     0.464655     3B1     0.475229  
       8A1     0.529437     4B2     0.578076     9A1     0.597196  
       4B1     0.606292     5B2     0.984949     5B1     0.999013  
      10A1     1.026974     1A2     1.026984    11A1     1.040618  
      12A1     1.365107     2A2     1.437253    13A1     1.440322  
       6B2     1.685669     6B1     1.716511    14A1     1.990907  
       7B2     2.810433     7B1     2.818976    15A1     2.978112  
       8B2     3.460610    16A1     3.494400     8B1     3.514907  
       3A2     3.855771    17A1     3.855777     9B2     3.882629  
       9B1     3.882895    10B2     3.891801    10B1     3.910014  
      18A1     4.167923     4A2     4.430366    19A1     4.430388  
      11B2     4.478769    11B1     4.489468    20A1     4.843944  
      12B2     5.049316    12B1     5.049557     5A2     5.071379  
      21A1     5.073269    13B2     5.282481    22A1     5.309280  
      13B1     5.325435    23A1     5.723528     6A2     6.095633  
      24A1     6.095911    14B2     6.300138    14B1     6.355657  
      25A1     6.921702    26A1     7.804106  

    Final Occupation by Irrep:
             A1    A2    B1    B2 
    DOCC [     5,    0,    1,    1 ]
    SOCC [     0,    0,    1,    0 ]
    NA   [     5,    0,    2,    1 ]
    NB   [     5,    0,    1,    1 ]

  @DF-UKS Final Energy:  -129.77600691659683

   => Energetics <=

    Nuclear Repulsion Energy =             17.6725657653956993
    One-Electron Energy =                -212.3499339434550279
    Two-Electron Energy =                  77.1634490310962491
    DFT Exchange-Correlation Energy =     -12.2620877696337356
    Empirical Dispersion Energy =           0.0000000000000000
    VV10 Nonlocal Energy =                  0.0000000000000000
    Total Energy =                       -129.7760069165968275

  UHF NO Occupations:
  HONO-2 :    5 A1 1.9797245
  HONO-1 :    1 B2 1.5265582
  HONO-0 :    2 B1 1.0000000
  LUNO+0 :    2 B2 0.4734418
  LUNO+1 :    6 A1 0.0202755
  LUNO+2 :    7 A1 0.0008791
  LUNO+3 :    8 A1 0.0003387


Computation Completed


Properties will be evaluated at   0.000000,   0.000000,   0.000000 [a0]

Properties computed using the SCF density matrix


 Multipole Moments:

 ------------------------------------------------------------------------------------
     Multipole            Electronic (a.u.)      Nuclear  (a.u.)        Total (a.u.)
 ------------------------------------------------------------------------------------

 L = 1.  Multiply by 2.5417464519 to convert [e a0] to [Debye]
 Dipole X            :          0.0000000            0.0000000            0.0000000
 Dipole Y            :          0.0000000            0.0000000            0.0000000
 Dipole Z            :          0.2865152           -0.0063580            0.2801573
 Magnitude           :                                                    0.2801573

 ------------------------------------------------------------------------------------

*** tstop() called on Mac.lan at Sun Aug 10 17:21:41 2025
Module time:
	user time   =      14.46 seconds =       0.24 minutes
	system time =       1.74 seconds =       0.03 minutes
	total time  =          2 seconds =       0.03 minutes
Total time:
	user time   =      14.46 seconds =       0.24 minutes
	system time =       1.74 seconds =       0.03 minutes
	total time  =          2 seconds =       0.03 minutes

*** tstart() called on Mac.lan
*** at Sun Aug 10 17:21:41 2025

   => Libint2 <=

    Primary   basis highest AM E, G, H:  6, 6, 3
    Auxiliary basis highest AM E, G, H:  7, 7, 4
    Onebody   basis highest AM E, G, H:  -, -, -
    Solid Harmonics ordering:            Gaussian
   => Loading Basis Set <=

    Name: CC-PVTZ
    Role: ORBITAL
    Keyword: BASIS
    atoms 1 entry O          line   262 file /Users/joseantoniorodriguesromero/anaconda3/share/psi4/basis/cc-pvtz.gbs 
    atoms 2 entry N          line   224 file /Users/joseantoniorodriguesromero/anaconda3/share/psi4/basis/cc-pvtz.gbs 


         ---------------------------------------------------------
                                   SCF
               by Justin Turney, Rob Parrish, Andy Simmonett
                          and Daniel G. A. Smith
                              UKS Reference
                        1 Threads,    500 MiB Core
         ---------------------------------------------------------

  ==> Geometry <==

    Molecular point group: c2v
    Full point group: C_inf_v

    Geometry (in Angstrom), charge = 0, multiplicity = 2:

       Center              X                  Y                   Z               Mass       
    ------------   -----------------  -----------------  -----------------  -----------------
         O            0.000000000000     0.000000000000    -0.782745899510    15.994914619570
         N            0.000000000000     0.000000000000     0.894086100490    14.003074004430

  Running in c2v symmetry.

  Rotational constants: A = ************  B =      0.80298  C =      0.80298 [cm^-1]
  Rotational constants: A = ************  B =  24072.70638  C =  24072.70638 [MHz]
  Nuclear repulsion =   17.672565765395699

  Charge       = 0
  Multiplicity = 2
  Electrons    = 15
  Nalpha       = 8
  Nbeta        = 7

  ==> Algorithm <==

  SCF Algorithm Type is DF.
  DIIS enabled.
  MOM disabled.
  Fractional occupation disabled.
  Guess Type is READ.
  Energy threshold   = 1.00e-08
  Density threshold  = 1.00e-08
  Integral threshold = 1.00e-12

  ==> Primary Basis <==

  Basis Set: CC-PVTZ
    Blend: CC-PVTZ
    Number of shells: 20
    Number of basis functions: 60
    Number of Cartesian functions: 70
    Spherical Harmonics?: true
    Max angular momentum: 3

  ==> DFT Potential <==

   => LibXC <=

    Version 6.2.2
    S. Lehtola, C. Steigemann, M. J.T. Oliveira, and M. A.L. Marques.,  SoftwareX 7, 1–5 (2018) (10.1016/j.softx.2017.11.002)

   => Composite Functional: B3LYP <= 

    B3LYP Hyb-GGA Exchange-Correlation Functional

    P. J. Stephens, F. J. Devlin, C. F. Chabalowski, and M. J. Frisch.,  J. Phys. Chem. 98, 11623 (1994) (10.1021/j100096a001)

    Deriv               =              1
    GGA                 =           TRUE
    Meta                =          FALSE

    Exchange Hybrid     =           TRUE
    MP2 Hybrid          =          FALSE

   => Exchange Functionals <=

    0.0800   Slater exchange
    0.7200         Becke 88

   => Exact (HF) Exchange <=

    0.2000               HF 

   => Correlation Functionals <=

    0.1900   Vosko, Wilk & Nusair (VWN5_RPA)
    0.8100   Lee, Yang & Parr

   => LibXC Density Thresholds  <==

    XC_HYB_GGA_XC_B3LYP:  1.00E-15 

   => Molecular Quadrature <=

    Radial Scheme          =       TREUTLER
    Pruning Scheme         =           NONE
    Nuclear Scheme         =       TREUTLER

    Blocking Scheme        =         OCTREE
    BS radius alpha        =              1
    Pruning alpha          =              1
    Radial Points          =             75
    Spherical Points       =            302
    Total Points           =          42780
    Total Blocks           =            388
    Max Points             =            254
    Max Functions          =             60
    Weights Tolerance      =       1.00E-15

   => Loading Basis Set <=

    Name: (CC-PVTZ AUX)
    Role: JKFIT
    Keyword: DF_BASIS_SCF
    atoms 1 entry O          line   229 file /Users/joseantoniorodriguesromero/anaconda3/share/psi4/basis/cc-pvtz-jkfit.gbs 
    atoms 2 entry N          line   177 file /Users/joseantoniorodriguesromero/anaconda3/share/psi4/basis/cc-pvtz-jkfit.gbs 

   => Loading Basis Set <=

    Name: CC-PVTZ
    Role: ORBITAL
    Keyword: BASIS
    atoms 1 entry O          line   262 file /Users/joseantoniorodriguesromero/anaconda3/share/psi4/basis/cc-pvtz.gbs 
    atoms 2 entry N          line   224 file /Users/joseantoniorodriguesromero/anaconda3/share/psi4/basis/cc-pvtz.gbs 

  Reading orbitals from file /tmp/scan_NO_48.default.48696.180.npy, no projection.

  ==> Integral Setup <==

  DFHelper Memory: AOs need 0.005 GiB; user supplied 0.296 GiB. 
  Using in-core AOs.

  ==> MemDFJK: Density-Fitted J/K Matrices <==

    J tasked:                   Yes
    K tasked:                   Yes
    wK tasked:                   No
    OpenMP threads:               1
    Memory [MiB]:               303
    Algorithm:                 Core
    Schwarz Cutoff:           1E-12
    Mask sparsity (%):       0.0000
    Fitting Condition:        1E-10

   => Auxiliary Basis Set <=

  Basis Set: (CC-PVTZ AUX)
    Blend: CC-PVTZ-JKFIT
    Number of shells: 50
    Number of basis functions: 158
    Number of Cartesian functions: 192
    Spherical Harmonics?: true
    Max angular momentum: 4

  Cached 100.0% of DFT collocation blocks in 0.070 [GiB].

  Minimum eigenvalue in the overlap matrix is 1.3476592720E-02.
  Reciprocal condition number of the overlap matrix is 4.1100227136E-03.
    Using symmetric orthogonalization.

  ==> Pre-Iterations <==

  SCF Guess: Orbitals guess was supplied from a previous computation.

   -------------------------------------------------------
    Irrep   Nso     Nmo     Nalpha   Nbeta   Ndocc  Nsocc
   -------------------------------------------------------
     A1        26      26       5       5       5       0
     A2         6       6       0       0       0       0
     B1        14      14       2       1       1       1
     B2        14      14       1       1       1       0
   -------------------------------------------------------
    Total      60      60       8       7       7       1
   -------------------------------------------------------

  ==> Iterations <==

                           Total Energy        Delta E     RMS |[F,P]|

   @DF-UKS iter   0:  -129.77600691719707   -1.29776e+02   1.04131e-09 
   @DF-UKS iter   1:  -129.77600691719698    8.52651e-14   3.15237e-09 DIIS
  Energy and wave function converged.


  ==> Post-Iterations <==

   Electrons on quadrature grid:
      Nalpha   =    7.9999994375 ; deviation = -5.625e-07
      Nbeta    =    6.9999995946 ; deviation = -4.054e-07
      Ntotal   =   14.9999990321 ; deviation = -9.679e-07 

   @Spin Contamination Metric:   7.659835436E-01
   @S^2 Expected:                7.500000000E-01
   @S^2 Observed:                1.515983544E+00
   @S   Expected:                5.000000000E-01
   @S   Observed:                5.000000000E-01

    Orbital Energies [Eh]
    ---------------------

    Alpha Occupied:                                                       

       1A1   -19.240287     2A1   -14.507243     3A1    -0.970305  
       4A1    -0.784327     5A1    -0.422421     1B1    -0.418651  
       1B2    -0.398924     2B1    -0.318027  

    Alpha Virtual:                                                        

       2B2    -0.184587     6A1    -0.075886     7A1     0.404426  
       3B1     0.414379     3B2     0.414575     8A1     0.504720  
       9A1     0.594074     4B1     0.602600     4B2     0.624988  
       1A2     0.947632    10A1     0.947831     5B2     0.958897  
       5B1     0.961767    11A1     1.054111    12A1     1.345838  
       2A2     1.472803    13A1     1.477709     6B1     1.707032  
       6B2     1.713192    14A1     1.992506     7B1     2.709859  
       7B2     2.710017    15A1     2.957998    16A1     3.471154  
       8B1     3.511938     8B2     3.540377     9B1     3.768718  
       9B2     3.768723     3A2     3.771679    17A1     3.771851  
      10B1     3.856765    10B2     3.859604    18A1     4.141368  
       4A2     4.277031    19A1     4.277297    11B2     4.393039  
      11B1     4.393993    20A1     4.825215    12B1     5.102759  
      12B2     5.104842     5A2     5.112304    21A1     5.116909  
      22A1     5.230358    13B1     5.330299    13B2     5.336919  
      23A1     5.746419     6A2     6.165715    24A1     6.178096  
      14B1     6.369357    14B2     6.394854    25A1     6.946408  
      26A1     7.848773  

    Beta Occupied:                                                        

       1A1   -19.264087     2A1   -14.466404     3A1    -1.010931  
       4A1    -0.691609     1B2    -0.440039     5A1    -0.420220  
       1B1    -0.371498  

    Beta Virtual:                                                         

       2B2    -0.151268     2B1    -0.139142     6A1    -0.055825  
       7A1     0.422966     3B2     0.464655     3B1     0.475229  
       8A1     0.529437     4B2     0.578076     9A1     0.597196  
       4B1     0.606292     5B2     0.984949     5B1     0.999013  
      10A1     1.026974     1A2     1.026984    11A1     1.040618  
      12A1     1.365107     2A2     1.437253    13A1     1.440322  
       6B2     1.685669     6B1     1.716511    14A1     1.990907  
       7B2     2.810433     7B1     2.818976    15A1     2.978112  
       8B2     3.460610    16A1     3.494400     8B1     3.514907  
       3A2     3.855771    17A1     3.855777     9B2     3.882629  
       9B1     3.882895    10B2     3.891801    10B1     3.910014  
      18A1     4.167923     4A2     4.430366    19A1     4.430388  
      11B2     4.478769    11B1     4.489468    20A1     4.843944  
      12B2     5.049316    12B1     5.049557     5A2     5.071379  
      21A1     5.073269    13B2     5.282481    22A1     5.309280  
      13B1     5.325435    23A1     5.723528     6A2     6.095633  
      24A1     6.095911    14B2     6.300138    14B1     6.355657  
      25A1     6.921702    26A1     7.804106  

    Final Occupation by Irrep:
             A1    A2    B1    B2 
    DOCC [     5,    0,    1,    1 ]
    SOCC [     0,    0,    1,    0 ]
    NA   [     5,    0,    2,    1 ]
    NB   [     5,    0,    1,    1 ]

  @DF-UKS Final Energy:  -129.77600691719698

   => Energetics <=

    Nuclear Repulsion Energy =             17.6725657653956993
    One-Electron Energy =                -212.3499340651360683
    Two-Electron Energy =                  77.1634491421833957
    DFT Exchange-Correlation Energy =     -12.2620877596400089
    Empirical Dispersion Energy =           0.0000000000000000
    VV10 Nonlocal Energy =                  0.0000000000000000
    Total Energy =                       -129.7760069171969803

  UHF NO Occupations:
  HONO-2 :    5 A1 1.9797245
  HONO-1 :    1 B2 1.5265582
  HONO-0 :    2 B1 1.0000000
  LUNO+0 :    2 B2 0.4734418
  LUNO+1 :    6 A1 0.0202755
  LUNO+2 :    7 A1 0.0008791
  LUNO+3 :    8 A1 0.0003387


Computation Completed


Properties will be evaluated at   0.000000,   0.000000,   0.000000 [a0]

Properties computed using the B3LYP density matrix


 Multipole Moments:

 ------------------------------------------------------------------------------------
     Multipole            Electronic (a.u.)      Nuclear  (a.u.)        Total (a.u.)
 ------------------------------------------------------------------------------------

 L = 1.  Multiply by 2.5417464519 to convert [e a0] to [Debye]
 Dipole X            :          0.0000000            0.0000000            0.0000000
 Dipole Y            :          0.0000000            0.0000000            0.0000000
 Dipole Z            :          0.2865143           -0.0063580            0.2801564
 Magnitude           :                                                    0.2801564

 L = 2.  Multiply by 1.3450342976 to convert [e a0^2] to [Debye ang]
 Quadrupole XX       :         -8.3024885            0.0000000           -8.3024885
 Quadrupole XY       :          0.0000000            0.0000000            0.0000000
 Quadrupole XZ       :          0.0000000            0.0000000            0.0000000
 Quadrupole YY       :         -7.4956240            0.0000000           -7.4956240
 Quadrupole YZ       :          0.0000000            0.0000000            0.0000000
 Quadrupole ZZ       :        -45.4354701           37.4863918           -7.9490783
 Traceless XX        :         12.1087057          -12.4954639           -0.3867582
 Traceless YY        :         12.9155702          -12.4954639            0.4201063
 Traceless ZZ        :        -25.0242759           24.9909279           -0.0333481

 ------------------------------------------------------------------------------------
  ==> Computing MBIS Charges <==

  Electron Count from Grid (Expected Number): 15.00000 (15.00000)
  Difference: -0.00000

  MBIS Charges: (a.u.)
   Center  Symbol  Z      Pop.       Charge
      1       O    8    8.117103   -0.117103
      2       N    7    6.882896    0.117104

  MBIS Dipoles: [e a0]
   Center  Symbol  Z        X           Y           Z
      1       O    8   -0.000000   -0.000000   -0.020821
      2       N    7   -0.000000    0.000000   -0.070096

  MBIS Quadrupoles: [e a0^2]
   Center  Symbol  Z      XX        XY        XZ        YY        YZ        ZZ
      1       O    8   -4.2699   -0.0000    0.0000   -3.6316   -0.0000   -3.8665
      2       N    7   -4.0326   -0.0000    0.0000   -3.8641    0.0000   -3.9854

  MBIS Octupoles: [e a0^3]
   Center  Symbol  Z      XXX       XXY       XXZ       XYY       XYZ       XZZ       YYY       YYZ       YZZ       ZZZ
      1       O    8    0.0000   -0.0000    0.0278   -0.0000   -0.0000   -0.0000   -0.0000   -0.0686   -0.0000   -0.2898
      2       N    7   -0.0000   -0.0000    0.0273    0.0000    0.0000    0.0000   -0.0000   -0.0105   -0.0000    0.2685

  MBIS Radial Moments:
   Center  Symbol  Z      [a0^2]      [a0^3]      [a0^4]      
      1       O    8   11.768008   22.403342   51.051124
      2       N    7   11.881986   24.942617   62.477812

  MBIS Valence Widths: [a0]
   Center  Symbol  Z     Width
      1       O    8    0.390576
      2       N    7    0.438155

*** tstop() called on Mac.lan at Sun Aug 10 17:21:41 2025
Module time:
	user time   =       3.64 seconds =       0.06 minutes
	system time =       2.17 seconds =       0.04 minutes
	total time  =          0 seconds =       0.00 minutes
Total time:
	user time   =      18.20 seconds =       0.30 minutes
	system time =       4.02 seconds =       0.07 minutes
	total time  =          2 seconds =       0.03 minutes

    Psi4 stopped on: Sunday, 10 August 2025 05:21PM
    Psi4 wall time for execution: 0:00:02.15

*** Psi4 exiting successfully. Buy a developer a beer!
