
    -----------------------------------------------------------------------
          Psi4: An Open-Source Ab Initio Electronic Structure Package
                               Psi4 1.9.1 release

                         Git: Rev {} zzzzzzz 


    D. G. A. Smith, L. A. Burns, A. C. Simmonett, R. M. Parrish,
    M. C. Schieber, R. Galvelis, P. Kraus, H. Kruse, R. Di Remigio,
    A. Alenaizan, A. M. James, S. Lehtola, J. P. Misiewicz, M. Scheurer,
    R. A. Shaw, J. B. Schriber, Y. Xie, Z. L. Glick, D. A. Sirianni,
    J. S. O'Brien, J. M. Waldrop, A. Kumar, E. G. Hohenstein,
    B. P. Pritchard, B. R. Brooks, H. F. Schaefer III, A. Yu. Sokolov,
    K. Patkowski, A. E. DePrince III, U. Bozkaya, R. A. King,
    F. A. Evangelista, J. M. Turney, T. D. Crawford, C. D. Sherrill,
    J. Chem. Phys. 152(18) 184108 (2020). https://doi.org/10.1063/5.0006002

                            Additional Code Authors
    E. T. Seidl, C. L. Janssen, E. F. Valeev, M. L. Leininger,
    J. F. Gonthier, R. M. Richard, H. R. McAlexander, M. Saitow, X. Wang,
    P. Verma, M. H. Lechner, A. Jiang, S. Behnle, A. G. Heide,
    M. F. Herbst, and D. L. Poole

             Previous Authors, Complete List of Code Contributors,
                       and Citations for Specific Modules
    https://github.com/psi4/psi4/blob/master/codemeta.json
    https://github.com/psi4/psi4/graphs/contributors
    http://psicode.org/psi4manual/master/introduction.html#citing-psifour

    -----------------------------------------------------------------------


    Psi4 started on: Sunday, 10 August 2025 05:21PM

    Process ID: 48687
    Host:       Mac.lan
    PSIDATADIR: /Users/joseantoniorodriguesromero/anaconda3/share/psi4
    Memory:     500.0 MiB
    Threads:    1
    
  ==> Input File <==

--------------------------------------------------------------------------
molecule { 
0 2
O           0.000000           0.000000           0.000000
N           0.000000           0.000000           1.487399
}

set { 
basis              cc-pvtz
reference          uks
maxiter            500
DAMPING_PERCENTAGE 1
E_CONVERGENCE      1.0E-8
D_CONVERGENCE      1.0E-8
DIIS_MAX_VECS      400
MBIS_MAXITER       8000
guess              read
}

E, wfn = energy('b3lyp', restart_file='last_wfn', return_wfn=True)
properties('b3lyp','MBIS_CHARGES', wfn=wfn)
wfn.to_file('last_wfn')
--------------------------------------------------------------------------

Scratch directory: /tmp/
 Found user provided orbital data. Setting orbital guess to READ 
 Copying restart file <last_wfn.npy> to </tmp/scan_NO_39.default.48687.180.npy> for internal processing
   => Libint2 <=

    Primary   basis highest AM E, G, H:  6, 6, 3
    Auxiliary basis highest AM E, G, H:  7, 7, 4
    Onebody   basis highest AM E, G, H:  -, -, -
    Solid Harmonics ordering:            Gaussian

*** tstart() called on Mac.lan
*** at Sun Aug 10 17:21:14 2025

   => Loading Basis Set <=

    Name: CC-PVTZ
    Role: ORBITAL
    Keyword: BASIS
    atoms 1 entry O          line   262 file /Users/joseantoniorodriguesromero/anaconda3/share/psi4/basis/cc-pvtz.gbs 
    atoms 2 entry N          line   224 file /Users/joseantoniorodriguesromero/anaconda3/share/psi4/basis/cc-pvtz.gbs 


         ---------------------------------------------------------
                                   SCF
               by Justin Turney, Rob Parrish, Andy Simmonett
                          and Daniel G. A. Smith
                              UKS Reference
                        1 Threads,    500 MiB Core
         ---------------------------------------------------------

  ==> Geometry <==

    Molecular point group: c2v
    Full point group: C_inf_v

    Geometry (in Angstrom), charge = 0, multiplicity = 2:

       Center              X                  Y                   Z               Mass       
    ------------   -----------------  -----------------  -----------------  -----------------
         O            0.000000000000     0.000000000000    -0.694318493556    15.994914619570
         N            0.000000000000     0.000000000000     0.793080506444    14.003074004430

  Running in c2v symmetry.

  Rotational constants: A = ************  B =      1.02054  C =      1.02054 [cm^-1]
  Rotational constants: A = ************  B =  30594.90119  C =  30594.90119 [MHz]
  Nuclear repulsion =   19.923318354738708

  Charge       = 0
  Multiplicity = 2
  Electrons    = 15
  Nalpha       = 8
  Nbeta        = 7

  ==> Algorithm <==

  SCF Algorithm Type is DF.
  DIIS enabled.
  MOM disabled.
  Fractional occupation disabled.
  Guess Type is READ.
  Energy threshold   = 1.00e-08
  Density threshold  = 1.00e-08
  Integral threshold = 1.00e-12

  ==> Primary Basis <==

  Basis Set: CC-PVTZ
    Blend: CC-PVTZ
    Number of shells: 20
    Number of basis functions: 60
    Number of Cartesian functions: 70
    Spherical Harmonics?: true
    Max angular momentum: 3

  ==> DFT Potential <==

   => LibXC <=

    Version 6.2.2
    S. Lehtola, C. Steigemann, M. J.T. Oliveira, and M. A.L. Marques.,  SoftwareX 7, 1–5 (2018) (10.1016/j.softx.2017.11.002)

   => Composite Functional: B3LYP <= 

    B3LYP Hyb-GGA Exchange-Correlation Functional

    P. J. Stephens, F. J. Devlin, C. F. Chabalowski, and M. J. Frisch.,  J. Phys. Chem. 98, 11623 (1994) (10.1021/j100096a001)

    Deriv               =              1
    GGA                 =           TRUE
    Meta                =          FALSE

    Exchange Hybrid     =           TRUE
    MP2 Hybrid          =          FALSE

   => Exchange Functionals <=

    0.0800   Slater exchange
    0.7200         Becke 88

   => Exact (HF) Exchange <=

    0.2000               HF 

   => Correlation Functionals <=

    0.1900   Vosko, Wilk & Nusair (VWN5_RPA)
    0.8100   Lee, Yang & Parr

   => LibXC Density Thresholds  <==

    XC_HYB_GGA_XC_B3LYP:  1.00E-15 

   => Molecular Quadrature <=

    Radial Scheme          =       TREUTLER
    Pruning Scheme         =           NONE
    Nuclear Scheme         =       TREUTLER

    Blocking Scheme        =         OCTREE
    BS radius alpha        =              1
    Pruning alpha          =              1
    Radial Points          =             75
    Spherical Points       =            302
    Total Points           =          42753
    Total Blocks           =            383
    Max Points             =            256
    Max Functions          =             60
    Weights Tolerance      =       1.00E-15

   => Loading Basis Set <=

    Name: (CC-PVTZ AUX)
    Role: JKFIT
    Keyword: DF_BASIS_SCF
    atoms 1 entry O          line   229 file /Users/joseantoniorodriguesromero/anaconda3/share/psi4/basis/cc-pvtz-jkfit.gbs 
    atoms 2 entry N          line   177 file /Users/joseantoniorodriguesromero/anaconda3/share/psi4/basis/cc-pvtz-jkfit.gbs 

   => Loading Basis Set <=

    Name: CC-PVTZ
    Role: ORBITAL
    Keyword: BASIS
    atoms 1 entry O          line   262 file /Users/joseantoniorodriguesromero/anaconda3/share/psi4/basis/cc-pvtz.gbs 
    atoms 2 entry N          line   224 file /Users/joseantoniorodriguesromero/anaconda3/share/psi4/basis/cc-pvtz.gbs 

  Reading orbitals from file /tmp/scan_NO_39.default.48687.180.npy, no projection.

  ==> Integral Setup <==

  DFHelper Memory: AOs need 0.005 GiB; user supplied 0.296 GiB. 
  Using in-core AOs.

  ==> MemDFJK: Density-Fitted J/K Matrices <==

    J tasked:                   Yes
    K tasked:                   Yes
    wK tasked:                   No
    OpenMP threads:               1
    Memory [MiB]:               303
    Algorithm:                 Core
    Schwarz Cutoff:           1E-12
    Mask sparsity (%):       0.0000
    Fitting Condition:        1E-10

   => Auxiliary Basis Set <=

  Basis Set: (CC-PVTZ AUX)
    Blend: CC-PVTZ-JKFIT
    Number of shells: 50
    Number of basis functions: 158
    Number of Cartesian functions: 192
    Spherical Harmonics?: true
    Max angular momentum: 4

  Cached 100.0% of DFT collocation blocks in 0.070 [GiB].

  Minimum eigenvalue in the overlap matrix is 8.7912637917E-03.
  Reciprocal condition number of the overlap matrix is 2.5022889657E-03.
    Using symmetric orthogonalization.

  ==> Pre-Iterations <==

  SCF Guess: Orbitals guess was supplied from a previous computation.

   -------------------------------------------------------
    Irrep   Nso     Nmo     Nalpha   Nbeta   Ndocc  Nsocc
   -------------------------------------------------------
     A1        26      26       5       5       5       0
     A2         6       6       0       0       0       0
     B1        14      14       2       1       1       1
     B2        14      14       1       1       1       0
   -------------------------------------------------------
    Total      60      60       8       7       7       1
   -------------------------------------------------------

  ==> Iterations <==

                           Total Energy        Delta E     RMS |[F,P]|

   @DF-UKS iter   0:  -129.81920332858476   -1.29819e+02   1.23480e-03 
   @DF-UKS iter   1:  -129.83345727188441   -1.42539e-02   5.65971e-04 DIIS/ADIIS
   @DF-UKS iter   2:  -129.83219612301139    1.26115e-03   1.85634e-03 DIIS/ADIIS/DAMP=1%
   @DF-UKS iter   3:  -129.83298536070919   -7.89238e-04   3.48324e-04 DIIS/ADIIS/DAMP=1%
   @DF-UKS iter   4:  -129.83361812788462   -6.32767e-04   9.59598e-05 DIIS/DAMP=1%
   @DF-UKS iter   5:  -129.83368140084218   -6.32730e-05   5.95185e-05 DIIS/DAMP=1%
   @DF-UKS iter   6:  -129.83368057102780    8.29814e-07   1.66301e-05 DIIS/DAMP=1%
   @DF-UKS iter   7:  -129.83374519275026   -6.46217e-05   9.52253e-06 DIIS/DAMP=1%
   @DF-UKS iter   8:  -129.83373548300776    9.70974e-06   6.41150e-07 DIIS/DAMP=1%
   @DF-UKS iter   9:  -129.83373572802878   -2.45021e-07   3.12723e-07 DIIS/DAMP=1%
   @DF-UKS iter  10:  -129.83373578724741   -5.92186e-08   6.91242e-08 DIIS/DAMP=1%
   @DF-UKS iter  11:  -129.83373594859802   -1.61351e-07   2.18756e-08 DIIS/DAMP=1%
   @DF-UKS iter  12:  -129.83373594236787    6.23015e-09   3.49047e-09 DIIS/DAMP=1%
  Energy and wave function converged.


  ==> Post-Iterations <==

   Electrons on quadrature grid:
      Nalpha   =    7.9999995828 ; deviation = -4.172e-07
      Nbeta    =    6.9999994305 ; deviation = -5.695e-07
      Ntotal   =   14.9999990133 ; deviation = -9.867e-07 

   @Spin Contamination Metric:   2.823183302E-01
   @S^2 Expected:                7.500000000E-01
   @S^2 Observed:                1.032318330E+00
   @S   Expected:                5.000000000E-01
   @S   Observed:                5.000000000E-01

    Orbital Energies [Eh]
    ---------------------

    Alpha Occupied:                                                       

       1A1   -19.260648     2A1   -14.513735     3A1    -1.046658  
       4A1    -0.758464     5A1    -0.453707     1B1    -0.449673  
       1B2    -0.413780     2B1    -0.307106  

    Alpha Virtual:                                                        

       2B2    -0.194162     6A1     0.016096     7A1     0.396658  
       3B1     0.416107     3B2     0.418624     8A1     0.481799  
       9A1     0.572636     4B1     0.599900     4B2     0.615184  
       1A2     0.939481    10A1     0.940186     5B2     0.986186  
       5B1     0.989726    11A1     1.119049     2A2     1.472549  
      12A1     1.472637    13A1     1.477472     6B1     1.806683  
       6B2     1.809745    14A1     2.011402     7B1     2.726083  
       7B2     2.732239    15A1     2.999941     8B1     3.449861  
       8B2     3.468697    16A1     3.624053     3A2     3.757192  
      17A1     3.758016     9B1     3.771331     9B2     3.771429  
      10B1     3.928899    10B2     3.931150    18A1     4.238858  
       4A2     4.286650    19A1     4.288429    11B1     4.488883  
      11B2     4.490698    20A1     4.880186    12B1     5.076242  
      12B2     5.076927    21A1     5.153340     5A2     5.158969  
      22A1     5.161637    13B1     5.589700    13B2     5.594325  
      23A1     6.128474     6A2     6.149997    24A1     6.157126  
      14B1     6.498815    14B2     6.513873    25A1     7.349378  
      26A1     8.323327  

    Beta Occupied:                                                        

       1A1   -19.268841     2A1   -14.483876     3A1    -1.048772  
       4A1    -0.697970     5A1    -0.440432     1B2    -0.437211  
       1B1    -0.386203  

    Beta Virtual:                                                         

       2B2    -0.162623     2B1    -0.133208     6A1     0.035633  
       7A1     0.405243     3B2     0.451804     3B1     0.467100  
       8A1     0.503897     9A1     0.578751     4B2     0.588540  
       4B1     0.613331     1A2     0.996275    10A1     0.996338  
       5B2     1.000945     5B1     1.020075    11A1     1.114549  
      12A1     1.462632     2A2     1.463035    13A1     1.498733  
       6B2     1.799208     6B1     1.826103    14A1     2.011246  
       7B2     2.796045     7B1     2.818663    15A1     3.015302  
       8B2     3.433741     8B1     3.475044    16A1     3.652584  
       3A2     3.813281    17A1     3.813753     9B2     3.859558  
       9B1     3.859642    10B2     3.938285    10B1     3.967604  
      18A1     4.251121     4A2     4.406132    19A1     4.406137  
      11B2     4.539677    11B1     4.562409    20A1     4.928620  
      12B2     5.055185    12B1     5.055233    21A1     5.139453  
       5A2     5.147145    22A1     5.177865    13B2     5.567159  
      13B1     5.602826    23A1     6.110052     6A2     6.124971  
      24A1     6.138066    14B2     6.469583    14B1     6.512530  
      25A1     7.346816    26A1     8.319043  

    Final Occupation by Irrep:
             A1    A2    B1    B2 
    DOCC [     5,    0,    1,    1 ]
    SOCC [     0,    0,    1,    0 ]
    NA   [     5,    0,    2,    1 ]
    NB   [     5,    0,    1,    1 ]

  @DF-UKS Final Energy:  -129.83373594236787

   => Energetics <=

    Nuclear Repulsion Energy =             19.9233183547387078
    One-Electron Energy =                -216.7252375224795173
    Two-Electron Energy =                  79.2300916077243187
    DFT Exchange-Correlation Energy =     -12.2619083823513648
    Empirical Dispersion Energy =           0.0000000000000000
    VV10 Nonlocal Energy =                  0.0000000000000000
    Total Energy =                       -129.8337359423678663

  UHF NO Occupations:
  HONO-2 :    5 A1 1.9978821
  HONO-1 :    1 B2 1.8513656
  HONO-0 :    2 B1 1.0000000
  LUNO+0 :    2 B2 0.1486344
  LUNO+1 :    6 A1 0.0021179
  LUNO+2 :    3 B1 0.0008037
  LUNO+3 :    7 A1 0.0004839


Computation Completed


Properties will be evaluated at   0.000000,   0.000000,   0.000000 [a0]

Properties computed using the SCF density matrix


 Multipole Moments:

 ------------------------------------------------------------------------------------
     Multipole            Electronic (a.u.)      Nuclear  (a.u.)        Total (a.u.)
 ------------------------------------------------------------------------------------

 L = 1.  Multiply by 2.5417464519 to convert [e a0] to [Debye]
 Dipole X            :          0.0000000            0.0000000            0.0000000
 Dipole Y            :          0.0000000            0.0000000            0.0000000
 Dipole Z            :          0.2364179           -0.0056397            0.2307782
 Magnitude           :                                                    0.2307782

 ------------------------------------------------------------------------------------

*** tstop() called on Mac.lan at Sun Aug 10 17:21:16 2025
Module time:
	user time   =      15.62 seconds =       0.26 minutes
	system time =       2.14 seconds =       0.04 minutes
	total time  =          2 seconds =       0.03 minutes
Total time:
	user time   =      15.62 seconds =       0.26 minutes
	system time =       2.14 seconds =       0.04 minutes
	total time  =          2 seconds =       0.03 minutes

*** tstart() called on Mac.lan
*** at Sun Aug 10 17:21:16 2025

   => Libint2 <=

    Primary   basis highest AM E, G, H:  6, 6, 3
    Auxiliary basis highest AM E, G, H:  7, 7, 4
    Onebody   basis highest AM E, G, H:  -, -, -
    Solid Harmonics ordering:            Gaussian
   => Loading Basis Set <=

    Name: CC-PVTZ
    Role: ORBITAL
    Keyword: BASIS
    atoms 1 entry O          line   262 file /Users/joseantoniorodriguesromero/anaconda3/share/psi4/basis/cc-pvtz.gbs 
    atoms 2 entry N          line   224 file /Users/joseantoniorodriguesromero/anaconda3/share/psi4/basis/cc-pvtz.gbs 


         ---------------------------------------------------------
                                   SCF
               by Justin Turney, Rob Parrish, Andy Simmonett
                          and Daniel G. A. Smith
                              UKS Reference
                        1 Threads,    500 MiB Core
         ---------------------------------------------------------

  ==> Geometry <==

    Molecular point group: c2v
    Full point group: C_inf_v

    Geometry (in Angstrom), charge = 0, multiplicity = 2:

       Center              X                  Y                   Z               Mass       
    ------------   -----------------  -----------------  -----------------  -----------------
         O            0.000000000000     0.000000000000    -0.694318493556    15.994914619570
         N            0.000000000000     0.000000000000     0.793080506444    14.003074004430

  Running in c2v symmetry.

  Rotational constants: A = ************  B =      1.02054  C =      1.02054 [cm^-1]
  Rotational constants: A = ************  B =  30594.90119  C =  30594.90119 [MHz]
  Nuclear repulsion =   19.923318354738708

  Charge       = 0
  Multiplicity = 2
  Electrons    = 15
  Nalpha       = 8
  Nbeta        = 7

  ==> Algorithm <==

  SCF Algorithm Type is DF.
  DIIS enabled.
  MOM disabled.
  Fractional occupation disabled.
  Guess Type is READ.
  Energy threshold   = 1.00e-08
  Density threshold  = 1.00e-08
  Integral threshold = 1.00e-12

  ==> Primary Basis <==

  Basis Set: CC-PVTZ
    Blend: CC-PVTZ
    Number of shells: 20
    Number of basis functions: 60
    Number of Cartesian functions: 70
    Spherical Harmonics?: true
    Max angular momentum: 3

  ==> DFT Potential <==

   => LibXC <=

    Version 6.2.2
    S. Lehtola, C. Steigemann, M. J.T. Oliveira, and M. A.L. Marques.,  SoftwareX 7, 1–5 (2018) (10.1016/j.softx.2017.11.002)

   => Composite Functional: B3LYP <= 

    B3LYP Hyb-GGA Exchange-Correlation Functional

    P. J. Stephens, F. J. Devlin, C. F. Chabalowski, and M. J. Frisch.,  J. Phys. Chem. 98, 11623 (1994) (10.1021/j100096a001)

    Deriv               =              1
    GGA                 =           TRUE
    Meta                =          FALSE

    Exchange Hybrid     =           TRUE
    MP2 Hybrid          =          FALSE

   => Exchange Functionals <=

    0.0800   Slater exchange
    0.7200         Becke 88

   => Exact (HF) Exchange <=

    0.2000               HF 

   => Correlation Functionals <=

    0.1900   Vosko, Wilk & Nusair (VWN5_RPA)
    0.8100   Lee, Yang & Parr

   => LibXC Density Thresholds  <==

    XC_HYB_GGA_XC_B3LYP:  1.00E-15 

   => Molecular Quadrature <=

    Radial Scheme          =       TREUTLER
    Pruning Scheme         =           NONE
    Nuclear Scheme         =       TREUTLER

    Blocking Scheme        =         OCTREE
    BS radius alpha        =              1
    Pruning alpha          =              1
    Radial Points          =             75
    Spherical Points       =            302
    Total Points           =          42753
    Total Blocks           =            383
    Max Points             =            256
    Max Functions          =             60
    Weights Tolerance      =       1.00E-15

   => Loading Basis Set <=

    Name: (CC-PVTZ AUX)
    Role: JKFIT
    Keyword: DF_BASIS_SCF
    atoms 1 entry O          line   229 file /Users/joseantoniorodriguesromero/anaconda3/share/psi4/basis/cc-pvtz-jkfit.gbs 
    atoms 2 entry N          line   177 file /Users/joseantoniorodriguesromero/anaconda3/share/psi4/basis/cc-pvtz-jkfit.gbs 

   => Loading Basis Set <=

    Name: CC-PVTZ
    Role: ORBITAL
    Keyword: BASIS
    atoms 1 entry O          line   262 file /Users/joseantoniorodriguesromero/anaconda3/share/psi4/basis/cc-pvtz.gbs 
    atoms 2 entry N          line   224 file /Users/joseantoniorodriguesromero/anaconda3/share/psi4/basis/cc-pvtz.gbs 

  Reading orbitals from file /tmp/scan_NO_39.default.48687.180.npy, no projection.

  ==> Integral Setup <==

  DFHelper Memory: AOs need 0.005 GiB; user supplied 0.296 GiB. 
  Using in-core AOs.

  ==> MemDFJK: Density-Fitted J/K Matrices <==

    J tasked:                   Yes
    K tasked:                   Yes
    wK tasked:                   No
    OpenMP threads:               1
    Memory [MiB]:               303
    Algorithm:                 Core
    Schwarz Cutoff:           1E-12
    Mask sparsity (%):       0.0000
    Fitting Condition:        1E-10

   => Auxiliary Basis Set <=

  Basis Set: (CC-PVTZ AUX)
    Blend: CC-PVTZ-JKFIT
    Number of shells: 50
    Number of basis functions: 158
    Number of Cartesian functions: 192
    Spherical Harmonics?: true
    Max angular momentum: 4

  Cached 100.0% of DFT collocation blocks in 0.070 [GiB].

  Minimum eigenvalue in the overlap matrix is 8.7912637917E-03.
  Reciprocal condition number of the overlap matrix is 2.5022889657E-03.
    Using symmetric orthogonalization.

  ==> Pre-Iterations <==

  SCF Guess: Orbitals guess was supplied from a previous computation.

   -------------------------------------------------------
    Irrep   Nso     Nmo     Nalpha   Nbeta   Ndocc  Nsocc
   -------------------------------------------------------
     A1        26      26       5       5       5       0
     A2         6       6       0       0       0       0
     B1        14      14       2       1       1       1
     B2        14      14       1       1       1       0
   -------------------------------------------------------
    Total      60      60       8       7       7       1
   -------------------------------------------------------

  ==> Iterations <==

                           Total Energy        Delta E     RMS |[F,P]|

   @DF-UKS iter   0:  -129.83373593949707   -1.29834e+02   6.40437e-10 
   @DF-UKS iter   1:  -129.83373593949688    1.98952e-13   2.18820e-09 DIIS
  Energy and wave function converged.


  ==> Post-Iterations <==

   Electrons on quadrature grid:
      Nalpha   =    7.9999995828 ; deviation = -4.172e-07
      Nbeta    =    6.9999994305 ; deviation = -5.695e-07
      Ntotal   =   14.9999990133 ; deviation = -9.867e-07 

   @Spin Contamination Metric:   2.823183023E-01
   @S^2 Expected:                7.500000000E-01
   @S^2 Observed:                1.032318302E+00
   @S   Expected:                5.000000000E-01
   @S   Observed:                5.000000000E-01

    Orbital Energies [Eh]
    ---------------------

    Alpha Occupied:                                                       

       1A1   -19.260648     2A1   -14.513735     3A1    -1.046658  
       4A1    -0.758464     5A1    -0.453707     1B1    -0.449673  
       1B2    -0.413780     2B1    -0.307106  

    Alpha Virtual:                                                        

       2B2    -0.194162     6A1     0.016096     7A1     0.396658  
       3B1     0.416107     3B2     0.418624     8A1     0.481799  
       9A1     0.572636     4B1     0.599900     4B2     0.615184  
       1A2     0.939481    10A1     0.940186     5B2     0.986186  
       5B1     0.989726    11A1     1.119049     2A2     1.472549  
      12A1     1.472637    13A1     1.477472     6B1     1.806683  
       6B2     1.809745    14A1     2.011402     7B1     2.726083  
       7B2     2.732239    15A1     2.999941     8B1     3.449861  
       8B2     3.468697    16A1     3.624053     3A2     3.757192  
      17A1     3.758016     9B1     3.771331     9B2     3.771429  
      10B1     3.928899    10B2     3.931150    18A1     4.238858  
       4A2     4.286650    19A1     4.288429    11B1     4.488883  
      11B2     4.490698    20A1     4.880186    12B1     5.076242  
      12B2     5.076927    21A1     5.153340     5A2     5.158969  
      22A1     5.161637    13B1     5.589700    13B2     5.594324  
      23A1     6.128474     6A2     6.149997    24A1     6.157126  
      14B1     6.498815    14B2     6.513873    25A1     7.349378  
      26A1     8.323327  

    Beta Occupied:                                                        

       1A1   -19.268841     2A1   -14.483876     3A1    -1.048772  
       4A1    -0.697970     5A1    -0.440432     1B2    -0.437211  
       1B1    -0.386203  

    Beta Virtual:                                                         

       2B2    -0.162623     2B1    -0.133208     6A1     0.035633  
       7A1     0.405243     3B2     0.451804     3B1     0.467100  
       8A1     0.503897     9A1     0.578751     4B2     0.588540  
       4B1     0.613331     1A2     0.996275    10A1     0.996338  
       5B2     1.000945     5B1     1.020075    11A1     1.114549  
      12A1     1.462632     2A2     1.463035    13A1     1.498733  
       6B2     1.799208     6B1     1.826103    14A1     2.011246  
       7B2     2.796045     7B1     2.818663    15A1     3.015302  
       8B2     3.433741     8B1     3.475044    16A1     3.652584  
       3A2     3.813281    17A1     3.813753     9B2     3.859558  
       9B1     3.859642    10B2     3.938285    10B1     3.967604  
      18A1     4.251121     4A2     4.406132    19A1     4.406137  
      11B2     4.539677    11B1     4.562409    20A1     4.928620  
      12B2     5.055185    12B1     5.055233    21A1     5.139453  
       5A2     5.147145    22A1     5.177865    13B2     5.567159  
      13B1     5.602826    23A1     6.110051     6A2     6.124971  
      24A1     6.138066    14B2     6.469583    14B1     6.512530  
      25A1     7.346816    26A1     8.319043  

    Final Occupation by Irrep:
             A1    A2    B1    B2 
    DOCC [     5,    0,    1,    1 ]
    SOCC [     0,    0,    1,    0 ]
    NA   [     5,    0,    2,    1 ]
    NB   [     5,    0,    1,    1 ]

  @DF-UKS Final Energy:  -129.83373593949688

   => Energetics <=

    Nuclear Repulsion Energy =             19.9233183547387078
    One-Electron Energy =                -216.7252373956249585
    Two-Electron Energy =                  79.2300913495621160
    DFT Exchange-Correlation Energy =     -12.2619082481727517
    Empirical Dispersion Energy =           0.0000000000000000
    VV10 Nonlocal Energy =                  0.0000000000000000
    Total Energy =                       -129.8337359394968757

  UHF NO Occupations:
  HONO-2 :    5 A1 1.9978821
  HONO-1 :    1 B2 1.8513656
  HONO-0 :    2 B1 1.0000000
  LUNO+0 :    2 B2 0.1486344
  LUNO+1 :    6 A1 0.0021179
  LUNO+2 :    3 B1 0.0008037
  LUNO+3 :    7 A1 0.0004839


Computation Completed


Properties will be evaluated at   0.000000,   0.000000,   0.000000 [a0]

Properties computed using the B3LYP density matrix


 Multipole Moments:

 ------------------------------------------------------------------------------------
     Multipole            Electronic (a.u.)      Nuclear  (a.u.)        Total (a.u.)
 ------------------------------------------------------------------------------------

 L = 1.  Multiply by 2.5417464519 to convert [e a0] to [Debye]
 Dipole X            :          0.0000000            0.0000000            0.0000000
 Dipole Y            :          0.0000000            0.0000000            0.0000000
 Dipole Z            :          0.2364186           -0.0056397            0.2307789
 Magnitude           :                                                    0.2307789

 L = 2.  Multiply by 1.3450342976 to convert [e a0^2] to [Debye ang]
 Quadrupole XX       :         -8.2373581            0.0000000           -8.2373581
 Quadrupole XY       :          0.0000000            0.0000000            0.0000000
 Quadrupole XZ       :          0.0000000            0.0000000            0.0000000
 Quadrupole YY       :         -7.4809939            0.0000000           -7.4809939
 Quadrupole YZ       :          0.0000000            0.0000000            0.0000000
 Quadrupole ZZ       :        -37.5464253           29.4950749           -8.0513504
 Traceless XX        :          9.5175676           -9.8316916           -0.3141240
 Traceless YY        :         10.2739319           -9.8316916            0.4422403
 Traceless ZZ        :        -19.7914995           19.6633833           -0.1281162

 ------------------------------------------------------------------------------------
  ==> Computing MBIS Charges <==

  Electron Count from Grid (Expected Number): 15.00000 (15.00000)
  Difference: -0.00000

  MBIS Charges: (a.u.)
   Center  Symbol  Z      Pop.       Charge
      1       O    8    8.123119   -0.123119
      2       N    7    6.876880    0.123120

  MBIS Dipoles: [e a0]
   Center  Symbol  Z        X           Y           Z
      1       O    8   -0.000000    0.000000   -0.027134
      2       N    7   -0.000000   -0.000000   -0.088151

  MBIS Quadrupoles: [e a0^2]
   Center  Symbol  Z      XX        XY        XZ        YY        YZ        ZZ
      1       O    8   -4.1295    0.0000    0.0000   -3.7269   -0.0000   -3.8783
      2       N    7   -4.1079   -0.0000    0.0000   -3.7541   -0.0000   -4.0446

  MBIS Octupoles: [e a0^3]
   Center  Symbol  Z      XXX       XXY       XXZ       XYY       XYZ       XZZ       YYY       YYZ       YZZ       ZZZ
      1       O    8   -0.0000   -0.0000    0.0158   -0.0000   -0.0000   -0.0000   -0.0000   -0.0749    0.0000   -0.2995
      2       N    7   -0.0000    0.0000   -0.0251   -0.0000   -0.0000   -0.0000   -0.0000    0.0533   -0.0000    0.2414

  MBIS Radial Moments:
   Center  Symbol  Z      [a0^2]      [a0^3]      [a0^4]      
      1       O    8   11.734709   22.266526   50.576669
      2       N    7   11.906560   25.024699   62.718719

  MBIS Valence Widths: [a0]
   Center  Symbol  Z     Width
      1       O    8    0.389923
      2       N    7    0.438913

*** tstop() called on Mac.lan at Sun Aug 10 17:21:16 2025
Module time:
	user time   =       3.78 seconds =       0.06 minutes
	system time =       1.83 seconds =       0.03 minutes
	total time  =          0 seconds =       0.00 minutes
Total time:
	user time   =      19.50 seconds =       0.33 minutes
	system time =       4.10 seconds =       0.07 minutes
	total time  =          2 seconds =       0.03 minutes

    Psi4 stopped on: Sunday, 10 August 2025 05:21PM
    Psi4 wall time for execution: 0:00:02.29

*** Psi4 exiting successfully. Buy a developer a beer!
