
    -----------------------------------------------------------------------
          Psi4: An Open-Source Ab Initio Electronic Structure Package
                               Psi4 1.9.1 release

                         Git: Rev {} zzzzzzz 


    D. G. A. Smith, L. A. Burns, A. C. Simmonett, R. M. Parrish,
    M. C. Schieber, R. Galvelis, P. Kraus, H. Kruse, R. Di Remigio,
    A. Alenaizan, A. M. James, S. Lehtola, J. P. Misiewicz, M. Scheurer,
    R. A. Shaw, J. B. Schriber, Y. Xie, Z. L. Glick, D. A. Sirianni,
    J. S. O'Brien, J. M. Waldrop, A. Kumar, E. G. Hohenstein,
    B. P. Pritchard, B. R. Brooks, H. F. Schaefer III, A. Yu. Sokolov,
    K. Patkowski, A. E. DePrince III, U. Bozkaya, R. A. King,
    F. A. Evangelista, J. M. Turney, T. D. Crawford, C. D. Sherrill,
    J. Chem. Phys. 152(18) 184108 (2020). https://doi.org/10.1063/5.0006002

                            Additional Code Authors
    E. T. Seidl, C. L. Janssen, E. F. Valeev, M. L. Leininger,
    J. F. Gonthier, R. M. Richard, H. R. McAlexander, M. Saitow, X. Wang,
    P. Verma, M. H. Lechner, A. Jiang, S. Behnle, A. G. Heide,
    M. F. Herbst, and D. L. Poole

             Previous Authors, Complete List of Code Contributors,
                       and Citations for Specific Modules
    https://github.com/psi4/psi4/blob/master/codemeta.json
    https://github.com/psi4/psi4/graphs/contributors
    http://psicode.org/psi4manual/master/introduction.html#citing-psifour

    -----------------------------------------------------------------------


    Psi4 started on: Sunday, 10 August 2025 05:08PM

    Process ID: 48325
    Host:       Mac.lan
    PSIDATADIR: /Users/joseantoniorodriguesromero/anaconda3/share/psi4
    Memory:     500.0 MiB
    Threads:    1
    
  ==> Input File <==

--------------------------------------------------------------------------
molecule { 
0 2
C           0.000000           0.000000           0.000000
H           0.000000           0.000000           1.148926
}

set { 
basis              cc-pvtz
reference          uks
maxiter            500
DAMPING_PERCENTAGE 1
E_CONVERGENCE      1.0E-8
D_CONVERGENCE      1.0E-8
DIIS_MAX_VECS      400
MBIS_MAXITER       8000
guess              read
}

E, wfn = energy('b3lyp', restart_file='last_wfn', return_wfn=True)
properties('b3lyp','MBIS_CHARGES', wfn=wfn)
wfn.to_file('last_wfn')
--------------------------------------------------------------------------

Scratch directory: /tmp/
 Found user provided orbital data. Setting orbital guess to READ 
 Copying restart file <last_wfn.npy> to </tmp/scan_HC_24.default.48325.180.npy> for internal processing
   => Libint2 <=

    Primary   basis highest AM E, G, H:  6, 6, 3
    Auxiliary basis highest AM E, G, H:  7, 7, 4
    Onebody   basis highest AM E, G, H:  -, -, -
    Solid Harmonics ordering:            Gaussian

*** tstart() called on Mac.lan
*** at Sun Aug 10 17:08:15 2025

   => Loading Basis Set <=

    Name: CC-PVTZ
    Role: ORBITAL
    Keyword: BASIS
    atoms 1 entry C          line   186 file /Users/joseantoniorodriguesromero/anaconda3/share/psi4/basis/cc-pvtz.gbs 
    atoms 2 entry H          line    23 file /Users/joseantoniorodriguesromero/anaconda3/share/psi4/basis/cc-pvtz.gbs 


         ---------------------------------------------------------
                                   SCF
               by Justin Turney, Rob Parrish, Andy Simmonett
                          and Daniel G. A. Smith
                              UKS Reference
                        1 Threads,    500 MiB Core
         ---------------------------------------------------------

  ==> Geometry <==

    Molecular point group: c2v
    Full point group: C_inf_v

    Geometry (in Angstrom), charge = 0, multiplicity = 2:

       Center              X                  Y                   Z               Mass       
    ------------   -----------------  -----------------  -----------------  -----------------
         C            0.000000000000     0.000000000000    -0.089016909446    12.000000000000
         H            0.000000000000     0.000000000000     1.059909090554     1.007825032230

  Running in c2v symmetry.

  Rotational constants: A = ************  B =     13.73570  C =     13.73570 [cm^-1]
  Rotational constants: A = ************  B = 411785.81642  C = 411785.81642 [MHz]
  Nuclear repulsion =    2.763505451195291

  Charge       = 0
  Multiplicity = 2
  Electrons    = 7
  Nalpha       = 4
  Nbeta        = 3

  ==> Algorithm <==

  SCF Algorithm Type is DF.
  DIIS enabled.
  MOM disabled.
  Fractional occupation disabled.
  Guess Type is READ.
  Energy threshold   = 1.00e-08
  Density threshold  = 1.00e-08
  Integral threshold = 1.00e-12

  ==> Primary Basis <==

  Basis Set: CC-PVTZ
    Blend: CC-PVTZ
    Number of shells: 16
    Number of basis functions: 44
    Number of Cartesian functions: 50
    Spherical Harmonics?: true
    Max angular momentum: 3

  ==> DFT Potential <==

   => LibXC <=

    Version 6.2.2
    S. Lehtola, C. Steigemann, M. J.T. Oliveira, and M. A.L. Marques.,  SoftwareX 7, 1–5 (2018) (10.1016/j.softx.2017.11.002)

   => Composite Functional: B3LYP <= 

    B3LYP Hyb-GGA Exchange-Correlation Functional

    P. J. Stephens, F. J. Devlin, C. F. Chabalowski, and M. J. Frisch.,  J. Phys. Chem. 98, 11623 (1994) (10.1021/j100096a001)

    Deriv               =              1
    GGA                 =           TRUE
    Meta                =          FALSE

    Exchange Hybrid     =           TRUE
    MP2 Hybrid          =          FALSE

   => Exchange Functionals <=

    0.0800   Slater exchange
    0.7200         Becke 88

   => Exact (HF) Exchange <=

    0.2000               HF 

   => Correlation Functionals <=

    0.1900   Vosko, Wilk & Nusair (VWN5_RPA)
    0.8100   Lee, Yang & Parr

   => LibXC Density Thresholds  <==

    XC_HYB_GGA_XC_B3LYP:  1.00E-15 

   => Molecular Quadrature <=

    Radial Scheme          =       TREUTLER
    Pruning Scheme         =           NONE
    Nuclear Scheme         =       TREUTLER

    Blocking Scheme        =         OCTREE
    BS radius alpha        =              1
    Pruning alpha          =              1
    Radial Points          =             75
    Spherical Points       =            302
    Total Points           =          43817
    Total Blocks           =            390
    Max Points             =            255
    Max Functions          =             44
    Weights Tolerance      =       1.00E-15

   => Loading Basis Set <=

    Name: (CC-PVTZ AUX)
    Role: JKFIT
    Keyword: DF_BASIS_SCF
    atoms 1 entry C          line   125 file /Users/joseantoniorodriguesromero/anaconda3/share/psi4/basis/cc-pvtz-jkfit.gbs 
    atoms 2 entry H          line    51 file /Users/joseantoniorodriguesromero/anaconda3/share/psi4/basis/cc-pvtz-jkfit.gbs 

   => Loading Basis Set <=

    Name: CC-PVTZ
    Role: ORBITAL
    Keyword: BASIS
    atoms 1 entry C          line   186 file /Users/joseantoniorodriguesromero/anaconda3/share/psi4/basis/cc-pvtz.gbs 
    atoms 2 entry H          line    23 file /Users/joseantoniorodriguesromero/anaconda3/share/psi4/basis/cc-pvtz.gbs 

  Reading orbitals from file /tmp/scan_HC_24.default.48325.180.npy, no projection.

  ==> Integral Setup <==

  DFHelper Memory: AOs need 0.002 GiB; user supplied 0.311 GiB. 
  Using in-core AOs.

  ==> MemDFJK: Density-Fitted J/K Matrices <==

    J tasked:                   Yes
    K tasked:                   Yes
    wK tasked:                   No
    OpenMP threads:               1
    Memory [MiB]:               318
    Algorithm:                 Core
    Schwarz Cutoff:           1E-12
    Mask sparsity (%):       0.0000
    Fitting Condition:        1E-10

   => Auxiliary Basis Set <=

  Basis Set: (CC-PVTZ AUX)
    Blend: CC-PVTZ-JKFIT
    Number of shells: 35
    Number of basis functions: 109
    Number of Cartesian functions: 131
    Spherical Harmonics?: true
    Max angular momentum: 4

  Cached 100.0% of DFT collocation blocks in 0.055 [GiB].

  Minimum eigenvalue in the overlap matrix is 3.0371303713E-03.
  Reciprocal condition number of the overlap matrix is 7.4917826336E-04.
    Using symmetric orthogonalization.

  ==> Pre-Iterations <==

  SCF Guess: Orbitals guess was supplied from a previous computation.

   -------------------------------------------------------
    Irrep   Nso     Nmo     Nalpha   Nbeta   Ndocc  Nsocc
   -------------------------------------------------------
     A1        20      20       3       3       3       0
     A2         4       4       0       0       0       0
     B1        10      10       1       0       0       1
     B2        10      10       0       0       0       0
   -------------------------------------------------------
    Total      44      44       4       3       3       1
   -------------------------------------------------------

  ==> Iterations <==

                           Total Energy        Delta E     RMS |[F,P]|

   @DF-UKS iter   0:   -38.49904955616719   -3.84990e+01   1.12399e-03 
   @DF-UKS iter   1:   -38.49594767395224    3.10188e-03   1.85211e-04 ADIIS/DIIS
   @DF-UKS iter   2:   -38.49595755023492   -9.87628e-06   1.02448e-04 ADIIS/DIIS/DAMP=1%
   @DF-UKS iter   3:   -38.49592480441304    3.27458e-05   1.94199e-05 DIIS/DAMP=1%
   @DF-UKS iter   4:   -38.49597041702523   -4.56126e-05   8.59439e-07 DIIS/DAMP=1%
   @DF-UKS iter   5:   -38.49596168026969    8.73676e-06   1.83944e-07 DIIS/DAMP=1%
   @DF-UKS iter   6:   -38.49596180653323   -1.26264e-07   5.26401e-08 DIIS/DAMP=1%
   @DF-UKS iter   7:   -38.49596175896802    4.75652e-08   9.69979e-09 DIIS/DAMP=1%
   @DF-UKS iter   8:   -38.49596176501105   -6.04302e-09   1.33763e-09 DIIS/DAMP=1%
  Energy and wave function converged.


  ==> Post-Iterations <==

   Electrons on quadrature grid:
      Nalpha   =    3.9999999938 ; deviation = -6.154e-09
      Nbeta    =    2.9999999933 ; deviation = -6.674e-09
      Ntotal   =    6.9999999872 ; deviation = -1.283e-08 

   @Spin Contamination Metric:   3.011196482E-03
   @S^2 Expected:                7.500000000E-01
   @S^2 Observed:                7.530111965E-01
   @S   Expected:                5.000000000E-01
   @S   Observed:                5.000000000E-01

    Orbital Energies [Eh]
    ---------------------

    Alpha Occupied:                                                       

       1A1   -10.284324     2A1    -0.645350     3A1    -0.324028  
       1B1    -0.259982  

    Alpha Virtual:                                                        

       1B2    -0.147986     4A1     0.055064     5A1     0.281493  
       2B1     0.291373     2B2     0.311044     6A1     0.344044  
       7A1     0.443406     3B1     0.565332     3B2     0.568573  
       1A2     0.654941     8A1     0.660687     9A1     0.947237  
       4B1     1.020672     4B2     1.021051    10A1     1.349433  
       5B1     1.927598     5B2     1.953787    11A1     2.072659  
      12A1     2.207065     2A2     2.522324    13A1     2.526021  
       6B1     2.604395     6B2     2.610687     7B1     2.641211  
       7B2     2.643729    14A1     2.876356     3A2     2.900485  
      15A1     2.916392     8B1     3.049564     8B2     3.058239  
      16A1     3.196383     4A2     3.527028    17A1     3.528696  
       9B2     3.783122     9B1     3.785599    18A1     4.358172  
      10B1     4.606637    10B2     4.607705    19A1     4.672255  
      20A1     7.770372  

    Beta Occupied:                                                        

       1A1   -10.269574     2A1    -0.602536     3A1    -0.304179  

    Beta Virtual:                                                         

       1B2    -0.131911     1B1    -0.085936     4A1     0.060583  
       5A1     0.288127     2B2     0.318493     2B1     0.347084  
       6A1     0.354650     7A1     0.459027     3B2     0.569974  
       3B1     0.592521     8A1     0.698182     1A2     0.698463  
       9A1     0.960128     4B2     1.022486     4B1     1.042108  
      10A1     1.360005     5B2     1.965298     5B1     2.009332  
      11A1     2.081770    12A1     2.222677     2A2     2.552425  
      13A1     2.552708     6B2     2.613692     6B1     2.646169  
       7B2     2.699791     7B1     2.700625    14A1     2.895525  
       3A2     2.978132    15A1     2.983814     8B2     3.062725  
       8B1     3.102142    16A1     3.210751     4A2     3.537977  
      17A1     3.538374     9B2     3.779243     9B1     3.788446  
      18A1     4.366697    10B2     4.608478    10B1     4.631355  
      19A1     4.677481    20A1     7.787165  

    Final Occupation by Irrep:
             A1    A2    B1    B2 
    DOCC [     3,    0,    0,    0 ]
    SOCC [     0,    0,    1,    0 ]
    NA   [     3,    0,    1,    0 ]
    NB   [     3,    0,    0,    0 ]

  @DF-UKS Final Energy:   -38.49596176501105

   => Energetics <=

    Nuclear Repulsion Energy =              2.7635054511952908
    One-Electron Energy =                 -56.5498060835253966
    Two-Electron Energy =                  19.8314558586410286
    DFT Exchange-Correlation Energy =      -4.5411169913219736
    Empirical Dispersion Energy =           0.0000000000000000
    VV10 Nonlocal Energy =                  0.0000000000000000
    Total Energy =                        -38.4959617650110459

  UHF NO Occupations:
  HONO-2 :    2 A1 1.9998258
  HONO-1 :    3 A1 1.9986684
  HONO-0 :    1 B1 1.0000000
  LUNO+0 :    4 A1 0.0013316
  LUNO+1 :    5 A1 0.0001742
  LUNO+2 :    6 A1 0.0000007
  LUNO+3 :    7 A1 0.0000000


Computation Completed


Properties will be evaluated at   0.000000,   0.000000,   0.000000 [a0]

Properties computed using the SCF density matrix


 Multipole Moments:

 ------------------------------------------------------------------------------------
     Multipole            Electronic (a.u.)      Nuclear  (a.u.)        Total (a.u.)
 ------------------------------------------------------------------------------------

 L = 1.  Multiply by 2.5417464519 to convert [e a0] to [Debye]
 Dipole X            :          0.0000000            0.0000000            0.0000000
 Dipole Y            :          0.0000000            0.0000000            0.0000000
 Dipole Z            :         -0.4322725            0.9936324            0.5613599
 Magnitude           :                                                    0.5613599

 ------------------------------------------------------------------------------------

*** tstop() called on Mac.lan at Sun Aug 10 17:08:16 2025
Module time:
	user time   =       9.19 seconds =       0.15 minutes
	system time =       2.03 seconds =       0.03 minutes
	total time  =          1 seconds =       0.02 minutes
Total time:
	user time   =       9.19 seconds =       0.15 minutes
	system time =       2.03 seconds =       0.03 minutes
	total time  =          1 seconds =       0.02 minutes

*** tstart() called on Mac.lan
*** at Sun Aug 10 17:08:16 2025

   => Libint2 <=

    Primary   basis highest AM E, G, H:  6, 6, 3
    Auxiliary basis highest AM E, G, H:  7, 7, 4
    Onebody   basis highest AM E, G, H:  -, -, -
    Solid Harmonics ordering:            Gaussian
   => Loading Basis Set <=

    Name: CC-PVTZ
    Role: ORBITAL
    Keyword: BASIS
    atoms 1 entry C          line   186 file /Users/joseantoniorodriguesromero/anaconda3/share/psi4/basis/cc-pvtz.gbs 
    atoms 2 entry H          line    23 file /Users/joseantoniorodriguesromero/anaconda3/share/psi4/basis/cc-pvtz.gbs 


         ---------------------------------------------------------
                                   SCF
               by Justin Turney, Rob Parrish, Andy Simmonett
                          and Daniel G. A. Smith
                              UKS Reference
                        1 Threads,    500 MiB Core
         ---------------------------------------------------------

  ==> Geometry <==

    Molecular point group: c2v
    Full point group: C_inf_v

    Geometry (in Angstrom), charge = 0, multiplicity = 2:

       Center              X                  Y                   Z               Mass       
    ------------   -----------------  -----------------  -----------------  -----------------
         C            0.000000000000     0.000000000000    -0.089016909446    12.000000000000
         H            0.000000000000     0.000000000000     1.059909090554     1.007825032230

  Running in c2v symmetry.

  Rotational constants: A = ************  B =     13.73570  C =     13.73570 [cm^-1]
  Rotational constants: A = ************  B = 411785.81642  C = 411785.81642 [MHz]
  Nuclear repulsion =    2.763505451195291

  Charge       = 0
  Multiplicity = 2
  Electrons    = 7
  Nalpha       = 4
  Nbeta        = 3

  ==> Algorithm <==

  SCF Algorithm Type is DF.
  DIIS enabled.
  MOM disabled.
  Fractional occupation disabled.
  Guess Type is READ.
  Energy threshold   = 1.00e-08
  Density threshold  = 1.00e-08
  Integral threshold = 1.00e-12

  ==> Primary Basis <==

  Basis Set: CC-PVTZ
    Blend: CC-PVTZ
    Number of shells: 16
    Number of basis functions: 44
    Number of Cartesian functions: 50
    Spherical Harmonics?: true
    Max angular momentum: 3

  ==> DFT Potential <==

   => LibXC <=

    Version 6.2.2
    S. Lehtola, C. Steigemann, M. J.T. Oliveira, and M. A.L. Marques.,  SoftwareX 7, 1–5 (2018) (10.1016/j.softx.2017.11.002)

   => Composite Functional: B3LYP <= 

    B3LYP Hyb-GGA Exchange-Correlation Functional

    P. J. Stephens, F. J. Devlin, C. F. Chabalowski, and M. J. Frisch.,  J. Phys. Chem. 98, 11623 (1994) (10.1021/j100096a001)

    Deriv               =              1
    GGA                 =           TRUE
    Meta                =          FALSE

    Exchange Hybrid     =           TRUE
    MP2 Hybrid          =          FALSE

   => Exchange Functionals <=

    0.0800   Slater exchange
    0.7200         Becke 88

   => Exact (HF) Exchange <=

    0.2000               HF 

   => Correlation Functionals <=

    0.1900   Vosko, Wilk & Nusair (VWN5_RPA)
    0.8100   Lee, Yang & Parr

   => LibXC Density Thresholds  <==

    XC_HYB_GGA_XC_B3LYP:  1.00E-15 

   => Molecular Quadrature <=

    Radial Scheme          =       TREUTLER
    Pruning Scheme         =           NONE
    Nuclear Scheme         =       TREUTLER

    Blocking Scheme        =         OCTREE
    BS radius alpha        =              1
    Pruning alpha          =              1
    Radial Points          =             75
    Spherical Points       =            302
    Total Points           =          43817
    Total Blocks           =            390
    Max Points             =            255
    Max Functions          =             44
    Weights Tolerance      =       1.00E-15

   => Loading Basis Set <=

    Name: (CC-PVTZ AUX)
    Role: JKFIT
    Keyword: DF_BASIS_SCF
    atoms 1 entry C          line   125 file /Users/joseantoniorodriguesromero/anaconda3/share/psi4/basis/cc-pvtz-jkfit.gbs 
    atoms 2 entry H          line    51 file /Users/joseantoniorodriguesromero/anaconda3/share/psi4/basis/cc-pvtz-jkfit.gbs 

   => Loading Basis Set <=

    Name: CC-PVTZ
    Role: ORBITAL
    Keyword: BASIS
    atoms 1 entry C          line   186 file /Users/joseantoniorodriguesromero/anaconda3/share/psi4/basis/cc-pvtz.gbs 
    atoms 2 entry H          line    23 file /Users/joseantoniorodriguesromero/anaconda3/share/psi4/basis/cc-pvtz.gbs 

  Reading orbitals from file /tmp/scan_HC_24.default.48325.180.npy, no projection.

  ==> Integral Setup <==

  DFHelper Memory: AOs need 0.002 GiB; user supplied 0.311 GiB. 
  Using in-core AOs.

  ==> MemDFJK: Density-Fitted J/K Matrices <==

    J tasked:                   Yes
    K tasked:                   Yes
    wK tasked:                   No
    OpenMP threads:               1
    Memory [MiB]:               318
    Algorithm:                 Core
    Schwarz Cutoff:           1E-12
    Mask sparsity (%):       0.0000
    Fitting Condition:        1E-10

   => Auxiliary Basis Set <=

  Basis Set: (CC-PVTZ AUX)
    Blend: CC-PVTZ-JKFIT
    Number of shells: 35
    Number of basis functions: 109
    Number of Cartesian functions: 131
    Spherical Harmonics?: true
    Max angular momentum: 4

  Cached 100.0% of DFT collocation blocks in 0.055 [GiB].

  Minimum eigenvalue in the overlap matrix is 3.0371303713E-03.
  Reciprocal condition number of the overlap matrix is 7.4917826336E-04.
    Using symmetric orthogonalization.

  ==> Pre-Iterations <==

  SCF Guess: Orbitals guess was supplied from a previous computation.

   -------------------------------------------------------
    Irrep   Nso     Nmo     Nalpha   Nbeta   Ndocc  Nsocc
   -------------------------------------------------------
     A1        20      20       3       3       3       0
     A2         4       4       0       0       0       0
     B1        10      10       1       0       0       1
     B2        10      10       0       0       0       0
   -------------------------------------------------------
    Total      44      44       4       3       3       1
   -------------------------------------------------------

  ==> Iterations <==

                           Total Energy        Delta E     RMS |[F,P]|

   @DF-UKS iter   0:   -38.49596176463809   -3.84960e+01   1.34198e-10 
   @DF-UKS iter   1:   -38.49596176463813   -4.26326e-14   5.90304e-11 DIIS
  Energy and wave function converged.


  ==> Post-Iterations <==

   Electrons on quadrature grid:
      Nalpha   =    3.9999999938 ; deviation = -6.154e-09
      Nbeta    =    2.9999999933 ; deviation = -6.674e-09
      Ntotal   =    6.9999999872 ; deviation = -1.283e-08 

   @Spin Contamination Metric:   3.011196638E-03
   @S^2 Expected:                7.500000000E-01
   @S^2 Observed:                7.530111966E-01
   @S   Expected:                5.000000000E-01
   @S   Observed:                5.000000000E-01

    Orbital Energies [Eh]
    ---------------------

    Alpha Occupied:                                                       

       1A1   -10.284324     2A1    -0.645350     3A1    -0.324028  
       1B1    -0.259982  

    Alpha Virtual:                                                        

       1B2    -0.147986     4A1     0.055064     5A1     0.281493  
       2B1     0.291373     2B2     0.311044     6A1     0.344044  
       7A1     0.443406     3B1     0.565332     3B2     0.568573  
       1A2     0.654941     8A1     0.660687     9A1     0.947237  
       4B1     1.020672     4B2     1.021051    10A1     1.349433  
       5B1     1.927598     5B2     1.953787    11A1     2.072659  
      12A1     2.207065     2A2     2.522324    13A1     2.526021  
       6B1     2.604395     6B2     2.610687     7B1     2.641211  
       7B2     2.643729    14A1     2.876356     3A2     2.900485  
      15A1     2.916392     8B1     3.049564     8B2     3.058239  
      16A1     3.196383     4A2     3.527028    17A1     3.528696  
       9B2     3.783122     9B1     3.785599    18A1     4.358172  
      10B1     4.606637    10B2     4.607705    19A1     4.672255  
      20A1     7.770372  

    Beta Occupied:                                                        

       1A1   -10.269574     2A1    -0.602536     3A1    -0.304179  

    Beta Virtual:                                                         

       1B2    -0.131911     1B1    -0.085936     4A1     0.060583  
       5A1     0.288127     2B2     0.318493     2B1     0.347084  
       6A1     0.354650     7A1     0.459027     3B2     0.569974  
       3B1     0.592521     8A1     0.698182     1A2     0.698463  
       9A1     0.960128     4B2     1.022486     4B1     1.042108  
      10A1     1.360005     5B2     1.965298     5B1     2.009332  
      11A1     2.081770    12A1     2.222677     2A2     2.552425  
      13A1     2.552708     6B2     2.613692     6B1     2.646169  
       7B2     2.699791     7B1     2.700625    14A1     2.895525  
       3A2     2.978132    15A1     2.983814     8B2     3.062725  
       8B1     3.102142    16A1     3.210751     4A2     3.537977  
      17A1     3.538374     9B2     3.779243     9B1     3.788446  
      18A1     4.366697    10B2     4.608478    10B1     4.631355  
      19A1     4.677481    20A1     7.787165  

    Final Occupation by Irrep:
             A1    A2    B1    B2 
    DOCC [     3,    0,    0,    0 ]
    SOCC [     0,    0,    1,    0 ]
    NA   [     3,    0,    1,    0 ]
    NB   [     3,    0,    0,    0 ]

  @DF-UKS Final Energy:   -38.49596176463813

   => Energetics <=

    Nuclear Repulsion Energy =              2.7635054511952908
    One-Electron Energy =                 -56.5498060411057608
    Two-Electron Energy =                  19.8314558133539798
    DFT Exchange-Correlation Energy =      -4.5411169880816429
    Empirical Dispersion Energy =           0.0000000000000000
    VV10 Nonlocal Energy =                  0.0000000000000000
    Total Energy =                        -38.4959617646381247

  UHF NO Occupations:
  HONO-2 :    2 A1 1.9998258
  HONO-1 :    3 A1 1.9986684
  HONO-0 :    1 B1 1.0000000
  LUNO+0 :    4 A1 0.0013316
  LUNO+1 :    5 A1 0.0001742
  LUNO+2 :    6 A1 0.0000007
  LUNO+3 :    7 A1 0.0000000


Computation Completed


Properties will be evaluated at   0.000000,   0.000000,   0.000000 [a0]

Properties computed using the B3LYP density matrix


 Multipole Moments:

 ------------------------------------------------------------------------------------
     Multipole            Electronic (a.u.)      Nuclear  (a.u.)        Total (a.u.)
 ------------------------------------------------------------------------------------

 L = 1.  Multiply by 2.5417464519 to convert [e a0] to [Debye]
 Dipole X            :          0.0000000            0.0000000            0.0000000
 Dipole Y            :          0.0000000            0.0000000            0.0000000
 Dipole Z            :         -0.4322725            0.9936324            0.5613599
 Magnitude           :                                                    0.5613599

 L = 2.  Multiply by 1.3450342976 to convert [e a0^2] to [Debye ang]
 Quadrupole XX       :         -5.7211318            0.0000000           -5.7211318
 Quadrupole XY       :          0.0000000            0.0000000            0.0000000
 Quadrupole XZ       :          0.0000000            0.0000000            0.0000000
 Quadrupole YY       :         -4.2263589            0.0000000           -4.2263589
 Quadrupole YZ       :          0.0000000            0.0000000            0.0000000
 Quadrupole ZZ       :         -9.7485827            4.1815432           -5.5670395
 Traceless XX        :          0.8442260           -1.3938477           -0.5496218
 Traceless YY        :          2.3389989           -1.3938477            0.9451512
 Traceless ZZ        :         -3.1832249            2.7876954           -0.3955295

 ------------------------------------------------------------------------------------
  ==> Computing MBIS Charges <==

  Electron Count from Grid (Expected Number):  7.00000 ( 7.00000)
  Difference: -0.00000

  MBIS Charges: (a.u.)
   Center  Symbol  Z      Pop.       Charge
      1       C    6    6.083158   -0.083158
      2       H    1    0.916842    0.083158

  MBIS Dipoles: [e a0]
   Center  Symbol  Z        X           Y           Z
      1       C    6   -0.000000    0.000000    0.331027
      2       H    1   -0.000000    0.000000    0.049783

  MBIS Quadrupoles: [e a0^2]
   Center  Symbol  Z      XX        XY        XZ        YY        YZ        ZZ
      1       C    6   -5.1391    0.0000   -0.0000   -3.7158   -0.0000   -5.4096
      2       H    1   -0.5820   -0.0000    0.0000   -0.5106   -0.0000   -0.5767

  MBIS Octupoles: [e a0^3]
   Center  Symbol  Z      XXX       XXY       XXZ       XYY       XYZ       XZZ       YYY       YYZ       YZZ       ZZZ
      1       C    6    0.0000    0.0000    0.4468    0.0000   -0.0000   -0.0000    0.0000    0.4677   -0.0000    0.8327
      2       H    1    0.0000    0.0000    0.0012   -0.0000   -0.0000    0.0000   -0.0000   -0.0396   -0.0000   -0.0306

  MBIS Radial Moments:
   Center  Symbol  Z      [a0^2]      [a0^3]      [a0^4]      
      1       C    6   14.264503   35.642579   106.526682
      2       H    1    1.669340    3.231541    7.546235

  MBIS Valence Widths: [a0]
   Center  Symbol  Z     Width
      1       C    6    0.523626
      2       H    1    0.392090

*** tstop() called on Mac.lan at Sun Aug 10 17:08:17 2025
Module time:
	user time   =       2.68 seconds =       0.04 minutes
	system time =       1.98 seconds =       0.03 minutes
	total time  =          1 seconds =       0.02 minutes
Total time:
	user time   =      11.96 seconds =       0.20 minutes
	system time =       4.12 seconds =       0.07 minutes
	total time  =          2 seconds =       0.03 minutes

    Psi4 stopped on: Sunday, 10 August 2025 05:08PM
    Psi4 wall time for execution: 0:00:01.58

*** Psi4 exiting successfully. Buy a developer a beer!
