
    -----------------------------------------------------------------------
          Psi4: An Open-Source Ab Initio Electronic Structure Package
                               Psi4 1.9.1 release

                         Git: Rev {} zzzzzzz 


    D. G. A. Smith, L. A. Burns, A. C. Simmonett, R. M. Parrish,
    M. C. Schieber, R. Galvelis, P. Kraus, H. Kruse, R. Di Remigio,
    A. Alenaizan, A. M. James, S. Lehtola, J. P. Misiewicz, M. Scheurer,
    R. A. Shaw, J. B. Schriber, Y. Xie, Z. L. Glick, D. A. Sirianni,
    J. S. O'Brien, J. M. Waldrop, A. Kumar, E. G. Hohenstein,
    B. P. Pritchard, B. R. Brooks, H. F. Schaefer III, A. Yu. Sokolov,
    K. Patkowski, A. E. DePrince III, U. Bozkaya, R. A. King,
    F. A. Evangelista, J. M. Turney, T. D. Crawford, C. D. Sherrill,
    J. Chem. Phys. 152(18) 184108 (2020). https://doi.org/10.1063/5.0006002

                            Additional Code Authors
    E. T. Seidl, C. L. Janssen, E. F. Valeev, M. L. Leininger,
    J. F. Gonthier, R. M. Richard, H. R. McAlexander, M. Saitow, X. Wang,
    P. Verma, M. H. Lechner, A. Jiang, S. Behnle, A. G. Heide,
    M. F. Herbst, and D. L. Poole

             Previous Authors, Complete List of Code Contributors,
                       and Citations for Specific Modules
    https://github.com/psi4/psi4/blob/master/codemeta.json
    https://github.com/psi4/psi4/graphs/contributors
    http://psicode.org/psi4manual/master/introduction.html#citing-psifour

    -----------------------------------------------------------------------


    Psi4 started on: Sunday, 10 August 2025 05:09PM

    Process ID: 48370
    Host:       Mac.lan
    PSIDATADIR: /Users/joseantoniorodriguesromero/anaconda3/share/psi4
    Memory:     500.0 MiB
    Threads:    1
    
  ==> Input File <==

--------------------------------------------------------------------------
molecule { 
0 2
C           0.000000           0.000000           0.000000
H           0.000000           0.000000           1.561714
}

set { 
basis              cc-pvtz
reference          uks
maxiter            500
DAMPING_PERCENTAGE 1
E_CONVERGENCE      1.0E-8
D_CONVERGENCE      1.0E-8
DIIS_MAX_VECS      400
MBIS_MAXITER       8000
guess              read
}

E, wfn = energy('b3lyp', restart_file='last_wfn', return_wfn=True)
properties('b3lyp','MBIS_CHARGES', wfn=wfn)
wfn.to_file('last_wfn')
--------------------------------------------------------------------------

Scratch directory: /tmp/
 Found user provided orbital data. Setting orbital guess to READ 
 Copying restart file <last_wfn.npy> to </tmp/scan_HC_44.default.48370.180.npy> for internal processing
   => Libint2 <=

    Primary   basis highest AM E, G, H:  6, 6, 3
    Auxiliary basis highest AM E, G, H:  7, 7, 4
    Onebody   basis highest AM E, G, H:  -, -, -
    Solid Harmonics ordering:            Gaussian

*** tstart() called on Mac.lan
*** at Sun Aug 10 17:09:42 2025

   => Loading Basis Set <=

    Name: CC-PVTZ
    Role: ORBITAL
    Keyword: BASIS
    atoms 1 entry C          line   186 file /Users/joseantoniorodriguesromero/anaconda3/share/psi4/basis/cc-pvtz.gbs 
    atoms 2 entry H          line    23 file /Users/joseantoniorodriguesromero/anaconda3/share/psi4/basis/cc-pvtz.gbs 


         ---------------------------------------------------------
                                   SCF
               by Justin Turney, Rob Parrish, Andy Simmonett
                          and Daniel G. A. Smith
                              UKS Reference
                        1 Threads,    500 MiB Core
         ---------------------------------------------------------

  ==> Geometry <==

    Molecular point group: c2v
    Full point group: C_inf_v

    Geometry (in Angstrom), charge = 0, multiplicity = 2:

       Center              X                  Y                   Z               Mass       
    ------------   -----------------  -----------------  -----------------  -----------------
         C            0.000000000000     0.000000000000    -0.120999049302    12.000000000000
         H            0.000000000000     0.000000000000     1.440714950698     1.007825032230

  Running in c2v symmetry.

  Rotational constants: A = ************  B =      7.43416  C =      7.43416 [cm^-1]
  Rotational constants: A = ************  B = 222870.45089  C = 222870.45089 [MHz]
  Nuclear repulsion =    2.033063201085474

  Charge       = 0
  Multiplicity = 2
  Electrons    = 7
  Nalpha       = 4
  Nbeta        = 3

  ==> Algorithm <==

  SCF Algorithm Type is DF.
  DIIS enabled.
  MOM disabled.
  Fractional occupation disabled.
  Guess Type is READ.
  Energy threshold   = 1.00e-08
  Density threshold  = 1.00e-08
  Integral threshold = 1.00e-12

  ==> Primary Basis <==

  Basis Set: CC-PVTZ
    Blend: CC-PVTZ
    Number of shells: 16
    Number of basis functions: 44
    Number of Cartesian functions: 50
    Spherical Harmonics?: true
    Max angular momentum: 3

  ==> DFT Potential <==

   => LibXC <=

    Version 6.2.2
    S. Lehtola, C. Steigemann, M. J.T. Oliveira, and M. A.L. Marques.,  SoftwareX 7, 1–5 (2018) (10.1016/j.softx.2017.11.002)

   => Composite Functional: B3LYP <= 

    B3LYP Hyb-GGA Exchange-Correlation Functional

    P. J. Stephens, F. J. Devlin, C. F. Chabalowski, and M. J. Frisch.,  J. Phys. Chem. 98, 11623 (1994) (10.1021/j100096a001)

    Deriv               =              1
    GGA                 =           TRUE
    Meta                =          FALSE

    Exchange Hybrid     =           TRUE
    MP2 Hybrid          =          FALSE

   => Exchange Functionals <=

    0.0800   Slater exchange
    0.7200         Becke 88

   => Exact (HF) Exchange <=

    0.2000               HF 

   => Correlation Functionals <=

    0.1900   Vosko, Wilk & Nusair (VWN5_RPA)
    0.8100   Lee, Yang & Parr

   => LibXC Density Thresholds  <==

    XC_HYB_GGA_XC_B3LYP:  1.00E-15 

   => Molecular Quadrature <=

    Radial Scheme          =       TREUTLER
    Pruning Scheme         =           NONE
    Nuclear Scheme         =       TREUTLER

    Blocking Scheme        =         OCTREE
    BS radius alpha        =              1
    Pruning alpha          =              1
    Radial Points          =             75
    Spherical Points       =            302
    Total Points           =          43882
    Total Blocks           =            389
    Max Points             =            255
    Max Functions          =             44
    Weights Tolerance      =       1.00E-15

   => Loading Basis Set <=

    Name: (CC-PVTZ AUX)
    Role: JKFIT
    Keyword: DF_BASIS_SCF
    atoms 1 entry C          line   125 file /Users/joseantoniorodriguesromero/anaconda3/share/psi4/basis/cc-pvtz-jkfit.gbs 
    atoms 2 entry H          line    51 file /Users/joseantoniorodriguesromero/anaconda3/share/psi4/basis/cc-pvtz-jkfit.gbs 

   => Loading Basis Set <=

    Name: CC-PVTZ
    Role: ORBITAL
    Keyword: BASIS
    atoms 1 entry C          line   186 file /Users/joseantoniorodriguesromero/anaconda3/share/psi4/basis/cc-pvtz.gbs 
    atoms 2 entry H          line    23 file /Users/joseantoniorodriguesromero/anaconda3/share/psi4/basis/cc-pvtz.gbs 

  Reading orbitals from file /tmp/scan_HC_44.default.48370.180.npy, no projection.

  ==> Integral Setup <==

  DFHelper Memory: AOs need 0.002 GiB; user supplied 0.311 GiB. 
  Using in-core AOs.

  ==> MemDFJK: Density-Fitted J/K Matrices <==

    J tasked:                   Yes
    K tasked:                   Yes
    wK tasked:                   No
    OpenMP threads:               1
    Memory [MiB]:               318
    Algorithm:                 Core
    Schwarz Cutoff:           1E-12
    Mask sparsity (%):       0.0000
    Fitting Condition:        1E-10

   => Auxiliary Basis Set <=

  Basis Set: (CC-PVTZ AUX)
    Blend: CC-PVTZ-JKFIT
    Number of shells: 35
    Number of basis functions: 109
    Number of Cartesian functions: 131
    Spherical Harmonics?: true
    Max angular momentum: 4

  Cached 100.0% of DFT collocation blocks in 0.055 [GiB].

  Minimum eigenvalue in the overlap matrix is 1.9128820323E-02.
  Reciprocal condition number of the overlap matrix is 5.2796096722E-03.
    Using symmetric orthogonalization.

  ==> Pre-Iterations <==

  SCF Guess: Orbitals guess was supplied from a previous computation.

   -------------------------------------------------------
    Irrep   Nso     Nmo     Nalpha   Nbeta   Ndocc  Nsocc
   -------------------------------------------------------
     A1        20      20       3       3       3       0
     A2         4       4       0       0       0       0
     B1        10      10       1       0       0       1
     B2        10      10       0       0       0       0
   -------------------------------------------------------
    Total      44      44       4       3       3       1
   -------------------------------------------------------

  ==> Iterations <==

                           Total Energy        Delta E     RMS |[F,P]|

   @DF-UKS iter   0:   -38.44644418926992   -3.84464e+01   5.38087e-04 
   @DF-UKS iter   1:   -38.45054805932685   -4.10387e-03   1.98721e-04 DIIS/ADIIS
   @DF-UKS iter   2:   -38.45054887207571   -8.12749e-07   1.92946e-04 DIIS/ADIIS/DAMP=1%
   @DF-UKS iter   3:   -38.45065613254570   -1.07260e-04   4.42656e-05 DIIS/DAMP=1%
   @DF-UKS iter   4:   -38.45054893908836    1.07193e-04   4.19645e-06 DIIS/DAMP=1%
   @DF-UKS iter   5:   -38.45056848535256   -1.95463e-05   2.41410e-06 DIIS/DAMP=1%
   @DF-UKS iter   6:   -38.45056862881544   -1.43463e-07   6.56055e-07 DIIS/DAMP=1%
   @DF-UKS iter   7:   -38.45056914254999   -5.13735e-07   6.38209e-08 DIIS/DAMP=1%
   @DF-UKS iter   8:   -38.45056894059817    2.01952e-07   1.51735e-08 DIIS/DAMP=1%
   @DF-UKS iter   9:   -38.45056895073676   -1.01386e-08   2.83399e-09 DIIS/DAMP=1%
   @DF-UKS iter  10:   -38.45056894910624    1.63052e-09   3.89546e-10 DIIS/DAMP=1%
  Energy and wave function converged.


  ==> Post-Iterations <==

   Electrons on quadrature grid:
      Nalpha   =    3.9999999860 ; deviation = -1.399e-08
      Nbeta    =    2.9999999730 ; deviation = -2.703e-08
      Ntotal   =    6.9999999590 ; deviation = -4.102e-08 

   @Spin Contamination Metric:   5.635867659E-03
   @S^2 Expected:                7.500000000E-01
   @S^2 Observed:                7.556358677E-01
   @S   Expected:                5.000000000E-01
   @S   Observed:                5.000000000E-01

    Orbital Energies [Eh]
    ---------------------

    Alpha Occupied:                                                       

       1A1   -10.325256     2A1    -0.597210     3A1    -0.312213  
       1B1    -0.270928  

    Alpha Virtual:                                                        

       1B2    -0.156397     4A1    -0.022121     5A1     0.257649  
       2B1     0.283450     2B2     0.302700     6A1     0.312630  
       7A1     0.446492     3B1     0.538152     3B2     0.540150  
       1A2     0.650993     8A1     0.656711     9A1     0.824038  
       4B1     0.910056     4B2     0.911568    10A1     1.187649  
       5B1     1.887860     5B2     1.914815    11A1     2.071038  
      12A1     2.436592     6B1     2.538782     6B2     2.541841  
      13A1     2.587250     2A2     2.600273    14A1     2.605288  
       7B1     2.630629     7B2     2.633250     3A2     2.872985  
      15A1     2.885572     8B1     2.951932     8B2     2.969243  
      16A1     3.197684     4A2     3.271056    17A1     3.271831  
      18A1     3.589358     9B2     3.605432     9B1     3.607035  
      10B2     3.896360    10B1     3.897278    19A1     4.089343  
      20A1     5.282648  

    Beta Occupied:                                                        

       1A1   -10.309388     2A1    -0.544339     3A1    -0.301068  

    Beta Virtual:                                                         

       1B2    -0.139759     1B1    -0.092149     4A1    -0.012603  
       5A1     0.256413     2B2     0.309986     6A1     0.321588  
       2B1     0.338851     7A1     0.468623     3B2     0.539730  
       3B1     0.556559     8A1     0.693863     1A2     0.694588  
       9A1     0.835547     4B2     0.912181     4B1     0.931738  
      10A1     1.191733     5B2     1.925610     5B1     1.969290  
      11A1     2.082881    12A1     2.431780     6B2     2.545820  
       6B1     2.576491    13A1     2.601876     2A2     2.637190  
      14A1     2.643302     7B2     2.689506     7B1     2.690157  
      15A1     2.949662     3A2     2.950429     8B2     2.977344  
       8B1     3.021219    16A1     3.220819     4A2     3.269775  
      17A1     3.270634     9B2     3.596911     9B1     3.603884  
      18A1     3.610177    10B2     3.890484    10B1     3.902381  
      19A1     4.084383    20A1     5.292806  

    Final Occupation by Irrep:
             A1    A2    B1    B2 
    DOCC [     3,    0,    0,    0 ]
    SOCC [     0,    0,    1,    0 ]
    NA   [     3,    0,    1,    0 ]
    NB   [     3,    0,    0,    0 ]

  @DF-UKS Final Energy:   -38.45056894910624

   => Energetics <=

    Nuclear Repulsion Energy =              2.0330632010854743
    One-Electron Energy =                 -55.0845368201948631
    Two-Electron Energy =                  19.0605258814605030
    DFT Exchange-Correlation Energy =      -4.4596212114573595
    Empirical Dispersion Energy =           0.0000000000000000
    VV10 Nonlocal Energy =                  0.0000000000000000
    Total Energy =                        -38.4505689491062412

  UHF NO Occupations:
  HONO-2 :    2 A1 1.9991076
  HONO-1 :    3 A1 1.9980730
  HONO-0 :    1 B1 1.0000000
  LUNO+0 :    4 A1 0.0019270
  LUNO+1 :    5 A1 0.0008924
  LUNO+2 :    6 A1 0.0000007
  LUNO+3 :    7 A1 0.0000000


Computation Completed


Properties will be evaluated at   0.000000,   0.000000,   0.000000 [a0]

Properties computed using the SCF density matrix


 Multipole Moments:

 ------------------------------------------------------------------------------------
     Multipole            Electronic (a.u.)      Nuclear  (a.u.)        Total (a.u.)
 ------------------------------------------------------------------------------------

 L = 1.  Multiply by 2.5417464519 to convert [e a0] to [Debye]
 Dipole X            :          0.0000000            0.0000000            0.0000000
 Dipole Y            :          0.0000000            0.0000000            0.0000000
 Dipole Z            :         -1.1397709            1.3506263            0.2108554
 Magnitude           :                                                    0.2108554

 ------------------------------------------------------------------------------------

*** tstop() called on Mac.lan at Sun Aug 10 17:09:44 2025
Module time:
	user time   =      11.75 seconds =       0.20 minutes
	system time =       2.34 seconds =       0.04 minutes
	total time  =          2 seconds =       0.03 minutes
Total time:
	user time   =      11.75 seconds =       0.20 minutes
	system time =       2.34 seconds =       0.04 minutes
	total time  =          2 seconds =       0.03 minutes

*** tstart() called on Mac.lan
*** at Sun Aug 10 17:09:44 2025

   => Libint2 <=

    Primary   basis highest AM E, G, H:  6, 6, 3
    Auxiliary basis highest AM E, G, H:  7, 7, 4
    Onebody   basis highest AM E, G, H:  -, -, -
    Solid Harmonics ordering:            Gaussian
   => Loading Basis Set <=

    Name: CC-PVTZ
    Role: ORBITAL
    Keyword: BASIS
    atoms 1 entry C          line   186 file /Users/joseantoniorodriguesromero/anaconda3/share/psi4/basis/cc-pvtz.gbs 
    atoms 2 entry H          line    23 file /Users/joseantoniorodriguesromero/anaconda3/share/psi4/basis/cc-pvtz.gbs 


         ---------------------------------------------------------
                                   SCF
               by Justin Turney, Rob Parrish, Andy Simmonett
                          and Daniel G. A. Smith
                              UKS Reference
                        1 Threads,    500 MiB Core
         ---------------------------------------------------------

  ==> Geometry <==

    Molecular point group: c2v
    Full point group: C_inf_v

    Geometry (in Angstrom), charge = 0, multiplicity = 2:

       Center              X                  Y                   Z               Mass       
    ------------   -----------------  -----------------  -----------------  -----------------
         C            0.000000000000     0.000000000000    -0.120999049302    12.000000000000
         H            0.000000000000     0.000000000000     1.440714950698     1.007825032230

  Running in c2v symmetry.

  Rotational constants: A = ************  B =      7.43416  C =      7.43416 [cm^-1]
  Rotational constants: A = ************  B = 222870.45089  C = 222870.45089 [MHz]
  Nuclear repulsion =    2.033063201085474

  Charge       = 0
  Multiplicity = 2
  Electrons    = 7
  Nalpha       = 4
  Nbeta        = 3

  ==> Algorithm <==

  SCF Algorithm Type is DF.
  DIIS enabled.
  MOM disabled.
  Fractional occupation disabled.
  Guess Type is READ.
  Energy threshold   = 1.00e-08
  Density threshold  = 1.00e-08
  Integral threshold = 1.00e-12

  ==> Primary Basis <==

  Basis Set: CC-PVTZ
    Blend: CC-PVTZ
    Number of shells: 16
    Number of basis functions: 44
    Number of Cartesian functions: 50
    Spherical Harmonics?: true
    Max angular momentum: 3

  ==> DFT Potential <==

   => LibXC <=

    Version 6.2.2
    S. Lehtola, C. Steigemann, M. J.T. Oliveira, and M. A.L. Marques.,  SoftwareX 7, 1–5 (2018) (10.1016/j.softx.2017.11.002)

   => Composite Functional: B3LYP <= 

    B3LYP Hyb-GGA Exchange-Correlation Functional

    P. J. Stephens, F. J. Devlin, C. F. Chabalowski, and M. J. Frisch.,  J. Phys. Chem. 98, 11623 (1994) (10.1021/j100096a001)

    Deriv               =              1
    GGA                 =           TRUE
    Meta                =          FALSE

    Exchange Hybrid     =           TRUE
    MP2 Hybrid          =          FALSE

   => Exchange Functionals <=

    0.0800   Slater exchange
    0.7200         Becke 88

   => Exact (HF) Exchange <=

    0.2000               HF 

   => Correlation Functionals <=

    0.1900   Vosko, Wilk & Nusair (VWN5_RPA)
    0.8100   Lee, Yang & Parr

   => LibXC Density Thresholds  <==

    XC_HYB_GGA_XC_B3LYP:  1.00E-15 

   => Molecular Quadrature <=

    Radial Scheme          =       TREUTLER
    Pruning Scheme         =           NONE
    Nuclear Scheme         =       TREUTLER

    Blocking Scheme        =         OCTREE
    BS radius alpha        =              1
    Pruning alpha          =              1
    Radial Points          =             75
    Spherical Points       =            302
    Total Points           =          43882
    Total Blocks           =            389
    Max Points             =            255
    Max Functions          =             44
    Weights Tolerance      =       1.00E-15

   => Loading Basis Set <=

    Name: (CC-PVTZ AUX)
    Role: JKFIT
    Keyword: DF_BASIS_SCF
    atoms 1 entry C          line   125 file /Users/joseantoniorodriguesromero/anaconda3/share/psi4/basis/cc-pvtz-jkfit.gbs 
    atoms 2 entry H          line    51 file /Users/joseantoniorodriguesromero/anaconda3/share/psi4/basis/cc-pvtz-jkfit.gbs 

   => Loading Basis Set <=

    Name: CC-PVTZ
    Role: ORBITAL
    Keyword: BASIS
    atoms 1 entry C          line   186 file /Users/joseantoniorodriguesromero/anaconda3/share/psi4/basis/cc-pvtz.gbs 
    atoms 2 entry H          line    23 file /Users/joseantoniorodriguesromero/anaconda3/share/psi4/basis/cc-pvtz.gbs 

  Reading orbitals from file /tmp/scan_HC_44.default.48370.180.npy, no projection.

  ==> Integral Setup <==

  DFHelper Memory: AOs need 0.002 GiB; user supplied 0.311 GiB. 
  Using in-core AOs.

  ==> MemDFJK: Density-Fitted J/K Matrices <==

    J tasked:                   Yes
    K tasked:                   Yes
    wK tasked:                   No
    OpenMP threads:               1
    Memory [MiB]:               318
    Algorithm:                 Core
    Schwarz Cutoff:           1E-12
    Mask sparsity (%):       0.0000
    Fitting Condition:        1E-10

   => Auxiliary Basis Set <=

  Basis Set: (CC-PVTZ AUX)
    Blend: CC-PVTZ-JKFIT
    Number of shells: 35
    Number of basis functions: 109
    Number of Cartesian functions: 131
    Spherical Harmonics?: true
    Max angular momentum: 4

  Cached 100.0% of DFT collocation blocks in 0.055 [GiB].

  Minimum eigenvalue in the overlap matrix is 1.9128820323E-02.
  Reciprocal condition number of the overlap matrix is 5.2796096722E-03.
    Using symmetric orthogonalization.

  ==> Pre-Iterations <==

  SCF Guess: Orbitals guess was supplied from a previous computation.

   -------------------------------------------------------
    Irrep   Nso     Nmo     Nalpha   Nbeta   Ndocc  Nsocc
   -------------------------------------------------------
     A1        20      20       3       3       3       0
     A2         4       4       0       0       0       0
     B1        10      10       1       0       0       1
     B2        10      10       0       0       0       0
   -------------------------------------------------------
    Total      44      44       4       3       3       1
   -------------------------------------------------------

  ==> Iterations <==

                           Total Energy        Delta E     RMS |[F,P]|

   @DF-UKS iter   0:   -38.45056894988965   -3.84506e+01   4.69050e-11 
   @DF-UKS iter   1:   -38.45056894988967   -2.13163e-14   5.97884e-11 DIIS
  Energy and wave function converged.


  ==> Post-Iterations <==

   Electrons on quadrature grid:
      Nalpha   =    3.9999999860 ; deviation = -1.399e-08
      Nbeta    =    2.9999999730 ; deviation = -2.703e-08
      Ntotal   =    6.9999999590 ; deviation = -4.102e-08 

   @Spin Contamination Metric:   5.635867376E-03
   @S^2 Expected:                7.500000000E-01
   @S^2 Observed:                7.556358674E-01
   @S   Expected:                5.000000000E-01
   @S   Observed:                5.000000000E-01

    Orbital Energies [Eh]
    ---------------------

    Alpha Occupied:                                                       

       1A1   -10.325256     2A1    -0.597210     3A1    -0.312213  
       1B1    -0.270928  

    Alpha Virtual:                                                        

       1B2    -0.156397     4A1    -0.022121     5A1     0.257649  
       2B1     0.283450     2B2     0.302700     6A1     0.312630  
       7A1     0.446492     3B1     0.538152     3B2     0.540150  
       1A2     0.650993     8A1     0.656711     9A1     0.824038  
       4B1     0.910056     4B2     0.911568    10A1     1.187649  
       5B1     1.887860     5B2     1.914815    11A1     2.071038  
      12A1     2.436592     6B1     2.538782     6B2     2.541841  
      13A1     2.587250     2A2     2.600273    14A1     2.605288  
       7B1     2.630629     7B2     2.633250     3A2     2.872985  
      15A1     2.885572     8B1     2.951932     8B2     2.969243  
      16A1     3.197684     4A2     3.271056    17A1     3.271831  
      18A1     3.589358     9B2     3.605432     9B1     3.607035  
      10B2     3.896360    10B1     3.897278    19A1     4.089343  
      20A1     5.282648  

    Beta Occupied:                                                        

       1A1   -10.309388     2A1    -0.544339     3A1    -0.301068  

    Beta Virtual:                                                         

       1B2    -0.139759     1B1    -0.092149     4A1    -0.012603  
       5A1     0.256413     2B2     0.309986     6A1     0.321588  
       2B1     0.338851     7A1     0.468623     3B2     0.539730  
       3B1     0.556559     8A1     0.693863     1A2     0.694588  
       9A1     0.835547     4B2     0.912181     4B1     0.931738  
      10A1     1.191733     5B2     1.925610     5B1     1.969290  
      11A1     2.082881    12A1     2.431780     6B2     2.545820  
       6B1     2.576491    13A1     2.601876     2A2     2.637190  
      14A1     2.643302     7B2     2.689506     7B1     2.690157  
      15A1     2.949662     3A2     2.950429     8B2     2.977344  
       8B1     3.021219    16A1     3.220819     4A2     3.269775  
      17A1     3.270634     9B2     3.596911     9B1     3.603884  
      18A1     3.610177    10B2     3.890484    10B1     3.902381  
      19A1     4.084383    20A1     5.292806  

    Final Occupation by Irrep:
             A1    A2    B1    B2 
    DOCC [     3,    0,    0,    0 ]
    SOCC [     0,    0,    1,    0 ]
    NA   [     3,    0,    1,    0 ]
    NB   [     3,    0,    0,    0 ]

  @DF-UKS Final Energy:   -38.45056894988967

   => Energetics <=

    Nuclear Repulsion Energy =              2.0330632010854743
    One-Electron Energy =                 -55.0845368022499144
    Two-Electron Energy =                  19.0605258618509907
    DFT Exchange-Correlation Energy =      -4.4596212105762261
    Empirical Dispersion Energy =           0.0000000000000000
    VV10 Nonlocal Energy =                  0.0000000000000000
    Total Energy =                        -38.4505689498896714

  UHF NO Occupations:
  HONO-2 :    2 A1 1.9991076
  HONO-1 :    3 A1 1.9980730
  HONO-0 :    1 B1 1.0000000
  LUNO+0 :    4 A1 0.0019270
  LUNO+1 :    5 A1 0.0008924
  LUNO+2 :    6 A1 0.0000007
  LUNO+3 :    7 A1 0.0000000


Computation Completed


Properties will be evaluated at   0.000000,   0.000000,   0.000000 [a0]

Properties computed using the B3LYP density matrix


 Multipole Moments:

 ------------------------------------------------------------------------------------
     Multipole            Electronic (a.u.)      Nuclear  (a.u.)        Total (a.u.)
 ------------------------------------------------------------------------------------

 L = 1.  Multiply by 2.5417464519 to convert [e a0] to [Debye]
 Dipole X            :          0.0000000            0.0000000            0.0000000
 Dipole Y            :          0.0000000            0.0000000            0.0000000
 Dipole Z            :         -1.1397709            1.3506263            0.2108554
 Magnitude           :                                                    0.2108554

 L = 2.  Multiply by 1.3450342976 to convert [e a0^2] to [Debye ang]
 Quadrupole XX       :         -5.9770997            0.0000000           -5.9770997
 Quadrupole XY       :          0.0000000            0.0000000            0.0000000
 Quadrupole XZ       :          0.0000000            0.0000000            0.0000000
 Quadrupole YY       :         -4.5272832            0.0000000           -4.5272832
 Quadrupole YZ       :          0.0000000            0.0000000            0.0000000
 Quadrupole ZZ       :        -13.5630280            7.7260137           -5.8370143
 Traceless XX        :          2.0453706           -2.5753379           -0.5299673
 Traceless YY        :          3.4951871           -2.5753379            0.9198492
 Traceless ZZ        :         -5.5405577            5.1506758           -0.3898819

 ------------------------------------------------------------------------------------
  ==> Computing MBIS Charges <==

  Electron Count from Grid (Expected Number):  7.00000 ( 7.00000)
  Difference: -0.00000

  MBIS Charges: (a.u.)
   Center  Symbol  Z      Pop.       Charge
      1       C    6    5.981964    0.018036
      2       H    1    1.018036   -0.018036

  MBIS Dipoles: [e a0]
   Center  Symbol  Z        X           Y           Z
      1       C    6    0.000000   -0.000000    0.173995
      2       H    1   -0.000000    0.000000    0.090088

  MBIS Quadrupoles: [e a0^2]
   Center  Symbol  Z      XX        XY        XZ        YY        YZ        ZZ
      1       C    6   -5.0339    0.0000    0.0000   -3.6560    0.0000   -5.2051
      2       H    1   -0.9432    0.0000   -0.0000   -0.8712    0.0000   -0.9101

  MBIS Octupoles: [e a0^3]
   Center  Symbol  Z      XXX       XXY       XXZ       XYY       XYZ       XZZ       YYY       YYZ       YZZ       ZZZ
      1       C    6    0.0000   -0.0000    0.1834   -0.0000   -0.0000   -0.0000   -0.0000    0.1260   -0.0000    0.1908
      2       H    1   -0.0000    0.0000    0.0313   -0.0000    0.0000   -0.0000    0.0000   -0.0513    0.0000    0.0808

  MBIS Radial Moments:
   Center  Symbol  Z      [a0^2]      [a0^3]      [a0^4]      
      1       C    6   13.895014   34.493400   102.240833
      2       H    1    2.724607    6.361623   17.749972

  MBIS Valence Widths: [a0]
   Center  Symbol  Z     Width
      1       C    6    0.523877
      2       H    1    0.474977

*** tstop() called on Mac.lan at Sun Aug 10 17:09:44 2025
Module time:
	user time   =       2.47 seconds =       0.04 minutes
	system time =       1.71 seconds =       0.03 minutes
	total time  =          0 seconds =       0.00 minutes
Total time:
	user time   =      14.25 seconds =       0.24 minutes
	system time =       4.21 seconds =       0.07 minutes
	total time  =          2 seconds =       0.03 minutes

    Psi4 stopped on: Sunday, 10 August 2025 05:09PM
    Psi4 wall time for execution: 0:00:01.81

*** Psi4 exiting successfully. Buy a developer a beer!
