
    -----------------------------------------------------------------------
          Psi4: An Open-Source Ab Initio Electronic Structure Package
                               Psi4 1.9.1 release

                         Git: Rev {} zzzzzzz 


    D. G. A. Smith, L. A. Burns, A. C. Simmonett, R. M. Parrish,
    M. C. Schieber, R. Galvelis, P. Kraus, H. Kruse, R. Di Remigio,
    A. Alenaizan, A. M. James, S. Lehtola, J. P. Misiewicz, M. Scheurer,
    R. A. Shaw, J. B. Schriber, Y. Xie, Z. L. Glick, D. A. Sirianni,
    J. S. O'Brien, J. M. Waldrop, A. Kumar, E. G. Hohenstein,
    B. P. Pritchard, B. R. Brooks, H. F. Schaefer III, A. Yu. Sokolov,
    K. Patkowski, A. E. DePrince III, U. Bozkaya, R. A. King,
    F. A. Evangelista, J. M. Turney, T. D. Crawford, C. D. Sherrill,
    J. Chem. Phys. 152(18) 184108 (2020). https://doi.org/10.1063/5.0006002

                            Additional Code Authors
    E. T. Seidl, C. L. Janssen, E. F. Valeev, M. L. Leininger,
    J. F. Gonthier, R. M. Richard, H. R. McAlexander, M. Saitow, X. Wang,
    P. Verma, M. H. Lechner, A. Jiang, S. Behnle, A. G. Heide,
    M. F. Herbst, and D. L. Poole

             Previous Authors, Complete List of Code Contributors,
                       and Citations for Specific Modules
    https://github.com/psi4/psi4/blob/master/codemeta.json
    https://github.com/psi4/psi4/graphs/contributors
    http://psicode.org/psi4manual/master/introduction.html#citing-psifour

    -----------------------------------------------------------------------


    Psi4 started on: Sunday, 10 August 2025 05:05PM

    Process ID: 48229
    Host:       Mac.lan
    PSIDATADIR: /Users/joseantoniorodriguesromero/anaconda3/share/psi4
    Memory:     500.0 MiB
    Threads:    1
    
  ==> Input File <==

--------------------------------------------------------------------------
molecule { 
0 1
N           0.000000           0.000000           0.000000
N           0.000000           0.000000           1.035647
}

set { 
basis              cc-pvtz
reference          uks
maxiter            500
DAMPING_PERCENTAGE 1
E_CONVERGENCE      1.0E-8
D_CONVERGENCE      1.0E-8
DIIS_MAX_VECS      400
MBIS_MAXITER       8000
guess              read
}

E, wfn = energy('b3lyp', restart_file='last_wfn', return_wfn=True)
properties('b3lyp','MBIS_CHARGES', wfn=wfn)
wfn.to_file('last_wfn')
--------------------------------------------------------------------------

Scratch directory: /tmp/
 Found user provided orbital data. Setting orbital guess to READ 
 Copying restart file <last_wfn.npy> to </tmp/scan_NN_20.default.48229.180.npy> for internal processing
   => Libint2 <=

    Primary   basis highest AM E, G, H:  6, 6, 3
    Auxiliary basis highest AM E, G, H:  7, 7, 4
    Onebody   basis highest AM E, G, H:  -, -, -
    Solid Harmonics ordering:            Gaussian

*** tstart() called on Mac.lan
*** at Sun Aug 10 17:05:38 2025

   => Loading Basis Set <=

    Name: CC-PVTZ
    Role: ORBITAL
    Keyword: BASIS
    atoms 1-2 entry N          line   224 file /Users/joseantoniorodriguesromero/anaconda3/share/psi4/basis/cc-pvtz.gbs 


         ---------------------------------------------------------
                                   SCF
               by Justin Turney, Rob Parrish, Andy Simmonett
                          and Daniel G. A. Smith
                              UKS Reference
                        1 Threads,    500 MiB Core
         ---------------------------------------------------------

  ==> Geometry <==

    Molecular point group: d2h
    Full point group: D_inf_h

    Geometry (in Angstrom), charge = 0, multiplicity = 1:

       Center              X                  Y                   Z               Mass       
    ------------   -----------------  -----------------  -----------------  -----------------
         N            0.000000000000     0.000000000000    -0.517823500000    14.003074004430
         N            0.000000000000     0.000000000000     0.517823500000    14.003074004430

  Running in d2h symmetry.

  Rotational constants: A = ************  B =      2.24481  C =      2.24481 [cm^-1]
  Rotational constants: A = ************  B =  67297.71336  C =  67297.71336 [MHz]
  Nuclear repulsion =   25.037182865233035

  Charge       = 0
  Multiplicity = 1
  Electrons    = 14
  Nalpha       = 7
  Nbeta        = 7

  ==> Algorithm <==

  SCF Algorithm Type is DF.
  DIIS enabled.
  MOM disabled.
  Fractional occupation disabled.
  Guess Type is READ.
  Energy threshold   = 1.00e-08
  Density threshold  = 1.00e-08
  Integral threshold = 1.00e-12

  ==> Primary Basis <==

  Basis Set: CC-PVTZ
    Blend: CC-PVTZ
    Number of shells: 20
    Number of basis functions: 60
    Number of Cartesian functions: 70
    Spherical Harmonics?: true
    Max angular momentum: 3

  ==> DFT Potential <==

   => LibXC <=

    Version 6.2.2
    S. Lehtola, C. Steigemann, M. J.T. Oliveira, and M. A.L. Marques.,  SoftwareX 7, 1–5 (2018) (10.1016/j.softx.2017.11.002)

   => Composite Functional: B3LYP <= 

    B3LYP Hyb-GGA Exchange-Correlation Functional

    P. J. Stephens, F. J. Devlin, C. F. Chabalowski, and M. J. Frisch.,  J. Phys. Chem. 98, 11623 (1994) (10.1021/j100096a001)

    Deriv               =              1
    GGA                 =           TRUE
    Meta                =          FALSE

    Exchange Hybrid     =           TRUE
    MP2 Hybrid          =          FALSE

   => Exchange Functionals <=

    0.0800   Slater exchange
    0.7200         Becke 88

   => Exact (HF) Exchange <=

    0.2000               HF 

   => Correlation Functionals <=

    0.1900   Vosko, Wilk & Nusair (VWN5_RPA)
    0.8100   Lee, Yang & Parr

   => LibXC Density Thresholds  <==

    XC_HYB_GGA_XC_B3LYP:  1.00E-15 

   => Molecular Quadrature <=

    Radial Scheme          =       TREUTLER
    Pruning Scheme         =           NONE
    Nuclear Scheme         =       TREUTLER

    Blocking Scheme        =         OCTREE
    BS radius alpha        =              1
    Pruning alpha          =              1
    Radial Points          =             75
    Spherical Points       =            302
    Total Points           =          42424
    Total Blocks           =            382
    Max Points             =            254
    Max Functions          =             60
    Weights Tolerance      =       1.00E-15

   => Loading Basis Set <=

    Name: (CC-PVTZ AUX)
    Role: JKFIT
    Keyword: DF_BASIS_SCF
    atoms 1-2 entry N          line   177 file /Users/joseantoniorodriguesromero/anaconda3/share/psi4/basis/cc-pvtz-jkfit.gbs 

   => Loading Basis Set <=

    Name: CC-PVTZ
    Role: ORBITAL
    Keyword: BASIS
    atoms 1-2 entry N          line   224 file /Users/joseantoniorodriguesromero/anaconda3/share/psi4/basis/cc-pvtz.gbs 

  Reading orbitals from file /tmp/scan_NN_20.default.48229.180.npy, no projection.

  ==> Integral Setup <==

  DFHelper Memory: AOs need 0.005 GiB; user supplied 0.295 GiB. 
  Using in-core AOs.

  ==> MemDFJK: Density-Fitted J/K Matrices <==

    J tasked:                   Yes
    K tasked:                   Yes
    wK tasked:                   No
    OpenMP threads:               1
    Memory [MiB]:               302
    Algorithm:                 Core
    Schwarz Cutoff:           1E-12
    Mask sparsity (%):       0.0000
    Fitting Condition:        1E-10

   => Auxiliary Basis Set <=

  Basis Set: (CC-PVTZ AUX)
    Blend: CC-PVTZ-JKFIT
    Number of shells: 50
    Number of basis functions: 158
    Number of Cartesian functions: 192
    Spherical Harmonics?: true
    Max angular momentum: 4

  Cached 100.0% of DFT collocation blocks in 0.071 [GiB].

  Minimum eigenvalue in the overlap matrix is 1.8731874170E-03.
  Reciprocal condition number of the overlap matrix is 4.9046768835E-04.
    Using symmetric orthogonalization.

  ==> Pre-Iterations <==

  SCF Guess: Orbitals guess was supplied from a previous computation.

   -------------------------------------------------------
    Irrep   Nso     Nmo     Nalpha   Nbeta   Ndocc  Nsocc
   -------------------------------------------------------
     Ag        13      13       3       3       3       0
     B1g        3       3       0       0       0       0
     B2g        7       7       0       0       0       0
     B3g        7       7       0       0       0       0
     Au         3       3       0       0       0       0
     B1u       13      13       2       2       2       0
     B2u        7       7       1       1       1       0
     B3u        7       7       1       1       1       0
   -------------------------------------------------------
    Total      60      60       7       7       7       0
   -------------------------------------------------------

  ==> Iterations <==

                           Total Energy        Delta E     RMS |[F,P]|

   @DF-UKS iter   0:  -109.56834373315164   -1.09568e+02   4.61067e-03 
   @DF-UKS iter   1:  -109.55824540489222    1.00983e-02   5.03872e-04 DIIS/ADIIS
   @DF-UKS iter   2:  -109.55828620572660   -4.08008e-05   3.55072e-04 DIIS/ADIIS/DAMP=1%
   @DF-UKS iter   3:  -109.55854033022764   -2.54125e-04   2.22611e-05 DIIS/DAMP=1%
   @DF-UKS iter   4:  -109.55830354348466    2.36787e-04   6.38186e-06 DIIS/DAMP=1%
   @DF-UKS iter   5:  -109.55831656485476   -1.30214e-05   3.42236e-07 DIIS/DAMP=1%
   @DF-UKS iter   6:  -109.55831259984018    3.96501e-06   1.82006e-08 DIIS/DAMP=1%
   @DF-UKS iter   7:  -109.55831244001536    1.59825e-07   1.15618e-09 DIIS/DAMP=1%
   @DF-UKS iter   8:  -109.55831242810217    1.19132e-08   8.13599e-11 DIIS/DAMP=1%
   @DF-UKS iter   9:  -109.55831242768240    4.19774e-10   3.70275e-12 DIIS/DAMP=1%
  Energy and wave function converged.


  ==> Post-Iterations <==

   Electrons on quadrature grid:
      Nalpha   =    6.9999997892 ; deviation = -2.108e-07
      Nbeta    =    6.9999997892 ; deviation = -2.108e-07
      Ntotal   =   13.9999995783 ; deviation = -4.217e-07 

   @Spin Contamination Metric:  -5.329070518E-15
   @S^2 Expected:                0.000000000E+00
   @S^2 Observed:               -5.329070518E-15
   @S   Expected:                0.000000000E+00
   @S   Observed:                0.000000000E+00

    Orbital Energies [Eh]
    ---------------------

    Alpha Occupied:                                                       

       1Ag   -14.403392     1B1u  -14.400306     2Ag    -1.164550  
       2B1u   -0.538754     1B2u   -0.490456     1B3u   -0.490456  
       3Ag    -0.437175  

    Alpha Virtual:                                                        

       1B3g    0.002336     1B2g    0.002336     3B1u    0.300402  
       2B3u    0.381348     2B2u    0.381348     4Ag     0.403367  
       5Ag     0.490779     2B2g    0.540851     2B3g    0.540851  
       4B1u    0.741815     6Ag     0.829918     1B1g    0.829918  
       5B1u    0.935735     3B3u    1.134732     3B2u    1.134732  
       6B1u    1.288561     1Au     1.288561     7Ag     1.669475  
       3B2g    1.689747     3B3g    1.689747     7B1u    2.046294  
       4B3u    2.731916     4B2u    2.731916     8Ag     2.953490  
       4B3g    3.140714     4B2g    3.140714     8B1u    3.331845  
       2B1g    3.482161     9Ag     3.482161     5B3u    3.566461  
       5B2u    3.566461     6B3u    3.646503     6B2u    3.646503  
      10Ag     4.026597     5B2g    4.127136     5B3g    4.127136  
       3B1g    4.361974    11Ag     4.361975     6B3g    4.413350  
       6B2g    4.413350     2Au     4.492701     9B1u    4.492702  
      10B1u    4.782950    12Ag     5.010187    11B1u    5.052426  
       3Au     5.052427     7B2u    5.085560     7B3u    5.085560  
      12B1u    5.894381     7B3g    6.681558     7B2g    6.681558  
      13Ag     6.915387    13B1u   18.219308  

    Beta Occupied:                                                        

       1Ag   -14.403392     1B1u  -14.400306     2Ag    -1.164550  
       2B1u   -0.538754     1B2u   -0.490456     1B3u   -0.490456  
       3Ag    -0.437175  

    Beta Virtual:                                                         

       1B3g    0.002336     1B2g    0.002336     3B1u    0.300402  
       2B3u    0.381348     2B2u    0.381348     4Ag     0.403367  
       5Ag     0.490779     2B2g    0.540851     2B3g    0.540851  
       4B1u    0.741815     6Ag     0.829918     1B1g    0.829918  
       5B1u    0.935735     3B3u    1.134732     3B2u    1.134732  
       6B1u    1.288561     1Au     1.288561     7Ag     1.669475  
       3B2g    1.689747     3B3g    1.689747     7B1u    2.046294  
       4B3u    2.731916     4B2u    2.731916     8Ag     2.953490  
       4B3g    3.140714     4B2g    3.140714     8B1u    3.331845  
       2B1g    3.482161     9Ag     3.482161     5B3u    3.566461  
       5B2u    3.566461     6B3u    3.646503     6B2u    3.646503  
      10Ag     4.026597     5B2g    4.127136     5B3g    4.127136  
       3B1g    4.361974    11Ag     4.361975     6B3g    4.413350  
       6B2g    4.413350     2Au     4.492701     9B1u    4.492702  
      10B1u    4.782950    12Ag     5.010187    11B1u    5.052426  
       3Au     5.052427     7B2u    5.085560     7B3u    5.085560  
      12B1u    5.894381     7B3g    6.681558     7B2g    6.681558  
      13Ag     6.915387    13B1u   18.219308  

    Final Occupation by Irrep:
             Ag   B1g   B2g   B3g    Au   B1u   B2u   B3u 
    DOCC [     3,    0,    0,    0,    0,    2,    1,    1 ]
    SOCC [     0,    0,    0,    0,    0,    0,    0,    0 ]
    NA   [     3,    0,    0,    0,    0,    2,    1,    1 ]
    NB   [     3,    0,    0,    0,    0,    2,    1,    1 ]

  @DF-UKS Final Energy:  -109.55831242768240

   => Energetics <=

    Nuclear Repulsion Energy =             25.0371828652330350
    One-Electron Energy =                -197.3215294603621714
    Two-Electron Energy =                  73.8758096548907588
    DFT Exchange-Correlation Energy =     -11.1497754874440211
    Empirical Dispersion Energy =           0.0000000000000000
    VV10 Nonlocal Energy =                  0.0000000000000000
    Total Energy =                       -109.5583124276823952

  UHF NO Occupations:
  HONO-2 :    1B1u 2.0000000
  HONO-1 :    3 Ag 2.0000000
  HONO-0 :    2B1u 2.0000000
  LUNO+0 :    3B1u 0.0000000
  LUNO+1 :    2B3u 0.0000000
  LUNO+2 :    2B2u 0.0000000
  LUNO+3 :    4 Ag 0.0000000


Computation Completed


Properties will be evaluated at   0.000000,   0.000000,   0.000000 [a0]

Properties computed using the SCF density matrix


 Multipole Moments:

 ------------------------------------------------------------------------------------
     Multipole            Electronic (a.u.)      Nuclear  (a.u.)        Total (a.u.)
 ------------------------------------------------------------------------------------

 L = 1.  Multiply by 2.5417464519 to convert [e a0] to [Debye]
 Dipole X            :          0.0000000            0.0000000            0.0000000
 Dipole Y            :          0.0000000            0.0000000            0.0000000
 Dipole Z            :          0.0000000            0.0000000            0.0000000
 Magnitude           :                                                    0.0000000

 ------------------------------------------------------------------------------------

*** tstop() called on Mac.lan at Sun Aug 10 17:05:39 2025
Module time:
	user time   =      11.49 seconds =       0.19 minutes
	system time =       2.41 seconds =       0.04 minutes
	total time  =          1 seconds =       0.02 minutes
Total time:
	user time   =      11.49 seconds =       0.19 minutes
	system time =       2.41 seconds =       0.04 minutes
	total time  =          1 seconds =       0.02 minutes

*** tstart() called on Mac.lan
*** at Sun Aug 10 17:05:39 2025

   => Libint2 <=

    Primary   basis highest AM E, G, H:  6, 6, 3
    Auxiliary basis highest AM E, G, H:  7, 7, 4
    Onebody   basis highest AM E, G, H:  -, -, -
    Solid Harmonics ordering:            Gaussian
   => Loading Basis Set <=

    Name: CC-PVTZ
    Role: ORBITAL
    Keyword: BASIS
    atoms 1-2 entry N          line   224 file /Users/joseantoniorodriguesromero/anaconda3/share/psi4/basis/cc-pvtz.gbs 


         ---------------------------------------------------------
                                   SCF
               by Justin Turney, Rob Parrish, Andy Simmonett
                          and Daniel G. A. Smith
                              UKS Reference
                        1 Threads,    500 MiB Core
         ---------------------------------------------------------

  ==> Geometry <==

    Molecular point group: d2h
    Full point group: D_inf_h

    Geometry (in Angstrom), charge = 0, multiplicity = 1:

       Center              X                  Y                   Z               Mass       
    ------------   -----------------  -----------------  -----------------  -----------------
         N            0.000000000000     0.000000000000    -0.517823500000    14.003074004430
         N            0.000000000000     0.000000000000     0.517823500000    14.003074004430

  Running in d2h symmetry.

  Rotational constants: A = ************  B =      2.24481  C =      2.24481 [cm^-1]
  Rotational constants: A = ************  B =  67297.71336  C =  67297.71336 [MHz]
  Nuclear repulsion =   25.037182865233035

  Charge       = 0
  Multiplicity = 1
  Electrons    = 14
  Nalpha       = 7
  Nbeta        = 7

  ==> Algorithm <==

  SCF Algorithm Type is DF.
  DIIS enabled.
  MOM disabled.
  Fractional occupation disabled.
  Guess Type is READ.
  Energy threshold   = 1.00e-08
  Density threshold  = 1.00e-08
  Integral threshold = 1.00e-12

  ==> Primary Basis <==

  Basis Set: CC-PVTZ
    Blend: CC-PVTZ
    Number of shells: 20
    Number of basis functions: 60
    Number of Cartesian functions: 70
    Spherical Harmonics?: true
    Max angular momentum: 3

  ==> DFT Potential <==

   => LibXC <=

    Version 6.2.2
    S. Lehtola, C. Steigemann, M. J.T. Oliveira, and M. A.L. Marques.,  SoftwareX 7, 1–5 (2018) (10.1016/j.softx.2017.11.002)

   => Composite Functional: B3LYP <= 

    B3LYP Hyb-GGA Exchange-Correlation Functional

    P. J. Stephens, F. J. Devlin, C. F. Chabalowski, and M. J. Frisch.,  J. Phys. Chem. 98, 11623 (1994) (10.1021/j100096a001)

    Deriv               =              1
    GGA                 =           TRUE
    Meta                =          FALSE

    Exchange Hybrid     =           TRUE
    MP2 Hybrid          =          FALSE

   => Exchange Functionals <=

    0.0800   Slater exchange
    0.7200         Becke 88

   => Exact (HF) Exchange <=

    0.2000               HF 

   => Correlation Functionals <=

    0.1900   Vosko, Wilk & Nusair (VWN5_RPA)
    0.8100   Lee, Yang & Parr

   => LibXC Density Thresholds  <==

    XC_HYB_GGA_XC_B3LYP:  1.00E-15 

   => Molecular Quadrature <=

    Radial Scheme          =       TREUTLER
    Pruning Scheme         =           NONE
    Nuclear Scheme         =       TREUTLER

    Blocking Scheme        =         OCTREE
    BS radius alpha        =              1
    Pruning alpha          =              1
    Radial Points          =             75
    Spherical Points       =            302
    Total Points           =          42424
    Total Blocks           =            382
    Max Points             =            254
    Max Functions          =             60
    Weights Tolerance      =       1.00E-15

   => Loading Basis Set <=

    Name: (CC-PVTZ AUX)
    Role: JKFIT
    Keyword: DF_BASIS_SCF
    atoms 1-2 entry N          line   177 file /Users/joseantoniorodriguesromero/anaconda3/share/psi4/basis/cc-pvtz-jkfit.gbs 

   => Loading Basis Set <=

    Name: CC-PVTZ
    Role: ORBITAL
    Keyword: BASIS
    atoms 1-2 entry N          line   224 file /Users/joseantoniorodriguesromero/anaconda3/share/psi4/basis/cc-pvtz.gbs 

  Reading orbitals from file /tmp/scan_NN_20.default.48229.180.npy, no projection.

  ==> Integral Setup <==

  DFHelper Memory: AOs need 0.005 GiB; user supplied 0.295 GiB. 
  Using in-core AOs.

  ==> MemDFJK: Density-Fitted J/K Matrices <==

    J tasked:                   Yes
    K tasked:                   Yes
    wK tasked:                   No
    OpenMP threads:               1
    Memory [MiB]:               302
    Algorithm:                 Core
    Schwarz Cutoff:           1E-12
    Mask sparsity (%):       0.0000
    Fitting Condition:        1E-10

   => Auxiliary Basis Set <=

  Basis Set: (CC-PVTZ AUX)
    Blend: CC-PVTZ-JKFIT
    Number of shells: 50
    Number of basis functions: 158
    Number of Cartesian functions: 192
    Spherical Harmonics?: true
    Max angular momentum: 4

  Cached 100.0% of DFT collocation blocks in 0.071 [GiB].

  Minimum eigenvalue in the overlap matrix is 1.8731874170E-03.
  Reciprocal condition number of the overlap matrix is 4.9046768835E-04.
    Using symmetric orthogonalization.

  ==> Pre-Iterations <==

  SCF Guess: Orbitals guess was supplied from a previous computation.

   -------------------------------------------------------
    Irrep   Nso     Nmo     Nalpha   Nbeta   Ndocc  Nsocc
   -------------------------------------------------------
     Ag        13      13       3       3       3       0
     B1g        3       3       0       0       0       0
     B2g        7       7       0       0       0       0
     B3g        7       7       0       0       0       0
     Au         3       3       0       0       0       0
     B1u       13      13       2       2       2       0
     B2u        7       7       1       1       1       0
     B3u        7       7       1       1       1       0
   -------------------------------------------------------
    Total      60      60       7       7       7       0
   -------------------------------------------------------

  ==> Iterations <==

                           Total Energy        Delta E     RMS |[F,P]|

   @DF-UKS iter   0:  -109.55831242763142   -1.09558e+02   1.19251e-13 
   @DF-UKS iter   1:  -109.55831242763141    1.42109e-14   7.25900e-14 DIIS
  Energy and wave function converged.


  ==> Post-Iterations <==

   Electrons on quadrature grid:
      Nalpha   =    6.9999997892 ; deviation = -2.108e-07
      Nbeta    =    6.9999997892 ; deviation = -2.108e-07
      Ntotal   =   13.9999995783 ; deviation = -4.217e-07 

   @Spin Contamination Metric:   0.000000000E+00
   @S^2 Expected:                0.000000000E+00
   @S^2 Observed:                0.000000000E+00
   @S   Expected:                0.000000000E+00
   @S   Observed:                0.000000000E+00

    Orbital Energies [Eh]
    ---------------------

    Alpha Occupied:                                                       

       1Ag   -14.403392     1B1u  -14.400306     2Ag    -1.164550  
       2B1u   -0.538754     1B2u   -0.490456     1B3u   -0.490456  
       3Ag    -0.437175  

    Alpha Virtual:                                                        

       1B3g    0.002336     1B2g    0.002336     3B1u    0.300402  
       2B3u    0.381348     2B2u    0.381348     4Ag     0.403367  
       5Ag     0.490779     2B2g    0.540851     2B3g    0.540851  
       4B1u    0.741815     6Ag     0.829918     1B1g    0.829918  
       5B1u    0.935735     3B3u    1.134732     3B2u    1.134732  
       6B1u    1.288561     1Au     1.288561     7Ag     1.669475  
       3B2g    1.689747     3B3g    1.689747     7B1u    2.046294  
       4B3u    2.731916     4B2u    2.731916     8Ag     2.953490  
       4B3g    3.140714     4B2g    3.140714     8B1u    3.331845  
       2B1g    3.482161     9Ag     3.482161     5B3u    3.566461  
       5B2u    3.566461     6B3u    3.646503     6B2u    3.646503  
      10Ag     4.026597     5B2g    4.127136     5B3g    4.127136  
       3B1g    4.361974    11Ag     4.361975     6B3g    4.413350  
       6B2g    4.413350     2Au     4.492701     9B1u    4.492702  
      10B1u    4.782950    12Ag     5.010187    11B1u    5.052426  
       3Au     5.052427     7B2u    5.085560     7B3u    5.085560  
      12B1u    5.894381     7B3g    6.681558     7B2g    6.681558  
      13Ag     6.915387    13B1u   18.219308  

    Beta Occupied:                                                        

       1Ag   -14.403392     1B1u  -14.400306     2Ag    -1.164550  
       2B1u   -0.538754     1B2u   -0.490456     1B3u   -0.490456  
       3Ag    -0.437175  

    Beta Virtual:                                                         

       1B3g    0.002336     1B2g    0.002336     3B1u    0.300402  
       2B3u    0.381348     2B2u    0.381348     4Ag     0.403367  
       5Ag     0.490779     2B2g    0.540851     2B3g    0.540851  
       4B1u    0.741815     6Ag     0.829918     1B1g    0.829918  
       5B1u    0.935735     3B3u    1.134732     3B2u    1.134732  
       6B1u    1.288561     1Au     1.288561     7Ag     1.669475  
       3B2g    1.689747     3B3g    1.689747     7B1u    2.046294  
       4B3u    2.731916     4B2u    2.731916     8Ag     2.953490  
       4B3g    3.140714     4B2g    3.140714     8B1u    3.331845  
       2B1g    3.482161     9Ag     3.482161     5B3u    3.566461  
       5B2u    3.566461     6B3u    3.646503     6B2u    3.646503  
      10Ag     4.026597     5B2g    4.127136     5B3g    4.127136  
       3B1g    4.361974    11Ag     4.361975     6B3g    4.413350  
       6B2g    4.413350     2Au     4.492701     9B1u    4.492702  
      10B1u    4.782950    12Ag     5.010187    11B1u    5.052426  
       3Au     5.052427     7B2u    5.085560     7B3u    5.085560  
      12B1u    5.894381     7B3g    6.681558     7B2g    6.681558  
      13Ag     6.915387    13B1u   18.219308  

    Final Occupation by Irrep:
             Ag   B1g   B2g   B3g    Au   B1u   B2u   B3u 
    DOCC [     3,    0,    0,    0,    0,    2,    1,    1 ]
    SOCC [     0,    0,    0,    0,    0,    0,    0,    0 ]
    NA   [     3,    0,    0,    0,    0,    2,    1,    1 ]
    NB   [     3,    0,    0,    0,    0,    2,    1,    1 ]

  @DF-UKS Final Energy:  -109.55831242763141

   => Energetics <=

    Nuclear Repulsion Energy =             25.0371828652330350
    One-Electron Energy =                -197.3215294599712593
    Two-Electron Energy =                  73.8758096545139153
    DFT Exchange-Correlation Energy =     -11.1497754874070960
    Empirical Dispersion Energy =           0.0000000000000000
    VV10 Nonlocal Energy =                  0.0000000000000000
    Total Energy =                       -109.5583124276314066

  UHF NO Occupations:
  HONO-2 :    2 Ag 2.0000000
  HONO-1 :    3 Ag 2.0000000
  HONO-0 :    2B1u 2.0000000
  LUNO+0 :    3B1u 0.0000000
  LUNO+1 :    2B3u 0.0000000
  LUNO+2 :    4B1u 0.0000000
  LUNO+3 :    5B1u 0.0000000


Computation Completed


Properties will be evaluated at   0.000000,   0.000000,   0.000000 [a0]

Properties computed using the B3LYP density matrix


 Multipole Moments:

 ------------------------------------------------------------------------------------
     Multipole            Electronic (a.u.)      Nuclear  (a.u.)        Total (a.u.)
 ------------------------------------------------------------------------------------

 L = 1.  Multiply by 2.5417464519 to convert [e a0] to [Debye]
 Dipole X            :          0.0000000            0.0000000            0.0000000
 Dipole Y            :          0.0000000            0.0000000            0.0000000
 Dipole Z            :          0.0000000            0.0000000            0.0000000
 Magnitude           :                                                    0.0000000

 L = 2.  Multiply by 1.3450342976 to convert [e a0^2] to [Debye ang]
 Quadrupole XX       :         -7.3943891            0.0000000           -7.3943891
 Quadrupole XY       :          0.0000000            0.0000000            0.0000000
 Quadrupole XZ       :          0.0000000            0.0000000            0.0000000
 Quadrupole YY       :         -7.3943891            0.0000000           -7.3943891
 Quadrupole YZ       :          0.0000000            0.0000000            0.0000000
 Quadrupole ZZ       :        -22.1101834           13.4056934           -8.7044901
 Traceless XX        :          4.9052648           -4.4685645            0.4367003
 Traceless YY        :          4.9052648           -4.4685645            0.4367003
 Traceless ZZ        :         -9.8105295            8.9371289           -0.8734006

 ------------------------------------------------------------------------------------
  ==> Computing MBIS Charges <==

  Electron Count from Grid (Expected Number): 14.00000 (14.00000)
  Difference: -0.00000

  MBIS Charges: (a.u.)
   Center  Symbol  Z      Pop.       Charge
      1       N    7    7.000000    0.000000
      2       N    7    7.000000    0.000000

  MBIS Dipoles: [e a0]
   Center  Symbol  Z        X           Y           Z
      1       N    7   -0.000000   -0.000000    0.078601
      2       N    7   -0.000000   -0.000000   -0.078601

  MBIS Quadrupoles: [e a0^2]
   Center  Symbol  Z      XX        XY        XZ        YY        YZ        ZZ
      1       N    7   -3.6972    0.0000   -0.0000   -3.6972   -0.0000   -4.1984
      2       N    7   -3.6972    0.0000    0.0000   -3.6972    0.0000   -4.1984

  MBIS Octupoles: [e a0^3]
   Center  Symbol  Z      XXX       XXY       XXZ       XYY       XYZ       XZZ       YYY       YYZ       YZZ       ZZZ
      1       N    7   -0.0000   -0.0000    0.0809   -0.0000    0.0000   -0.0000   -0.0000    0.0809    0.0000    0.2821
      2       N    7   -0.0000   -0.0000   -0.0809   -0.0000   -0.0000    0.0000   -0.0000   -0.0809   -0.0000   -0.2821

  MBIS Radial Moments:
   Center  Symbol  Z      [a0^2]      [a0^3]      [a0^4]      
      1       N    7   11.592806   23.738003   58.065361
      2       N    7   11.592806   23.738003   58.065361

  MBIS Valence Widths: [a0]
   Center  Symbol  Z     Width
      1       N    7    0.426772
      2       N    7    0.426772

*** tstop() called on Mac.lan at Sun Aug 10 17:05:40 2025
Module time:
	user time   =       3.96 seconds =       0.07 minutes
	system time =       1.99 seconds =       0.03 minutes
	total time  =          1 seconds =       0.02 minutes
Total time:
	user time   =      15.48 seconds =       0.26 minutes
	system time =       4.58 seconds =       0.08 minutes
	total time  =          2 seconds =       0.03 minutes

    Psi4 stopped on: Sunday, 10 August 2025 05:05PM
    Psi4 wall time for execution: 0:00:01.95

*** Psi4 exiting successfully. Buy a developer a beer!
