
    -----------------------------------------------------------------------
          Psi4: An Open-Source Ab Initio Electronic Structure Package
                               Psi4 1.9.1 release

                         Git: Rev {} zzzzzzz 


    D. G. A. Smith, L. A. Burns, A. C. Simmonett, R. M. Parrish,
    M. C. Schieber, R. Galvelis, P. Kraus, H. Kruse, R. Di Remigio,
    A. Alenaizan, A. M. James, S. Lehtola, J. P. Misiewicz, M. Scheurer,
    R. A. Shaw, J. B. Schriber, Y. Xie, Z. L. Glick, D. A. Sirianni,
    J. S. O'Brien, J. M. Waldrop, A. Kumar, E. G. Hohenstein,
    B. P. Pritchard, B. R. Brooks, H. F. Schaefer III, A. Yu. Sokolov,
    K. Patkowski, A. E. DePrince III, U. Bozkaya, R. A. King,
    F. A. Evangelista, J. M. Turney, T. D. Crawford, C. D. Sherrill,
    J. Chem. Phys. 152(18) 184108 (2020). https://doi.org/10.1063/5.0006002

                            Additional Code Authors
    E. T. Seidl, C. L. Janssen, E. F. Valeev, M. L. Leininger,
    J. F. Gonthier, R. M. Richard, H. R. McAlexander, M. Saitow, X. Wang,
    P. Verma, M. H. Lechner, A. Jiang, S. Behnle, A. G. Heide,
    M. F. Herbst, and D. L. Poole

             Previous Authors, Complete List of Code Contributors,
                       and Citations for Specific Modules
    https://github.com/psi4/psi4/blob/master/codemeta.json
    https://github.com/psi4/psi4/graphs/contributors
    http://psicode.org/psi4manual/master/introduction.html#citing-psifour

    -----------------------------------------------------------------------


    Psi4 started on: Sunday, 10 August 2025 05:07PM

    Process ID: 48300
    Host:       Mac.lan
    PSIDATADIR: /Users/joseantoniorodriguesromero/anaconda3/share/psi4
    Memory:     500.0 MiB
    Threads:    1
    
  ==> Input File <==

--------------------------------------------------------------------------
molecule { 
0 1
N           0.000000           0.000000           0.000000
N           0.000000           0.000000           1.636990
}

set { 
basis              cc-pvtz
reference          uks
maxiter            500
DAMPING_PERCENTAGE 1
E_CONVERGENCE      1.0E-8
D_CONVERGENCE      1.0E-8
DIIS_MAX_VECS      400
MBIS_MAXITER       8000
guess              read
}

E, wfn = energy('b3lyp', restart_file='last_wfn', return_wfn=True)
properties('b3lyp','MBIS_CHARGES', wfn=wfn)
wfn.to_file('last_wfn')
--------------------------------------------------------------------------

Scratch directory: /tmp/
 Found user provided orbital data. Setting orbital guess to READ 
 Copying restart file <last_wfn.npy> to </tmp/scan_NN_50.default.48300.180.npy> for internal processing
   => Libint2 <=

    Primary   basis highest AM E, G, H:  6, 6, 3
    Auxiliary basis highest AM E, G, H:  7, 7, 4
    Onebody   basis highest AM E, G, H:  -, -, -
    Solid Harmonics ordering:            Gaussian

*** tstart() called on Mac.lan
*** at Sun Aug 10 17:07:55 2025

   => Loading Basis Set <=

    Name: CC-PVTZ
    Role: ORBITAL
    Keyword: BASIS
    atoms 1-2 entry N          line   224 file /Users/joseantoniorodriguesromero/anaconda3/share/psi4/basis/cc-pvtz.gbs 


         ---------------------------------------------------------
                                   SCF
               by Justin Turney, Rob Parrish, Andy Simmonett
                          and Daniel G. A. Smith
                              UKS Reference
                        1 Threads,    500 MiB Core
         ---------------------------------------------------------

  ==> Geometry <==

    Molecular point group: d2h
    Full point group: D_inf_h

    Geometry (in Angstrom), charge = 0, multiplicity = 1:

       Center              X                  Y                   Z               Mass       
    ------------   -----------------  -----------------  -----------------  -----------------
         N            0.000000000000     0.000000000000    -0.818495000000    14.003074004430
         N            0.000000000000     0.000000000000     0.818495000000    14.003074004430

  Running in d2h symmetry.

  Rotational constants: A = ************  B =      0.89849  C =      0.89849 [cm^-1]
  Rotational constants: A = ************  B =  26935.91657  C =  26935.91657 [MHz]
  Nuclear repulsion =   15.839854441890303

  Charge       = 0
  Multiplicity = 1
  Electrons    = 14
  Nalpha       = 7
  Nbeta        = 7

  ==> Algorithm <==

  SCF Algorithm Type is DF.
  DIIS enabled.
  MOM disabled.
  Fractional occupation disabled.
  Guess Type is READ.
  Energy threshold   = 1.00e-08
  Density threshold  = 1.00e-08
  Integral threshold = 1.00e-12

  ==> Primary Basis <==

  Basis Set: CC-PVTZ
    Blend: CC-PVTZ
    Number of shells: 20
    Number of basis functions: 60
    Number of Cartesian functions: 70
    Spherical Harmonics?: true
    Max angular momentum: 3

  ==> DFT Potential <==

   => LibXC <=

    Version 6.2.2
    S. Lehtola, C. Steigemann, M. J.T. Oliveira, and M. A.L. Marques.,  SoftwareX 7, 1–5 (2018) (10.1016/j.softx.2017.11.002)

   => Composite Functional: B3LYP <= 

    B3LYP Hyb-GGA Exchange-Correlation Functional

    P. J. Stephens, F. J. Devlin, C. F. Chabalowski, and M. J. Frisch.,  J. Phys. Chem. 98, 11623 (1994) (10.1021/j100096a001)

    Deriv               =              1
    GGA                 =           TRUE
    Meta                =          FALSE

    Exchange Hybrid     =           TRUE
    MP2 Hybrid          =          FALSE

   => Exchange Functionals <=

    0.0800   Slater exchange
    0.7200         Becke 88

   => Exact (HF) Exchange <=

    0.2000               HF 

   => Correlation Functionals <=

    0.1900   Vosko, Wilk & Nusair (VWN5_RPA)
    0.8100   Lee, Yang & Parr

   => LibXC Density Thresholds  <==

    XC_HYB_GGA_XC_B3LYP:  1.00E-15 

   => Molecular Quadrature <=

    Radial Scheme          =       TREUTLER
    Pruning Scheme         =           NONE
    Nuclear Scheme         =       TREUTLER

    Blocking Scheme        =         OCTREE
    BS radius alpha        =              1
    Pruning alpha          =              1
    Radial Points          =             75
    Spherical Points       =            302
    Total Points           =          42518
    Total Blocks           =            382
    Max Points             =            253
    Max Functions          =             60
    Weights Tolerance      =       1.00E-15

   => Loading Basis Set <=

    Name: (CC-PVTZ AUX)
    Role: JKFIT
    Keyword: DF_BASIS_SCF
    atoms 1-2 entry N          line   177 file /Users/joseantoniorodriguesromero/anaconda3/share/psi4/basis/cc-pvtz-jkfit.gbs 

   => Loading Basis Set <=

    Name: CC-PVTZ
    Role: ORBITAL
    Keyword: BASIS
    atoms 1-2 entry N          line   224 file /Users/joseantoniorodriguesromero/anaconda3/share/psi4/basis/cc-pvtz.gbs 

  Reading orbitals from file /tmp/scan_NN_50.default.48300.180.npy, no projection.

  ==> Integral Setup <==

  DFHelper Memory: AOs need 0.005 GiB; user supplied 0.296 GiB. 
  Using in-core AOs.

  ==> MemDFJK: Density-Fitted J/K Matrices <==

    J tasked:                   Yes
    K tasked:                   Yes
    wK tasked:                   No
    OpenMP threads:               1
    Memory [MiB]:               302
    Algorithm:                 Core
    Schwarz Cutoff:           1E-12
    Mask sparsity (%):       0.0000
    Fitting Condition:        1E-10

   => Auxiliary Basis Set <=

  Basis Set: (CC-PVTZ AUX)
    Blend: CC-PVTZ-JKFIT
    Number of shells: 50
    Number of basis functions: 158
    Number of Cartesian functions: 192
    Spherical Harmonics?: true
    Max angular momentum: 4

  Cached 100.0% of DFT collocation blocks in 0.071 [GiB].

  Minimum eigenvalue in the overlap matrix is 1.2848235826E-02.
  Reciprocal condition number of the overlap matrix is 4.1675076219E-03.
    Using symmetric orthogonalization.

  ==> Pre-Iterations <==

  SCF Guess: Orbitals guess was supplied from a previous computation.

   -------------------------------------------------------
    Irrep   Nso     Nmo     Nalpha   Nbeta   Ndocc  Nsocc
   -------------------------------------------------------
     Ag        13      13       3       3       3       0
     B1g        3       3       0       0       0       0
     B2g        7       7       0       0       0       0
     B3g        7       7       0       0       0       0
     Au         3       3       0       0       0       0
     B1u       13      13       2       2       2       0
     B2u        7       7       1       1       1       0
     B3u        7       7       1       1       1       0
   -------------------------------------------------------
    Total      60      60       7       7       7       0
   -------------------------------------------------------

  ==> Iterations <==

                           Total Energy        Delta E     RMS |[F,P]|

   @DF-UKS iter   0:  -109.27706532469040   -1.09277e+02   1.21219e-03 
   @DF-UKS iter   1:  -109.28954210852928   -1.24768e-02   5.28248e-04 DIIS/ADIIS
   @DF-UKS iter   2:  -109.28958554017984   -4.34317e-05   3.60560e-04 DIIS/ADIIS/DAMP=1%
   @DF-UKS iter   3:  -109.28940943577724    1.76104e-04   1.99496e-05 DIIS/DAMP=1%
   @DF-UKS iter   4:  -109.28962580703919   -2.16371e-04   4.36959e-06 DIIS/DAMP=1%
   @DF-UKS iter   5:  -109.28961536158255    1.04455e-05   9.79690e-08 DIIS/DAMP=1%
   @DF-UKS iter   6:  -109.28961808746648   -2.72588e-06   2.60800e-08 DIIS/DAMP=1%
   @DF-UKS iter   7:  -109.28961811681677   -2.93503e-08   4.90189e-10 DIIS/DAMP=1%
   @DF-UKS iter   8:  -109.28961812139865   -4.58188e-09   7.54744e-11 DIIS/DAMP=1%
  Energy and wave function converged.


  ==> Post-Iterations <==

   Electrons on quadrature grid:
      Nalpha   =    6.9999996191 ; deviation = -3.809e-07
      Nbeta    =    6.9999996191 ; deviation = -3.809e-07
      Ntotal   =   13.9999992382 ; deviation = -7.618e-07 

   @Spin Contamination Metric:  -3.552713679E-15
   @S^2 Expected:                0.000000000E+00
   @S^2 Observed:               -3.552713679E-15
   @S   Expected:                0.000000000E+00
   @S   Observed:                0.000000000E+00

    Orbital Energies [Eh]
    ---------------------

    Alpha Occupied:                                                       

       1Ag   -14.502607     1B1u  -14.502479     2Ag    -0.884695  
       2B1u   -0.675881     3Ag    -0.398580     1B2u   -0.358012  
       1B3u   -0.358012  

    Alpha Virtual:                                                        

       1B3g   -0.182126     1B2g   -0.182126     3B1u   -0.001004  
       4B1u    0.391687     2B3u    0.420060     2B2u    0.420060  
       4Ag     0.450031     2B2g    0.499153     2B3g    0.499153  
       5Ag     0.507494     5B1u    0.847402     3B2u    0.875550  
       3B3u    0.875550     6Ag     0.906020     1B1g    0.906021  
       6B1u    1.111412     1Au     1.111412     7Ag     1.338440  
       3B3g    1.469163     3B2g    1.469163     7B1u    1.685532  
       4B3u    2.679348     4B2u    2.679348     8Ag     2.681735  
       4B2g    2.830207     4B3g    2.830207     8B1u    3.319101  
       5B3u    3.524297     5B2u    3.524297     9Ag     3.572422  
       2B1g    3.626902    10Ag     3.626902     6B2u    3.794513  
       6B3u    3.794513     5B3g    3.851388     5B2g    3.851388  
       9B1u    4.028235     2Au     4.028236     6B3g    4.306505  
       6B2g    4.306505     3B1g    4.315806    11Ag     4.315810  
       7B2u    4.435548     7B3u    4.435548     3Au     4.444338  
      10B1u    4.444344    11B1u    4.477218    12Ag     4.804823  
       7B3g    4.989791     7B2g    4.989791    12B1u    5.062533  
      13Ag     5.522030    13B1u    6.661386  

    Beta Occupied:                                                        

       1Ag   -14.502607     1B1u  -14.502479     2Ag    -0.884695  
       2B1u   -0.675881     3Ag    -0.398580     1B2u   -0.358012  
       1B3u   -0.358012  

    Beta Virtual:                                                         

       1B3g   -0.182126     1B2g   -0.182126     3B1u   -0.001004  
       4B1u    0.391687     2B3u    0.420060     2B2u    0.420060  
       4Ag     0.450031     2B2g    0.499153     2B3g    0.499153  
       5Ag     0.507494     5B1u    0.847402     3B2u    0.875550  
       3B3u    0.875550     6Ag     0.906020     1B1g    0.906021  
       6B1u    1.111412     1Au     1.111412     7Ag     1.338440  
       3B3g    1.469163     3B2g    1.469163     7B1u    1.685532  
       4B3u    2.679348     4B2u    2.679348     8Ag     2.681735  
       4B2g    2.830207     4B3g    2.830207     8B1u    3.319101  
       5B3u    3.524297     5B2u    3.524297     9Ag     3.572422  
       2B1g    3.626902    10Ag     3.626902     6B2u    3.794513  
       6B3u    3.794513     5B3g    3.851388     5B2g    3.851388  
       9B1u    4.028235     2Au     4.028236     6B3g    4.306505  
       6B2g    4.306505     3B1g    4.315806    11Ag     4.315810  
       7B2u    4.435548     7B3u    4.435548     3Au     4.444338  
      10B1u    4.444344    11B1u    4.477218    12Ag     4.804823  
       7B3g    4.989791     7B2g    4.989791    12B1u    5.062533  
      13Ag     5.522030    13B1u    6.661386  

    Final Occupation by Irrep:
             Ag   B1g   B2g   B3g    Au   B1u   B2u   B3u 
    DOCC [     3,    0,    0,    0,    0,    2,    1,    1 ]
    SOCC [     0,    0,    0,    0,    0,    0,    0,    0 ]
    NA   [     3,    0,    0,    0,    0,    2,    1,    1 ]
    NB   [     3,    0,    0,    0,    0,    2,    1,    1 ]

  @DF-UKS Final Energy:  -109.28961812139865

   => Energetics <=

    Nuclear Repulsion Energy =             15.8398544418903029
    One-Electron Energy =                -179.1340314982389543
    Two-Electron Energy =                  64.7786311770237262
    DFT Exchange-Correlation Energy =     -10.7740722420737249
    Empirical Dispersion Energy =           0.0000000000000000
    VV10 Nonlocal Energy =                  0.0000000000000000
    Total Energy =                       -109.2896181213986466

  UHF NO Occupations:
  HONO-2 :    1B3u 2.0000000
  HONO-1 :    3 Ag 2.0000000
  HONO-0 :    2B1u 2.0000000
  LUNO+0 :    4 Ag 0.0000000
  LUNO+1 :    5 Ag 0.0000000
  LUNO+2 :    3B1u 0.0000000
  LUNO+3 :    6 Ag 0.0000000


Computation Completed


Properties will be evaluated at   0.000000,   0.000000,   0.000000 [a0]

Properties computed using the SCF density matrix


 Multipole Moments:

 ------------------------------------------------------------------------------------
     Multipole            Electronic (a.u.)      Nuclear  (a.u.)        Total (a.u.)
 ------------------------------------------------------------------------------------

 L = 1.  Multiply by 2.5417464519 to convert [e a0] to [Debye]
 Dipole X            :          0.0000000            0.0000000            0.0000000
 Dipole Y            :          0.0000000            0.0000000            0.0000000
 Dipole Z            :          0.0000000            0.0000000            0.0000000
 Magnitude           :                                                    0.0000000

 ------------------------------------------------------------------------------------

*** tstop() called on Mac.lan at Sun Aug 10 17:07:57 2025
Module time:
	user time   =      21.15 seconds =       0.35 minutes
	system time =       2.37 seconds =       0.04 minutes
	total time  =          2 seconds =       0.03 minutes
Total time:
	user time   =      21.15 seconds =       0.35 minutes
	system time =       2.37 seconds =       0.04 minutes
	total time  =          2 seconds =       0.03 minutes

*** tstart() called on Mac.lan
*** at Sun Aug 10 17:07:57 2025

   => Libint2 <=

    Primary   basis highest AM E, G, H:  6, 6, 3
    Auxiliary basis highest AM E, G, H:  7, 7, 4
    Onebody   basis highest AM E, G, H:  -, -, -
    Solid Harmonics ordering:            Gaussian
   => Loading Basis Set <=

    Name: CC-PVTZ
    Role: ORBITAL
    Keyword: BASIS
    atoms 1-2 entry N          line   224 file /Users/joseantoniorodriguesromero/anaconda3/share/psi4/basis/cc-pvtz.gbs 


         ---------------------------------------------------------
                                   SCF
               by Justin Turney, Rob Parrish, Andy Simmonett
                          and Daniel G. A. Smith
                              UKS Reference
                        1 Threads,    500 MiB Core
         ---------------------------------------------------------

  ==> Geometry <==

    Molecular point group: d2h
    Full point group: D_inf_h

    Geometry (in Angstrom), charge = 0, multiplicity = 1:

       Center              X                  Y                   Z               Mass       
    ------------   -----------------  -----------------  -----------------  -----------------
         N            0.000000000000     0.000000000000    -0.818495000000    14.003074004430
         N            0.000000000000     0.000000000000     0.818495000000    14.003074004430

  Running in d2h symmetry.

  Rotational constants: A = ************  B =      0.89849  C =      0.89849 [cm^-1]
  Rotational constants: A = ************  B =  26935.91657  C =  26935.91657 [MHz]
  Nuclear repulsion =   15.839854441890303

  Charge       = 0
  Multiplicity = 1
  Electrons    = 14
  Nalpha       = 7
  Nbeta        = 7

  ==> Algorithm <==

  SCF Algorithm Type is DF.
  DIIS enabled.
  MOM disabled.
  Fractional occupation disabled.
  Guess Type is READ.
  Energy threshold   = 1.00e-08
  Density threshold  = 1.00e-08
  Integral threshold = 1.00e-12

  ==> Primary Basis <==

  Basis Set: CC-PVTZ
    Blend: CC-PVTZ
    Number of shells: 20
    Number of basis functions: 60
    Number of Cartesian functions: 70
    Spherical Harmonics?: true
    Max angular momentum: 3

  ==> DFT Potential <==

   => LibXC <=

    Version 6.2.2
    S. Lehtola, C. Steigemann, M. J.T. Oliveira, and M. A.L. Marques.,  SoftwareX 7, 1–5 (2018) (10.1016/j.softx.2017.11.002)

   => Composite Functional: B3LYP <= 

    B3LYP Hyb-GGA Exchange-Correlation Functional

    P. J. Stephens, F. J. Devlin, C. F. Chabalowski, and M. J. Frisch.,  J. Phys. Chem. 98, 11623 (1994) (10.1021/j100096a001)

    Deriv               =              1
    GGA                 =           TRUE
    Meta                =          FALSE

    Exchange Hybrid     =           TRUE
    MP2 Hybrid          =          FALSE

   => Exchange Functionals <=

    0.0800   Slater exchange
    0.7200         Becke 88

   => Exact (HF) Exchange <=

    0.2000               HF 

   => Correlation Functionals <=

    0.1900   Vosko, Wilk & Nusair (VWN5_RPA)
    0.8100   Lee, Yang & Parr

   => LibXC Density Thresholds  <==

    XC_HYB_GGA_XC_B3LYP:  1.00E-15 

   => Molecular Quadrature <=

    Radial Scheme          =       TREUTLER
    Pruning Scheme         =           NONE
    Nuclear Scheme         =       TREUTLER

    Blocking Scheme        =         OCTREE
    BS radius alpha        =              1
    Pruning alpha          =              1
    Radial Points          =             75
    Spherical Points       =            302
    Total Points           =          42518
    Total Blocks           =            382
    Max Points             =            253
    Max Functions          =             60
    Weights Tolerance      =       1.00E-15

   => Loading Basis Set <=

    Name: (CC-PVTZ AUX)
    Role: JKFIT
    Keyword: DF_BASIS_SCF
    atoms 1-2 entry N          line   177 file /Users/joseantoniorodriguesromero/anaconda3/share/psi4/basis/cc-pvtz-jkfit.gbs 

   => Loading Basis Set <=

    Name: CC-PVTZ
    Role: ORBITAL
    Keyword: BASIS
    atoms 1-2 entry N          line   224 file /Users/joseantoniorodriguesromero/anaconda3/share/psi4/basis/cc-pvtz.gbs 

  Reading orbitals from file /tmp/scan_NN_50.default.48300.180.npy, no projection.

  ==> Integral Setup <==

  DFHelper Memory: AOs need 0.005 GiB; user supplied 0.296 GiB. 
  Using in-core AOs.

  ==> MemDFJK: Density-Fitted J/K Matrices <==

    J tasked:                   Yes
    K tasked:                   Yes
    wK tasked:                   No
    OpenMP threads:               1
    Memory [MiB]:               302
    Algorithm:                 Core
    Schwarz Cutoff:           1E-12
    Mask sparsity (%):       0.0000
    Fitting Condition:        1E-10

   => Auxiliary Basis Set <=

  Basis Set: (CC-PVTZ AUX)
    Blend: CC-PVTZ-JKFIT
    Number of shells: 50
    Number of basis functions: 158
    Number of Cartesian functions: 192
    Spherical Harmonics?: true
    Max angular momentum: 4

  Cached 100.0% of DFT collocation blocks in 0.071 [GiB].

  Minimum eigenvalue in the overlap matrix is 1.2848235826E-02.
  Reciprocal condition number of the overlap matrix is 4.1675076219E-03.
    Using symmetric orthogonalization.

  ==> Pre-Iterations <==

  SCF Guess: Orbitals guess was supplied from a previous computation.

   -------------------------------------------------------
    Irrep   Nso     Nmo     Nalpha   Nbeta   Ndocc  Nsocc
   -------------------------------------------------------
     Ag        13      13       3       3       3       0
     B1g        3       3       0       0       0       0
     B2g        7       7       0       0       0       0
     B3g        7       7       0       0       0       0
     Au         3       3       0       0       0       0
     B1u       13      13       2       2       2       0
     B2u        7       7       1       1       1       0
     B3u        7       7       1       1       1       0
   -------------------------------------------------------
    Total      60      60       7       7       7       0
   -------------------------------------------------------

  ==> Iterations <==

                           Total Energy        Delta E     RMS |[F,P]|

   @DF-UKS iter   0:  -109.28961812168535   -1.09290e+02   6.48253e-12 
   @DF-UKS iter   1:  -109.28961812168542   -7.10543e-14   4.68482e-12 DIIS
  Energy and wave function converged.


  ==> Post-Iterations <==

   Electrons on quadrature grid:
      Nalpha   =    6.9999996191 ; deviation = -3.809e-07
      Nbeta    =    6.9999996191 ; deviation = -3.809e-07
      Ntotal   =   13.9999992382 ; deviation = -7.618e-07 

   @Spin Contamination Metric:  -1.776356839E-15
   @S^2 Expected:                0.000000000E+00
   @S^2 Observed:               -1.776356839E-15
   @S   Expected:                0.000000000E+00
   @S   Observed:                0.000000000E+00

    Orbital Energies [Eh]
    ---------------------

    Alpha Occupied:                                                       

       1Ag   -14.502607     1B1u  -14.502479     2Ag    -0.884695  
       2B1u   -0.675881     3Ag    -0.398580     1B2u   -0.358012  
       1B3u   -0.358012  

    Alpha Virtual:                                                        

       1B3g   -0.182126     1B2g   -0.182126     3B1u   -0.001004  
       4B1u    0.391687     2B3u    0.420060     2B2u    0.420060  
       4Ag     0.450031     2B2g    0.499153     2B3g    0.499153  
       5Ag     0.507494     5B1u    0.847402     3B2u    0.875550  
       3B3u    0.875550     6Ag     0.906020     1B1g    0.906021  
       6B1u    1.111412     1Au     1.111412     7Ag     1.338440  
       3B3g    1.469163     3B2g    1.469163     7B1u    1.685532  
       4B3u    2.679348     4B2u    2.679348     8Ag     2.681735  
       4B2g    2.830207     4B3g    2.830207     8B1u    3.319101  
       5B3u    3.524297     5B2u    3.524297     9Ag     3.572422  
       2B1g    3.626902    10Ag     3.626902     6B2u    3.794513  
       6B3u    3.794513     5B3g    3.851388     5B2g    3.851388  
       9B1u    4.028235     2Au     4.028236     6B3g    4.306505  
       6B2g    4.306505     3B1g    4.315806    11Ag     4.315810  
       7B2u    4.435548     7B3u    4.435548     3Au     4.444338  
      10B1u    4.444344    11B1u    4.477218    12Ag     4.804823  
       7B3g    4.989791     7B2g    4.989791    12B1u    5.062533  
      13Ag     5.522030    13B1u    6.661386  

    Beta Occupied:                                                        

       1Ag   -14.502607     1B1u  -14.502479     2Ag    -0.884695  
       2B1u   -0.675881     3Ag    -0.398580     1B2u   -0.358012  
       1B3u   -0.358012  

    Beta Virtual:                                                         

       1B3g   -0.182126     1B2g   -0.182126     3B1u   -0.001004  
       4B1u    0.391687     2B3u    0.420060     2B2u    0.420060  
       4Ag     0.450031     2B2g    0.499153     2B3g    0.499153  
       5Ag     0.507494     5B1u    0.847402     3B2u    0.875550  
       3B3u    0.875550     6Ag     0.906020     1B1g    0.906021  
       6B1u    1.111412     1Au     1.111412     7Ag     1.338440  
       3B3g    1.469163     3B2g    1.469163     7B1u    1.685532  
       4B3u    2.679348     4B2u    2.679348     8Ag     2.681735  
       4B2g    2.830207     4B3g    2.830207     8B1u    3.319101  
       5B3u    3.524297     5B2u    3.524297     9Ag     3.572422  
       2B1g    3.626902    10Ag     3.626902     6B2u    3.794513  
       6B3u    3.794513     5B3g    3.851388     5B2g    3.851388  
       9B1u    4.028235     2Au     4.028236     6B3g    4.306505  
       6B2g    4.306505     3B1g    4.315806    11Ag     4.315810  
       7B2u    4.435548     7B3u    4.435548     3Au     4.444338  
      10B1u    4.444344    11B1u    4.477218    12Ag     4.804823  
       7B3g    4.989791     7B2g    4.989791    12B1u    5.062533  
      13Ag     5.522030    13B1u    6.661386  

    Final Occupation by Irrep:
             Ag   B1g   B2g   B3g    Au   B1u   B2u   B3u 
    DOCC [     3,    0,    0,    0,    0,    2,    1,    1 ]
    SOCC [     0,    0,    0,    0,    0,    0,    0,    0 ]
    NA   [     3,    0,    0,    0,    0,    2,    1,    1 ]
    NB   [     3,    0,    0,    0,    0,    2,    1,    1 ]

  @DF-UKS Final Energy:  -109.28961812168542

   => Energetics <=

    Nuclear Repulsion Energy =             15.8398544418903029
    One-Electron Energy =                -179.1340315025439338
    Two-Electron Energy =                  64.7786311817668548
    DFT Exchange-Correlation Energy =     -10.7740722427986562
    Empirical Dispersion Energy =           0.0000000000000000
    VV10 Nonlocal Energy =                  0.0000000000000000
    Total Energy =                       -109.2896181216854217

  UHF NO Occupations:
  HONO-2 :    1B3u 2.0000000
  HONO-1 :    3 Ag 2.0000000
  HONO-0 :    2B1u 2.0000000
  LUNO+0 :    4 Ag 0.0000000
  LUNO+1 :    5 Ag 0.0000000
  LUNO+2 :    6 Ag 0.0000000
  LUNO+3 :    3B1u 0.0000000


Computation Completed


Properties will be evaluated at   0.000000,   0.000000,   0.000000 [a0]

Properties computed using the B3LYP density matrix


 Multipole Moments:

 ------------------------------------------------------------------------------------
     Multipole            Electronic (a.u.)      Nuclear  (a.u.)        Total (a.u.)
 ------------------------------------------------------------------------------------

 L = 1.  Multiply by 2.5417464519 to convert [e a0] to [Debye]
 Dipole X            :          0.0000000            0.0000000            0.0000000
 Dipole Y            :          0.0000000            0.0000000            0.0000000
 Dipole Z            :          0.0000000            0.0000000            0.0000000
 Magnitude           :                                                    0.0000000

 L = 2.  Multiply by 1.3450342976 to convert [e a0^2] to [Debye ang]
 Quadrupole XX       :         -8.3825547            0.0000000           -8.3825547
 Quadrupole XY       :          0.0000000            0.0000000            0.0000000
 Quadrupole XZ       :          0.0000000            0.0000000            0.0000000
 Quadrupole YY       :         -8.3825547            0.0000000           -8.3825547
 Quadrupole YZ       :          0.0000000            0.0000000            0.0000000
 Quadrupole ZZ       :        -41.8043357           33.4932917           -8.3110440
 Traceless XX        :         11.1405937          -11.1644306           -0.0238369
 Traceless YY        :         11.1405937          -11.1644306           -0.0238369
 Traceless ZZ        :        -22.2811873           22.3288611            0.0476738

 ------------------------------------------------------------------------------------
  ==> Computing MBIS Charges <==

  Electron Count from Grid (Expected Number): 14.00000 (14.00000)
  Difference: -0.00000

  MBIS Charges: (a.u.)
   Center  Symbol  Z      Pop.       Charge
      1       N    7    7.000000    0.000000
      2       N    7    7.000000    0.000000

  MBIS Dipoles: [e a0]
   Center  Symbol  Z        X           Y           Z
      1       N    7   -0.000000    0.000000   -0.077008
      2       N    7   -0.000000    0.000000    0.077008

  MBIS Quadrupoles: [e a0^2]
   Center  Symbol  Z      XX        XY        XZ        YY        YZ        ZZ
      1       N    7   -4.1913   -0.0000   -0.0000   -4.1913    0.0000   -4.3937
      2       N    7   -4.1913   -0.0000    0.0000   -4.1913   -0.0000   -4.3937

  MBIS Octupoles: [e a0^3]
   Center  Symbol  Z      XXX       XXY       XXZ       XYY       XYZ       XZZ       YYY       YYZ       YZZ       ZZZ
      1       N    7   -0.0000    0.0000   -0.2556   -0.0000   -0.0000   -0.0000    0.0000   -0.2556    0.0000   -0.5744
      2       N    7   -0.0000    0.0000    0.2556   -0.0000    0.0000   -0.0000    0.0000    0.2556    0.0000    0.5744

  MBIS Radial Moments:
   Center  Symbol  Z      [a0^2]      [a0^3]      [a0^4]      
      1       N    7   12.776298   27.509257   70.462587
      2       N    7   12.776298   27.509257   70.462587

  MBIS Valence Widths: [a0]
   Center  Symbol  Z     Width
      1       N    7    0.449980
      2       N    7    0.449980

*** tstop() called on Mac.lan at Sun Aug 10 17:07:58 2025
Module time:
	user time   =       3.62 seconds =       0.06 minutes
	system time =       2.00 seconds =       0.03 minutes
	total time  =          1 seconds =       0.02 minutes
Total time:
	user time   =      24.79 seconds =       0.41 minutes
	system time =       4.49 seconds =       0.07 minutes
	total time  =          3 seconds =       0.05 minutes

    Psi4 stopped on: Sunday, 10 August 2025 05:07PM
    Psi4 wall time for execution: 0:00:02.90

*** Psi4 exiting successfully. Buy a developer a beer!
