
    -----------------------------------------------------------------------
          Psi4: An Open-Source Ab Initio Electronic Structure Package
                               Psi4 1.9.1 release

                         Git: Rev {} zzzzzzz 


    D. G. A. Smith, L. A. Burns, A. C. Simmonett, R. M. Parrish,
    M. C. Schieber, R. Galvelis, P. Kraus, H. Kruse, R. Di Remigio,
    A. Alenaizan, A. M. James, S. Lehtola, J. P. Misiewicz, M. Scheurer,
    R. A. Shaw, J. B. Schriber, Y. Xie, Z. L. Glick, D. A. Sirianni,
    J. S. O'Brien, J. M. Waldrop, A. Kumar, E. G. Hohenstein,
    B. P. Pritchard, B. R. Brooks, H. F. Schaefer III, A. Yu. Sokolov,
    K. Patkowski, A. E. DePrince III, U. Bozkaya, R. A. King,
    F. A. Evangelista, J. M. Turney, T. D. Crawford, C. D. Sherrill,
    J. Chem. Phys. 152(18) 184108 (2020). https://doi.org/10.1063/5.0006002

                            Additional Code Authors
    E. T. Seidl, C. L. Janssen, E. F. Valeev, M. L. Leininger,
    J. F. Gonthier, R. M. Richard, H. R. McAlexander, M. Saitow, X. Wang,
    P. Verma, M. H. Lechner, A. Jiang, S. Behnle, A. G. Heide,
    M. F. Herbst, and D. L. Poole

             Previous Authors, Complete List of Code Contributors,
                       and Citations for Specific Modules
    https://github.com/psi4/psi4/blob/master/codemeta.json
    https://github.com/psi4/psi4/graphs/contributors
    http://psicode.org/psi4manual/master/introduction.html#citing-psifour

    -----------------------------------------------------------------------


    Psi4 started on: Sunday, 10 August 2025 05:01PM

    Process ID: 48094
    Host:       Mac.lan
    PSIDATADIR: /Users/joseantoniorodriguesromero/anaconda3/share/psi4
    Memory:     500.0 MiB
    Threads:    1
    
  ==> Input File <==

--------------------------------------------------------------------------
molecule { 
0 3
O           0.000000           0.000000           0.000000
O           0.000000           0.000000           0.723496
}

set { 
basis              cc-pvtz
reference          uks
maxiter            500
DAMPING_PERCENTAGE 1
E_CONVERGENCE      1.0E-8
D_CONVERGENCE      1.0E-8
DIIS_MAX_VECS      400
MBIS_MAXITER       8000
guess              read
}

E, wfn = energy('b3lyp', restart_file='last_wfn', return_wfn=True)
properties('b3lyp','MBIS_CHARGES', wfn=wfn)
wfn.to_file('last_wfn')
--------------------------------------------------------------------------

Scratch directory: /tmp/
 Found user provided orbital data. Setting orbital guess to READ 
 Copying restart file <last_wfn.npy> to </tmp/scan_OO_1.default.48094.180.npy> for internal processing
   => Libint2 <=

    Primary   basis highest AM E, G, H:  6, 6, 3
    Auxiliary basis highest AM E, G, H:  7, 7, 4
    Onebody   basis highest AM E, G, H:  -, -, -
    Solid Harmonics ordering:            Gaussian

*** tstart() called on Mac.lan
*** at Sun Aug 10 17:01:31 2025

   => Loading Basis Set <=

    Name: CC-PVTZ
    Role: ORBITAL
    Keyword: BASIS
    atoms 1-2 entry O          line   262 file /Users/joseantoniorodriguesromero/anaconda3/share/psi4/basis/cc-pvtz.gbs 


         ---------------------------------------------------------
                                   SCF
               by Justin Turney, Rob Parrish, Andy Simmonett
                          and Daniel G. A. Smith
                              UKS Reference
                        1 Threads,    500 MiB Core
         ---------------------------------------------------------

  ==> Geometry <==

    Molecular point group: d2h
    Full point group: D_inf_h

    Geometry (in Angstrom), charge = 0, multiplicity = 3:

       Center              X                  Y                   Z               Mass       
    ------------   -----------------  -----------------  -----------------  -----------------
         O            0.000000000000     0.000000000000    -0.361748000000    15.994914619570
         O            0.000000000000     0.000000000000     0.361748000000    15.994914619570

  Running in d2h symmetry.

  Rotational constants: A = ************  B =      4.02691  C =      4.02691 [cm^-1]
  Rotational constants: A = ************  B = 120723.82860  C = 120723.82860 [MHz]
  Nuclear repulsion =   46.810682412729307

  Charge       = 0
  Multiplicity = 3
  Electrons    = 16
  Nalpha       = 9
  Nbeta        = 7

  ==> Algorithm <==

  SCF Algorithm Type is DF.
  DIIS enabled.
  MOM disabled.
  Fractional occupation disabled.
  Guess Type is READ.
  Energy threshold   = 1.00e-08
  Density threshold  = 1.00e-08
  Integral threshold = 1.00e-12

  ==> Primary Basis <==

  Basis Set: CC-PVTZ
    Blend: CC-PVTZ
    Number of shells: 20
    Number of basis functions: 60
    Number of Cartesian functions: 70
    Spherical Harmonics?: true
    Max angular momentum: 3

  ==> DFT Potential <==

   => LibXC <=

    Version 6.2.2
    S. Lehtola, C. Steigemann, M. J.T. Oliveira, and M. A.L. Marques.,  SoftwareX 7, 1–5 (2018) (10.1016/j.softx.2017.11.002)

   => Composite Functional: B3LYP <= 

    B3LYP Hyb-GGA Exchange-Correlation Functional

    P. J. Stephens, F. J. Devlin, C. F. Chabalowski, and M. J. Frisch.,  J. Phys. Chem. 98, 11623 (1994) (10.1021/j100096a001)

    Deriv               =              1
    GGA                 =           TRUE
    Meta                =          FALSE

    Exchange Hybrid     =           TRUE
    MP2 Hybrid          =          FALSE

   => Exchange Functionals <=

    0.0800   Slater exchange
    0.7200         Becke 88

   => Exact (HF) Exchange <=

    0.2000               HF 

   => Correlation Functionals <=

    0.1900   Vosko, Wilk & Nusair (VWN5_RPA)
    0.8100   Lee, Yang & Parr

   => LibXC Density Thresholds  <==

    XC_HYB_GGA_XC_B3LYP:  1.00E-15 

   => Molecular Quadrature <=

    Radial Scheme          =       TREUTLER
    Pruning Scheme         =           NONE
    Nuclear Scheme         =       TREUTLER

    Blocking Scheme        =         OCTREE
    BS radius alpha        =              1
    Pruning alpha          =              1
    Radial Points          =             75
    Spherical Points       =            302
    Total Points           =          42330
    Total Blocks           =            374
    Max Points             =            254
    Max Functions          =             60
    Weights Tolerance      =       1.00E-15

   => Loading Basis Set <=

    Name: (CC-PVTZ AUX)
    Role: JKFIT
    Keyword: DF_BASIS_SCF
    atoms 1-2 entry O          line   229 file /Users/joseantoniorodriguesromero/anaconda3/share/psi4/basis/cc-pvtz-jkfit.gbs 

   => Loading Basis Set <=

    Name: CC-PVTZ
    Role: ORBITAL
    Keyword: BASIS
    atoms 1-2 entry O          line   262 file /Users/joseantoniorodriguesromero/anaconda3/share/psi4/basis/cc-pvtz.gbs 

  Reading orbitals from file /tmp/scan_OO_1.default.48094.180.npy, no projection.

  ==> Integral Setup <==

  DFHelper Memory: AOs need 0.005 GiB; user supplied 0.295 GiB. 
  Using in-core AOs.

  ==> MemDFJK: Density-Fitted J/K Matrices <==

    J tasked:                   Yes
    K tasked:                   Yes
    wK tasked:                   No
    OpenMP threads:               1
    Memory [MiB]:               302
    Algorithm:                 Core
    Schwarz Cutoff:           1E-12
    Mask sparsity (%):       0.0000
    Fitting Condition:        1E-10

   => Auxiliary Basis Set <=

  Basis Set: (CC-PVTZ AUX)
    Blend: CC-PVTZ-JKFIT
    Number of shells: 50
    Number of basis functions: 158
    Number of Cartesian functions: 192
    Spherical Harmonics?: true
    Max angular momentum: 4

  Cached 100.0% of DFT collocation blocks in 0.071 [GiB].

  Minimum eigenvalue in the overlap matrix is 1.5060767606E-03.
  Reciprocal condition number of the overlap matrix is 3.8239020759E-04.
    Using symmetric orthogonalization.

  ==> Pre-Iterations <==

  SCF Guess: Orbitals guess was supplied from a previous computation.

   -------------------------------------------------------
    Irrep   Nso     Nmo     Nalpha   Nbeta   Ndocc  Nsocc
   -------------------------------------------------------
     Ag        13      13       3       3       3       0
     B1g        3       3       0       0       0       0
     B2g        7       7       1       0       0       1
     B3g        7       7       1       0       0       1
     Au         3       3       0       0       0       0
     B1u       13      13       2       2       2       0
     B2u        7       7       1       1       1       0
     B3u        7       7       1       1       1       0
   -------------------------------------------------------
    Total      60      60       9       7       7       2
   -------------------------------------------------------

  ==> Iterations <==

                           Total Energy        Delta E     RMS |[F,P]|

   @DF-UKS iter   0:  -149.06378467153576   -1.49064e+02   1.29764e-02 
   @DF-UKS iter   1:  -149.06306720583345    7.17466e-04   1.94404e-03 ADIIS/DIIS
   @DF-UKS iter   2:  -149.06313315401147   -6.59482e-05   1.83341e-03 ADIIS/DIIS/DAMP=1%
   @DF-UKS iter   3:  -149.06220072778723    9.32426e-04   6.64782e-05 DIIS/DAMP=1%
   @DF-UKS iter   4:  -149.06367931952971   -1.47859e-03   1.54003e-05 DIIS/DAMP=1%
   @DF-UKS iter   5:  -149.06364821841879    3.11011e-05   2.12503e-06 DIIS/DAMP=1%
   @DF-UKS iter   6:  -149.06365248104774   -4.26263e-06   2.46640e-07 DIIS/DAMP=1%
   @DF-UKS iter   7:  -149.06365409382676   -1.61278e-06   3.87542e-08 DIIS/DAMP=1%
   @DF-UKS iter   8:  -149.06365385021053    2.43616e-07   3.80686e-09 DIIS/DAMP=1%
   @DF-UKS iter   9:  -149.06365388673913   -3.65286e-08   1.46805e-10 DIIS/DAMP=1%
   @DF-UKS iter  10:  -149.06365388366046    3.07867e-09   1.33978e-11 DIIS/DAMP=1%
  Energy and wave function converged.


  ==> Post-Iterations <==

   Electrons on quadrature grid:
      Nalpha   =    9.0000000814 ; deviation = 8.138e-08
      Nbeta    =    7.0000000801 ; deviation = 8.009e-08
      Ntotal   =   16.0000001615 ; deviation = 1.615e-07 

   @Spin Contamination Metric:   1.761723057E-03
   @S^2 Expected:                2.000000000E+00
   @S^2 Observed:                2.001761723E+00
   @S   Expected:                1.000000000E+00
   @S   Observed:                1.000000000E+00

    Orbital Energies [Eh]
    ---------------------

    Alpha Occupied:                                                       

       1Ag   -19.291333     1B1u  -19.261653     2Ag    -1.846616  
       1B3u   -0.911885     1B2u   -0.911885     2B1u   -0.703337  
       3Ag    -0.679759     1B3g   -0.030634     1B2g   -0.030634  

    Alpha Virtual:                                                        

       3B1u    0.336523     2B2u    0.386865     2B3u    0.386865  
       4Ag     0.462634     5Ag     0.654320     2B3g    0.666172  
       2B2g    0.666172     6Ag     1.086554     1B1g    1.086555  
       4B1u    1.157963     5B1u    1.567764     3B2u    1.683678  
       3B3u    1.683678     1Au     1.814770     6B1u    1.814770  
       7Ag     1.985668     3B2g    2.238568     3B3g    2.238568  
       4B2u    3.208732     4B3u    3.208732     7B1u    3.447258  
       8Ag     4.088051     4B2g    4.142984     4B3g    4.142984  
       5B2u    4.471726     5B3u    4.471726     8B1u    4.517103  
       9Ag     4.666754     2B1g    4.666754     6B2u    5.262695  
       6B3u    5.262695     5B3g    5.588827     5B2g    5.588827  
      10Ag     5.627816     6B2g    5.762283     6B3g    5.762283  
       9B1u    5.956964     2Au     5.956965    11Ag     5.996979  
       3B1g    5.996980    12Ag     6.094741    10B1u    6.804959  
       7B2u    7.170008     7B3u    7.170008    11B1u    7.434393  
       3Au     7.434393    12B1u    9.220436     7B2g   10.016991  
       7B3g   10.016991    13Ag    11.324843    13B1u   33.733069  

    Beta Occupied:                                                        

       1Ag   -19.268027     1B1u  -19.237912     2Ag    -1.819576  
       1B2u   -0.835893     1B3u   -0.835893     3Ag    -0.625357  
       2B1u   -0.621505  

    Beta Virtual:                                                         

       1B3g    0.143580     1B2g    0.143580     3B1u    0.351643  
       2B2u    0.411285     2B3u    0.411285     4Ag     0.473136  
       5Ag     0.680960     2B3g    0.726913     2B2g    0.726913  
       6Ag     1.123985     1B1g    1.123985     4B1u    1.196678  
       5B1u    1.610045     3B2u    1.730292     3B3u    1.730292  
       1Au     1.885977     6B1u    1.885977     7Ag     2.000494  
       3B2g    2.284188     3B3g    2.284188     4B2u    3.257696  
       4B3u    3.257696     7B1u    3.479164     8Ag     4.112996  
       4B2g    4.207106     4B3g    4.207106     5B2u    4.519224  
       5B3u    4.519224     8B1u    4.572443     9Ag     4.698278  
       2B1g    4.698279     6B2u    5.309315     6B3u    5.309315  
      10Ag     5.659072     5B3g    5.661198     5B2g    5.661198  
       6B2g    5.806124     6B3g    5.806124     9B1u    6.042639  
       2Au     6.042640    11Ag     6.079832     3B1g    6.079833  
      12Ag     6.121819    10B1u    6.838498     7B2u    7.208797  
       7B3u    7.208797    11B1u    7.494634     3Au     7.494634  
      12B1u    9.247275     7B2g   10.068424     7B3g   10.068424  
      13Ag    11.369165    13B1u   33.761940  

    Final Occupation by Irrep:
             Ag   B1g   B2g   B3g    Au   B1u   B2u   B3u 
    DOCC [     3,    0,    0,    0,    0,    2,    1,    1 ]
    SOCC [     0,    0,    1,    1,    0,    0,    0,    0 ]
    NA   [     3,    0,    1,    1,    0,    2,    1,    1 ]
    NB   [     3,    0,    0,    0,    0,    2,    1,    1 ]

  @DF-UKS Final Energy:  -149.06365388366046

   => Energetics <=

    Nuclear Repulsion Energy =             46.8106824127293066
    One-Electron Energy =                -294.4897258485812017
    Two-Electron Energy =                 113.0590610143190986
    DFT Exchange-Correlation Energy =     -14.4436714621276856
    Empirical Dispersion Energy =           0.0000000000000000
    VV10 Nonlocal Energy =                  0.0000000000000000
    Total Energy =                       -149.0636538836604927

  UHF NO Occupations:
  HONO-2 :    2B1u 1.9996753
  HONO-1 :    1B3g 1.0000000
  HONO-0 :    1B2g 1.0000000
  LUNO+0 :    3B1u 0.0003247
  LUNO+1 :    2B3u 0.0002180
  LUNO+2 :    2B2u 0.0002180
  LUNO+3 :    4 Ag 0.0001164


Computation Completed


Properties will be evaluated at   0.000000,   0.000000,   0.000000 [a0]

Properties computed using the SCF density matrix


 Multipole Moments:

 ------------------------------------------------------------------------------------
     Multipole            Electronic (a.u.)      Nuclear  (a.u.)        Total (a.u.)
 ------------------------------------------------------------------------------------

 L = 1.  Multiply by 2.5417464519 to convert [e a0] to [Debye]
 Dipole X            :          0.0000000            0.0000000            0.0000000
 Dipole Y            :          0.0000000            0.0000000            0.0000000
 Dipole Z            :          0.0000000            0.0000000            0.0000000
 Magnitude           :                                                    0.0000000

 ------------------------------------------------------------------------------------

*** tstop() called on Mac.lan at Sun Aug 10 17:01:32 2025
Module time:
	user time   =      13.55 seconds =       0.23 minutes
	system time =       2.03 seconds =       0.03 minutes
	total time  =          1 seconds =       0.02 minutes
Total time:
	user time   =      13.55 seconds =       0.23 minutes
	system time =       2.03 seconds =       0.03 minutes
	total time  =          1 seconds =       0.02 minutes

*** tstart() called on Mac.lan
*** at Sun Aug 10 17:01:32 2025

   => Libint2 <=

    Primary   basis highest AM E, G, H:  6, 6, 3
    Auxiliary basis highest AM E, G, H:  7, 7, 4
    Onebody   basis highest AM E, G, H:  -, -, -
    Solid Harmonics ordering:            Gaussian
   => Loading Basis Set <=

    Name: CC-PVTZ
    Role: ORBITAL
    Keyword: BASIS
    atoms 1-2 entry O          line   262 file /Users/joseantoniorodriguesromero/anaconda3/share/psi4/basis/cc-pvtz.gbs 


         ---------------------------------------------------------
                                   SCF
               by Justin Turney, Rob Parrish, Andy Simmonett
                          and Daniel G. A. Smith
                              UKS Reference
                        1 Threads,    500 MiB Core
         ---------------------------------------------------------

  ==> Geometry <==

    Molecular point group: d2h
    Full point group: D_inf_h

    Geometry (in Angstrom), charge = 0, multiplicity = 3:

       Center              X                  Y                   Z               Mass       
    ------------   -----------------  -----------------  -----------------  -----------------
         O            0.000000000000     0.000000000000    -0.361748000000    15.994914619570
         O            0.000000000000     0.000000000000     0.361748000000    15.994914619570

  Running in d2h symmetry.

  Rotational constants: A = ************  B =      4.02691  C =      4.02691 [cm^-1]
  Rotational constants: A = ************  B = 120723.82860  C = 120723.82860 [MHz]
  Nuclear repulsion =   46.810682412729307

  Charge       = 0
  Multiplicity = 3
  Electrons    = 16
  Nalpha       = 9
  Nbeta        = 7

  ==> Algorithm <==

  SCF Algorithm Type is DF.
  DIIS enabled.
  MOM disabled.
  Fractional occupation disabled.
  Guess Type is READ.
  Energy threshold   = 1.00e-08
  Density threshold  = 1.00e-08
  Integral threshold = 1.00e-12

  ==> Primary Basis <==

  Basis Set: CC-PVTZ
    Blend: CC-PVTZ
    Number of shells: 20
    Number of basis functions: 60
    Number of Cartesian functions: 70
    Spherical Harmonics?: true
    Max angular momentum: 3

  ==> DFT Potential <==

   => LibXC <=

    Version 6.2.2
    S. Lehtola, C. Steigemann, M. J.T. Oliveira, and M. A.L. Marques.,  SoftwareX 7, 1–5 (2018) (10.1016/j.softx.2017.11.002)

   => Composite Functional: B3LYP <= 

    B3LYP Hyb-GGA Exchange-Correlation Functional

    P. J. Stephens, F. J. Devlin, C. F. Chabalowski, and M. J. Frisch.,  J. Phys. Chem. 98, 11623 (1994) (10.1021/j100096a001)

    Deriv               =              1
    GGA                 =           TRUE
    Meta                =          FALSE

    Exchange Hybrid     =           TRUE
    MP2 Hybrid          =          FALSE

   => Exchange Functionals <=

    0.0800   Slater exchange
    0.7200         Becke 88

   => Exact (HF) Exchange <=

    0.2000               HF 

   => Correlation Functionals <=

    0.1900   Vosko, Wilk & Nusair (VWN5_RPA)
    0.8100   Lee, Yang & Parr

   => LibXC Density Thresholds  <==

    XC_HYB_GGA_XC_B3LYP:  1.00E-15 

   => Molecular Quadrature <=

    Radial Scheme          =       TREUTLER
    Pruning Scheme         =           NONE
    Nuclear Scheme         =       TREUTLER

    Blocking Scheme        =         OCTREE
    BS radius alpha        =              1
    Pruning alpha          =              1
    Radial Points          =             75
    Spherical Points       =            302
    Total Points           =          42330
    Total Blocks           =            374
    Max Points             =            254
    Max Functions          =             60
    Weights Tolerance      =       1.00E-15

   => Loading Basis Set <=

    Name: (CC-PVTZ AUX)
    Role: JKFIT
    Keyword: DF_BASIS_SCF
    atoms 1-2 entry O          line   229 file /Users/joseantoniorodriguesromero/anaconda3/share/psi4/basis/cc-pvtz-jkfit.gbs 

   => Loading Basis Set <=

    Name: CC-PVTZ
    Role: ORBITAL
    Keyword: BASIS
    atoms 1-2 entry O          line   262 file /Users/joseantoniorodriguesromero/anaconda3/share/psi4/basis/cc-pvtz.gbs 

  Reading orbitals from file /tmp/scan_OO_1.default.48094.180.npy, no projection.

  ==> Integral Setup <==

  DFHelper Memory: AOs need 0.005 GiB; user supplied 0.295 GiB. 
  Using in-core AOs.

  ==> MemDFJK: Density-Fitted J/K Matrices <==

    J tasked:                   Yes
    K tasked:                   Yes
    wK tasked:                   No
    OpenMP threads:               1
    Memory [MiB]:               302
    Algorithm:                 Core
    Schwarz Cutoff:           1E-12
    Mask sparsity (%):       0.0000
    Fitting Condition:        1E-10

   => Auxiliary Basis Set <=

  Basis Set: (CC-PVTZ AUX)
    Blend: CC-PVTZ-JKFIT
    Number of shells: 50
    Number of basis functions: 158
    Number of Cartesian functions: 192
    Spherical Harmonics?: true
    Max angular momentum: 4

  Cached 100.0% of DFT collocation blocks in 0.071 [GiB].

  Minimum eigenvalue in the overlap matrix is 1.5060767606E-03.
  Reciprocal condition number of the overlap matrix is 3.8239020759E-04.
    Using symmetric orthogonalization.

  ==> Pre-Iterations <==

  SCF Guess: Orbitals guess was supplied from a previous computation.

   -------------------------------------------------------
    Irrep   Nso     Nmo     Nalpha   Nbeta   Ndocc  Nsocc
   -------------------------------------------------------
     Ag        13      13       3       3       3       0
     B1g        3       3       0       0       0       0
     B2g        7       7       1       0       0       1
     B3g        7       7       1       0       0       1
     Au         3       3       0       0       0       0
     B1u       13      13       2       2       2       0
     B2u        7       7       1       1       1       0
     B3u        7       7       1       1       1       0
   -------------------------------------------------------
    Total      60      60       9       7       7       2
   -------------------------------------------------------

  ==> Iterations <==

                           Total Energy        Delta E     RMS |[F,P]|

   @DF-UKS iter   0:  -149.06365388376261   -1.49064e+02   4.02477e-13 
   @DF-UKS iter   1:  -149.06365388376258    2.84217e-14   3.80197e-13 DIIS
  Energy and wave function converged.


  ==> Post-Iterations <==

   Electrons on quadrature grid:
      Nalpha   =    9.0000000814 ; deviation = 8.138e-08
      Nbeta    =    7.0000000801 ; deviation = 8.009e-08
      Ntotal   =   16.0000001615 ; deviation = 1.615e-07 

   @Spin Contamination Metric:   1.761723057E-03
   @S^2 Expected:                2.000000000E+00
   @S^2 Observed:                2.001761723E+00
   @S   Expected:                1.000000000E+00
   @S   Observed:                1.000000000E+00

    Orbital Energies [Eh]
    ---------------------

    Alpha Occupied:                                                       

       1Ag   -19.291333     1B1u  -19.261653     2Ag    -1.846616  
       1B3u   -0.911885     1B2u   -0.911885     2B1u   -0.703337  
       3Ag    -0.679759     1B3g   -0.030634     1B2g   -0.030634  

    Alpha Virtual:                                                        

       3B1u    0.336523     2B2u    0.386865     2B3u    0.386865  
       4Ag     0.462634     5Ag     0.654320     2B3g    0.666172  
       2B2g    0.666172     6Ag     1.086554     1B1g    1.086555  
       4B1u    1.157963     5B1u    1.567764     3B2u    1.683678  
       3B3u    1.683678     1Au     1.814770     6B1u    1.814770  
       7Ag     1.985668     3B2g    2.238568     3B3g    2.238568  
       4B2u    3.208732     4B3u    3.208732     7B1u    3.447258  
       8Ag     4.088051     4B2g    4.142984     4B3g    4.142984  
       5B2u    4.471726     5B3u    4.471726     8B1u    4.517103  
       9Ag     4.666754     2B1g    4.666754     6B2u    5.262695  
       6B3u    5.262695     5B3g    5.588827     5B2g    5.588827  
      10Ag     5.627816     6B2g    5.762283     6B3g    5.762283  
       9B1u    5.956964     2Au     5.956965    11Ag     5.996979  
       3B1g    5.996980    12Ag     6.094741    10B1u    6.804959  
       7B2u    7.170008     7B3u    7.170008    11B1u    7.434393  
       3Au     7.434393    12B1u    9.220436     7B2g   10.016991  
       7B3g   10.016991    13Ag    11.324843    13B1u   33.733069  

    Beta Occupied:                                                        

       1Ag   -19.268027     1B1u  -19.237912     2Ag    -1.819576  
       1B2u   -0.835893     1B3u   -0.835893     3Ag    -0.625357  
       2B1u   -0.621505  

    Beta Virtual:                                                         

       1B3g    0.143580     1B2g    0.143580     3B1u    0.351643  
       2B2u    0.411285     2B3u    0.411285     4Ag     0.473136  
       5Ag     0.680960     2B3g    0.726913     2B2g    0.726913  
       6Ag     1.123985     1B1g    1.123985     4B1u    1.196678  
       5B1u    1.610045     3B2u    1.730292     3B3u    1.730292  
       1Au     1.885977     6B1u    1.885977     7Ag     2.000494  
       3B2g    2.284188     3B3g    2.284188     4B2u    3.257696  
       4B3u    3.257696     7B1u    3.479164     8Ag     4.112996  
       4B2g    4.207106     4B3g    4.207106     5B2u    4.519224  
       5B3u    4.519224     8B1u    4.572443     9Ag     4.698278  
       2B1g    4.698279     6B2u    5.309315     6B3u    5.309315  
      10Ag     5.659072     5B3g    5.661198     5B2g    5.661198  
       6B2g    5.806124     6B3g    5.806124     9B1u    6.042639  
       2Au     6.042640    11Ag     6.079832     3B1g    6.079833  
      12Ag     6.121819    10B1u    6.838498     7B2u    7.208797  
       7B3u    7.208797    11B1u    7.494634     3Au     7.494634  
      12B1u    9.247275     7B2g   10.068424     7B3g   10.068424  
      13Ag    11.369165    13B1u   33.761940  

    Final Occupation by Irrep:
             Ag   B1g   B2g   B3g    Au   B1u   B2u   B3u 
    DOCC [     3,    0,    0,    0,    0,    2,    1,    1 ]
    SOCC [     0,    0,    1,    1,    0,    0,    0,    0 ]
    NA   [     3,    0,    1,    1,    0,    2,    1,    1 ]
    NB   [     3,    0,    0,    0,    0,    2,    1,    1 ]

  @DF-UKS Final Energy:  -149.06365388376258

   => Energetics <=

    Nuclear Repulsion Energy =             46.8106824127293066
    One-Electron Energy =                -294.4897258468348582
    Two-Electron Energy =                 113.0590610123054347
    DFT Exchange-Correlation Energy =     -14.4436714619624542
    Empirical Dispersion Energy =           0.0000000000000000
    VV10 Nonlocal Energy =                  0.0000000000000000
    Total Energy =                       -149.0636538837625551

  UHF NO Occupations:
  HONO-2 :    2B1u 1.9996753
  HONO-1 :    1B3g 1.0000000
  HONO-0 :    1B2g 1.0000000
  LUNO+0 :    3B1u 0.0003247
  LUNO+1 :    2B3u 0.0002180
  LUNO+2 :    2B2u 0.0002180
  LUNO+3 :    4 Ag 0.0001164


Computation Completed


Properties will be evaluated at   0.000000,   0.000000,   0.000000 [a0]

Properties computed using the B3LYP density matrix


 Multipole Moments:

 ------------------------------------------------------------------------------------
     Multipole            Electronic (a.u.)      Nuclear  (a.u.)        Total (a.u.)
 ------------------------------------------------------------------------------------

 L = 1.  Multiply by 2.5417464519 to convert [e a0] to [Debye]
 Dipole X            :          0.0000000            0.0000000            0.0000000
 Dipole Y            :          0.0000000            0.0000000            0.0000000
 Dipole Z            :          0.0000000            0.0000000            0.0000000
 Magnitude           :                                                    0.0000000

 L = 2.  Multiply by 1.3450342976 to convert [e a0^2] to [Debye ang]
 Quadrupole XX       :         -6.7201280            0.0000000           -6.7201280
 Quadrupole XY       :          0.0000000            0.0000000            0.0000000
 Quadrupole XZ       :          0.0000000            0.0000000            0.0000000
 Quadrupole YY       :         -6.7201280            0.0000000           -6.7201280
 Quadrupole YZ       :          0.0000000            0.0000000            0.0000000
 Quadrupole ZZ       :        -15.8360223            7.4770450           -8.3589773
 Traceless XX        :          3.0386315           -2.4923483            0.5462831
 Traceless YY        :          3.0386315           -2.4923483            0.5462831
 Traceless ZZ        :         -6.0772629            4.9846967           -1.0925662

 ------------------------------------------------------------------------------------
  ==> Computing MBIS Charges <==

  Electron Count from Grid (Expected Number): 16.00000 (16.00000)
  Difference:  0.00000

  MBIS Charges: (a.u.)
   Center  Symbol  Z      Pop.       Charge
      1       O    8    8.000001   -0.000001
      2       O    8    8.000001   -0.000001

  MBIS Dipoles: [e a0]
   Center  Symbol  Z        X           Y           Z
      1       O    8    0.000000   -0.000000    0.261687
      2       O    8   -0.000000    0.000000   -0.261687

  MBIS Quadrupoles: [e a0^2]
   Center  Symbol  Z      XX        XY        XZ        YY        YZ        ZZ
      1       O    8   -3.3601   -0.0000   -0.0000   -3.3601    0.0000   -3.8217
      2       O    8   -3.3601    0.0000    0.0000   -3.3601    0.0000   -3.8217

  MBIS Octupoles: [e a0^3]
   Center  Symbol  Z      XXX       XXY       XXZ       XYY       XYZ       XZZ       YYY       YYZ       YZZ       ZZZ
      1       O    8   -0.0000   -0.0000    0.5121   -0.0000    0.0000    0.0000   -0.0000    0.5121    0.0000    0.3840
      2       O    8   -0.0000   -0.0000   -0.5121   -0.0000    0.0000   -0.0000    0.0000   -0.5121    0.0000   -0.3840

  MBIS Radial Moments:
   Center  Symbol  Z      [a0^2]      [a0^3]      [a0^4]      
      1       O    8   10.541836   19.732445   45.020240
      2       O    8   10.541836   19.732445   45.020240

  MBIS Valence Widths: [a0]
   Center  Symbol  Z     Width
      1       O    8    0.368853
      2       O    8    0.368853

*** tstop() called on Mac.lan at Sun Aug 10 17:01:33 2025
Module time:
	user time   =       3.50 seconds =       0.06 minutes
	system time =       3.07 seconds =       0.05 minutes
	total time  =          1 seconds =       0.02 minutes
Total time:
	user time   =      17.08 seconds =       0.28 minutes
	system time =       5.25 seconds =       0.09 minutes
	total time  =          2 seconds =       0.03 minutes

    Psi4 stopped on: Sunday, 10 August 2025 05:01PM
    Psi4 wall time for execution: 0:00:02.19

*** Psi4 exiting successfully. Buy a developer a beer!
