
    -----------------------------------------------------------------------
          Psi4: An Open-Source Ab Initio Electronic Structure Package
                               Psi4 1.9.1 release

                         Git: Rev {} zzzzzzz 


    D. G. A. Smith, L. A. Burns, A. C. Simmonett, R. M. Parrish,
    M. C. Schieber, R. Galvelis, P. Kraus, H. Kruse, R. Di Remigio,
    A. Alenaizan, A. M. James, S. Lehtola, J. P. Misiewicz, M. Scheurer,
    R. A. Shaw, J. B. Schriber, Y. Xie, Z. L. Glick, D. A. Sirianni,
    J. S. O'Brien, J. M. Waldrop, A. Kumar, E. G. Hohenstein,
    B. P. Pritchard, B. R. Brooks, H. F. Schaefer III, A. Yu. Sokolov,
    K. Patkowski, A. E. DePrince III, U. Bozkaya, R. A. King,
    F. A. Evangelista, J. M. Turney, T. D. Crawford, C. D. Sherrill,
    J. Chem. Phys. 152(18) 184108 (2020). https://doi.org/10.1063/5.0006002

                            Additional Code Authors
    E. T. Seidl, C. L. Janssen, E. F. Valeev, M. L. Leininger,
    J. F. Gonthier, R. M. Richard, H. R. McAlexander, M. Saitow, X. Wang,
    P. Verma, M. H. Lechner, A. Jiang, S. Behnle, A. G. Heide,
    M. F. Herbst, and D. L. Poole

             Previous Authors, Complete List of Code Contributors,
                       and Citations for Specific Modules
    https://github.com/psi4/psi4/blob/master/codemeta.json
    https://github.com/psi4/psi4/graphs/contributors
    http://psicode.org/psi4manual/master/introduction.html#citing-psifour

    -----------------------------------------------------------------------


    Psi4 started on: Sunday, 10 August 2025 05:09PM

    Process ID: 48354
    Host:       Mac.lan
    PSIDATADIR: /Users/joseantoniorodriguesromero/anaconda3/share/psi4
    Memory:     500.0 MiB
    Threads:    1
    
  ==> Input File <==

--------------------------------------------------------------------------
molecule { 
0 2
C           0.000000           0.000000           0.000000
H           0.000000           0.000000           1.252123
}

set { 
basis              cc-pvtz
reference          uks
maxiter            500
DAMPING_PERCENTAGE 1
E_CONVERGENCE      1.0E-8
D_CONVERGENCE      1.0E-8
DIIS_MAX_VECS      400
MBIS_MAXITER       8000
guess              read
}

E, wfn = energy('b3lyp', restart_file='last_wfn', return_wfn=True)
properties('b3lyp','MBIS_CHARGES', wfn=wfn)
wfn.to_file('last_wfn')
--------------------------------------------------------------------------

Scratch directory: /tmp/
 Found user provided orbital data. Setting orbital guess to READ 
 Copying restart file <last_wfn.npy> to </tmp/scan_HC_29.default.48354.180.npy> for internal processing
   => Libint2 <=

    Primary   basis highest AM E, G, H:  6, 6, 3
    Auxiliary basis highest AM E, G, H:  7, 7, 4
    Onebody   basis highest AM E, G, H:  -, -, -
    Solid Harmonics ordering:            Gaussian

*** tstart() called on Mac.lan
*** at Sun Aug 10 17:09:11 2025

   => Loading Basis Set <=

    Name: CC-PVTZ
    Role: ORBITAL
    Keyword: BASIS
    atoms 1 entry C          line   186 file /Users/joseantoniorodriguesromero/anaconda3/share/psi4/basis/cc-pvtz.gbs 
    atoms 2 entry H          line    23 file /Users/joseantoniorodriguesromero/anaconda3/share/psi4/basis/cc-pvtz.gbs 


         ---------------------------------------------------------
                                   SCF
               by Justin Turney, Rob Parrish, Andy Simmonett
                          and Daniel G. A. Smith
                              UKS Reference
                        1 Threads,    500 MiB Core
         ---------------------------------------------------------

  ==> Geometry <==

    Molecular point group: c2v
    Full point group: C_inf_v

    Geometry (in Angstrom), charge = 0, multiplicity = 2:

       Center              X                  Y                   Z               Mass       
    ------------   -----------------  -----------------  -----------------  -----------------
         C            0.000000000000     0.000000000000    -0.097012444410    12.000000000000
         H            0.000000000000     0.000000000000     1.155110555590     1.007825032230

  Running in c2v symmetry.

  Rotational constants: A = ************  B =     11.56487  C =     11.56487 [cm^-1]
  Rotational constants: A = ************  B = 346706.12383  C = 346706.12383 [MHz]
  Nuclear repulsion =    2.535743903769837

  Charge       = 0
  Multiplicity = 2
  Electrons    = 7
  Nalpha       = 4
  Nbeta        = 3

  ==> Algorithm <==

  SCF Algorithm Type is DF.
  DIIS enabled.
  MOM disabled.
  Fractional occupation disabled.
  Guess Type is READ.
  Energy threshold   = 1.00e-08
  Density threshold  = 1.00e-08
  Integral threshold = 1.00e-12

  ==> Primary Basis <==

  Basis Set: CC-PVTZ
    Blend: CC-PVTZ
    Number of shells: 16
    Number of basis functions: 44
    Number of Cartesian functions: 50
    Spherical Harmonics?: true
    Max angular momentum: 3

  ==> DFT Potential <==

   => LibXC <=

    Version 6.2.2
    S. Lehtola, C. Steigemann, M. J.T. Oliveira, and M. A.L. Marques.,  SoftwareX 7, 1–5 (2018) (10.1016/j.softx.2017.11.002)

   => Composite Functional: B3LYP <= 

    B3LYP Hyb-GGA Exchange-Correlation Functional

    P. J. Stephens, F. J. Devlin, C. F. Chabalowski, and M. J. Frisch.,  J. Phys. Chem. 98, 11623 (1994) (10.1021/j100096a001)

    Deriv               =              1
    GGA                 =           TRUE
    Meta                =          FALSE

    Exchange Hybrid     =           TRUE
    MP2 Hybrid          =          FALSE

   => Exchange Functionals <=

    0.0800   Slater exchange
    0.7200         Becke 88

   => Exact (HF) Exchange <=

    0.2000               HF 

   => Correlation Functionals <=

    0.1900   Vosko, Wilk & Nusair (VWN5_RPA)
    0.8100   Lee, Yang & Parr

   => LibXC Density Thresholds  <==

    XC_HYB_GGA_XC_B3LYP:  1.00E-15 

   => Molecular Quadrature <=

    Radial Scheme          =       TREUTLER
    Pruning Scheme         =           NONE
    Nuclear Scheme         =       TREUTLER

    Blocking Scheme        =         OCTREE
    BS radius alpha        =              1
    Pruning alpha          =              1
    Radial Points          =             75
    Spherical Points       =            302
    Total Points           =          43827
    Total Blocks           =            389
    Max Points             =            253
    Max Functions          =             44
    Weights Tolerance      =       1.00E-15

   => Loading Basis Set <=

    Name: (CC-PVTZ AUX)
    Role: JKFIT
    Keyword: DF_BASIS_SCF
    atoms 1 entry C          line   125 file /Users/joseantoniorodriguesromero/anaconda3/share/psi4/basis/cc-pvtz-jkfit.gbs 
    atoms 2 entry H          line    51 file /Users/joseantoniorodriguesromero/anaconda3/share/psi4/basis/cc-pvtz-jkfit.gbs 

   => Loading Basis Set <=

    Name: CC-PVTZ
    Role: ORBITAL
    Keyword: BASIS
    atoms 1 entry C          line   186 file /Users/joseantoniorodriguesromero/anaconda3/share/psi4/basis/cc-pvtz.gbs 
    atoms 2 entry H          line    23 file /Users/joseantoniorodriguesromero/anaconda3/share/psi4/basis/cc-pvtz.gbs 

  Reading orbitals from file /tmp/scan_HC_29.default.48354.180.npy, no projection.

  ==> Integral Setup <==

  DFHelper Memory: AOs need 0.002 GiB; user supplied 0.311 GiB. 
  Using in-core AOs.

  ==> MemDFJK: Density-Fitted J/K Matrices <==

    J tasked:                   Yes
    K tasked:                   Yes
    wK tasked:                   No
    OpenMP threads:               1
    Memory [MiB]:               318
    Algorithm:                 Core
    Schwarz Cutoff:           1E-12
    Mask sparsity (%):       0.0000
    Fitting Condition:        1E-10

   => Auxiliary Basis Set <=

  Basis Set: (CC-PVTZ AUX)
    Blend: CC-PVTZ-JKFIT
    Number of shells: 35
    Number of basis functions: 109
    Number of Cartesian functions: 131
    Spherical Harmonics?: true
    Max angular momentum: 4

  Cached 100.0% of DFT collocation blocks in 0.055 [GiB].

  Minimum eigenvalue in the overlap matrix is 4.8380760700E-03.
  Reciprocal condition number of the overlap matrix is 1.2233140575E-03.
    Using symmetric orthogonalization.

  ==> Pre-Iterations <==

  SCF Guess: Orbitals guess was supplied from a previous computation.

   -------------------------------------------------------
    Irrep   Nso     Nmo     Nalpha   Nbeta   Ndocc  Nsocc
   -------------------------------------------------------
     A1        20      20       3       3       3       0
     A2         4       4       0       0       0       0
     B1        10      10       1       0       0       1
     B2        10      10       0       0       0       0
   -------------------------------------------------------
    Total      44      44       4       3       3       1
   -------------------------------------------------------

  ==> Iterations <==

                           Total Energy        Delta E     RMS |[F,P]|

   @DF-UKS iter   0:   -38.48585314947562   -3.84859e+01   9.56209e-04 
   @DF-UKS iter   1:   -38.48976958516043   -3.91644e-03   1.91403e-04 ADIIS/DIIS
   @DF-UKS iter   2:   -38.48977965261803   -1.00675e-05   1.16796e-04 ADIIS/DIIS/DAMP=1%
   @DF-UKS iter   3:   -38.48982919109832   -4.95385e-05   2.49282e-05 DIIS/DAMP=1%
   @DF-UKS iter   4:   -38.48977455485115    5.46362e-05   1.01087e-06 DIIS/DAMP=1%
   @DF-UKS iter   5:   -38.48978558772089   -1.10329e-05   3.25147e-07 DIIS/DAMP=1%
   @DF-UKS iter   6:   -38.48978556881556    1.89053e-08   1.07996e-07 DIIS/DAMP=1%
   @DF-UKS iter   7:   -38.48978564548645   -7.66709e-08   1.34161e-08 DIIS/DAMP=1%
   @DF-UKS iter   8:   -38.48978563419754    1.12889e-08   1.97372e-09 DIIS/DAMP=1%
   @DF-UKS iter   9:   -38.48978563366767    5.29873e-10   2.34569e-10 DIIS/DAMP=1%
  Energy and wave function converged.


  ==> Post-Iterations <==

   Electrons on quadrature grid:
      Nalpha   =    4.0000000243 ; deviation = 2.425e-08
      Nbeta    =    3.0000000291 ; deviation = 2.911e-08
      Ntotal   =    7.0000000534 ; deviation = 5.336e-08 

   @Spin Contamination Metric:   3.209953981E-03
   @S^2 Expected:                7.500000000E-01
   @S^2 Observed:                7.532099540E-01
   @S   Expected:                5.000000000E-01
   @S   Observed:                5.000000000E-01

    Orbital Energies [Eh]
    ---------------------

    Alpha Occupied:                                                       

       1A1   -10.295824     2A1    -0.626563     3A1    -0.322834  
       1B1    -0.261817  

    Alpha Virtual:                                                        

       1B2    -0.149268     4A1     0.039927     5A1     0.275600  
       2B1     0.289830     2B2     0.309523     6A1     0.330558  
       7A1     0.444015     3B1     0.554826     3B2     0.557598  
       1A2     0.654505     8A1     0.660241     9A1     0.926546  
       4B1     0.994417     4B2     0.995036    10A1     1.260580  
       5B1     1.915655     5B2     1.942064    11A1     2.111866  
      12A1     2.301613     2A2     2.535030    13A1     2.538901  
       6B1     2.577541     6B2     2.582831     7B1     2.639305  
       7B2     2.641823    14A1     2.798126     3A2     2.894623  
      15A1     2.908220     8B1     3.034233     8B2     3.045753  
      16A1     3.099585     4A2     3.439208    17A1     3.440585  
       9B2     3.740178     9B1     3.742531    18A1     4.047465  
      10B1     4.380164    10B2     4.380408    19A1     4.479674  
      20A1     6.936597  

    Beta Occupied:                                                        

       1A1   -10.280862     2A1    -0.581538     3A1    -0.305101  

    Beta Virtual:                                                         

       1B2    -0.133133     1B1    -0.086814     4A1     0.046889  
       5A1     0.280985     2B2     0.316979     6A1     0.338983  
       2B1     0.345786     7A1     0.462355     3B2     0.558525  
       3B1     0.579439     8A1     0.697699     1A2     0.698028  
       9A1     0.939786     4B2     0.996418     4B1     1.016132  
      10A1     1.267749     5B2     1.953248     5B1     1.997095  
      11A1     2.123491    12A1     2.310628     2A2     2.565674  
      13A1     2.565760     6B2     2.585964     6B1     2.617561  
       7B2     2.698005     7B1     2.698714    14A1     2.817287  
       3A2     2.972996    15A1     2.975185     8B2     3.050795  
       8B1     3.092053    16A1     3.117164     4A2     3.447351  
      17A1     3.447676     9B2     3.735384     9B1     3.743078  
      18A1     4.057733    10B2     4.380337    10B1     4.400627  
      19A1     4.482716    20A1     6.953127  

    Final Occupation by Irrep:
             A1    A2    B1    B2 
    DOCC [     3,    0,    0,    0 ]
    SOCC [     0,    0,    1,    0 ]
    NA   [     3,    0,    1,    0 ]
    NB   [     3,    0,    0,    0 ]

  @DF-UKS Final Energy:   -38.48978563366767

   => Energetics <=

    Nuclear Repulsion Energy =              2.5357439037698368
    One-Electron Energy =                 -56.1153558613295189
    Two-Electron Energy =                  19.6052993478536806
    DFT Exchange-Correlation Energy =      -4.5154730239616629
    Empirical Dispersion Energy =           0.0000000000000000
    VV10 Nonlocal Energy =                  0.0000000000000000
    Total Energy =                        -38.4897856336676654

  UHF NO Occupations:
  HONO-2 :    2 A1 1.9997570
  HONO-1 :    3 A1 1.9986378
  HONO-0 :    1 B1 1.0000000
  LUNO+0 :    4 A1 0.0013622
  LUNO+1 :    5 A1 0.0002430
  LUNO+2 :    6 A1 0.0000007
  LUNO+3 :    7 A1 0.0000000


Computation Completed


Properties will be evaluated at   0.000000,   0.000000,   0.000000 [a0]

Properties computed using the SCF density matrix


 Multipole Moments:

 ------------------------------------------------------------------------------------
     Multipole            Electronic (a.u.)      Nuclear  (a.u.)        Total (a.u.)
 ------------------------------------------------------------------------------------

 L = 1.  Multiply by 2.5417464519 to convert [e a0] to [Debye]
 Dipole X            :          0.0000000            0.0000000            0.0000000
 Dipole Y            :          0.0000000            0.0000000            0.0000000
 Dipole Z            :         -0.6036009            1.0828809            0.4792800
 Magnitude           :                                                    0.4792800

 ------------------------------------------------------------------------------------

*** tstop() called on Mac.lan at Sun Aug 10 17:09:12 2025
Module time:
	user time   =       9.60 seconds =       0.16 minutes
	system time =       1.96 seconds =       0.03 minutes
	total time  =          1 seconds =       0.02 minutes
Total time:
	user time   =       9.60 seconds =       0.16 minutes
	system time =       1.96 seconds =       0.03 minutes
	total time  =          1 seconds =       0.02 minutes

*** tstart() called on Mac.lan
*** at Sun Aug 10 17:09:12 2025

   => Libint2 <=

    Primary   basis highest AM E, G, H:  6, 6, 3
    Auxiliary basis highest AM E, G, H:  7, 7, 4
    Onebody   basis highest AM E, G, H:  -, -, -
    Solid Harmonics ordering:            Gaussian
   => Loading Basis Set <=

    Name: CC-PVTZ
    Role: ORBITAL
    Keyword: BASIS
    atoms 1 entry C          line   186 file /Users/joseantoniorodriguesromero/anaconda3/share/psi4/basis/cc-pvtz.gbs 
    atoms 2 entry H          line    23 file /Users/joseantoniorodriguesromero/anaconda3/share/psi4/basis/cc-pvtz.gbs 


         ---------------------------------------------------------
                                   SCF
               by Justin Turney, Rob Parrish, Andy Simmonett
                          and Daniel G. A. Smith
                              UKS Reference
                        1 Threads,    500 MiB Core
         ---------------------------------------------------------

  ==> Geometry <==

    Molecular point group: c2v
    Full point group: C_inf_v

    Geometry (in Angstrom), charge = 0, multiplicity = 2:

       Center              X                  Y                   Z               Mass       
    ------------   -----------------  -----------------  -----------------  -----------------
         C            0.000000000000     0.000000000000    -0.097012444410    12.000000000000
         H            0.000000000000     0.000000000000     1.155110555590     1.007825032230

  Running in c2v symmetry.

  Rotational constants: A = ************  B =     11.56487  C =     11.56487 [cm^-1]
  Rotational constants: A = ************  B = 346706.12383  C = 346706.12383 [MHz]
  Nuclear repulsion =    2.535743903769837

  Charge       = 0
  Multiplicity = 2
  Electrons    = 7
  Nalpha       = 4
  Nbeta        = 3

  ==> Algorithm <==

  SCF Algorithm Type is DF.
  DIIS enabled.
  MOM disabled.
  Fractional occupation disabled.
  Guess Type is READ.
  Energy threshold   = 1.00e-08
  Density threshold  = 1.00e-08
  Integral threshold = 1.00e-12

  ==> Primary Basis <==

  Basis Set: CC-PVTZ
    Blend: CC-PVTZ
    Number of shells: 16
    Number of basis functions: 44
    Number of Cartesian functions: 50
    Spherical Harmonics?: true
    Max angular momentum: 3

  ==> DFT Potential <==

   => LibXC <=

    Version 6.2.2
    S. Lehtola, C. Steigemann, M. J.T. Oliveira, and M. A.L. Marques.,  SoftwareX 7, 1–5 (2018) (10.1016/j.softx.2017.11.002)

   => Composite Functional: B3LYP <= 

    B3LYP Hyb-GGA Exchange-Correlation Functional

    P. J. Stephens, F. J. Devlin, C. F. Chabalowski, and M. J. Frisch.,  J. Phys. Chem. 98, 11623 (1994) (10.1021/j100096a001)

    Deriv               =              1
    GGA                 =           TRUE
    Meta                =          FALSE

    Exchange Hybrid     =           TRUE
    MP2 Hybrid          =          FALSE

   => Exchange Functionals <=

    0.0800   Slater exchange
    0.7200         Becke 88

   => Exact (HF) Exchange <=

    0.2000               HF 

   => Correlation Functionals <=

    0.1900   Vosko, Wilk & Nusair (VWN5_RPA)
    0.8100   Lee, Yang & Parr

   => LibXC Density Thresholds  <==

    XC_HYB_GGA_XC_B3LYP:  1.00E-15 

   => Molecular Quadrature <=

    Radial Scheme          =       TREUTLER
    Pruning Scheme         =           NONE
    Nuclear Scheme         =       TREUTLER

    Blocking Scheme        =         OCTREE
    BS radius alpha        =              1
    Pruning alpha          =              1
    Radial Points          =             75
    Spherical Points       =            302
    Total Points           =          43827
    Total Blocks           =            389
    Max Points             =            253
    Max Functions          =             44
    Weights Tolerance      =       1.00E-15

   => Loading Basis Set <=

    Name: (CC-PVTZ AUX)
    Role: JKFIT
    Keyword: DF_BASIS_SCF
    atoms 1 entry C          line   125 file /Users/joseantoniorodriguesromero/anaconda3/share/psi4/basis/cc-pvtz-jkfit.gbs 
    atoms 2 entry H          line    51 file /Users/joseantoniorodriguesromero/anaconda3/share/psi4/basis/cc-pvtz-jkfit.gbs 

   => Loading Basis Set <=

    Name: CC-PVTZ
    Role: ORBITAL
    Keyword: BASIS
    atoms 1 entry C          line   186 file /Users/joseantoniorodriguesromero/anaconda3/share/psi4/basis/cc-pvtz.gbs 
    atoms 2 entry H          line    23 file /Users/joseantoniorodriguesromero/anaconda3/share/psi4/basis/cc-pvtz.gbs 

  Reading orbitals from file /tmp/scan_HC_29.default.48354.180.npy, no projection.

  ==> Integral Setup <==

  DFHelper Memory: AOs need 0.002 GiB; user supplied 0.311 GiB. 
  Using in-core AOs.

  ==> MemDFJK: Density-Fitted J/K Matrices <==

    J tasked:                   Yes
    K tasked:                   Yes
    wK tasked:                   No
    OpenMP threads:               1
    Memory [MiB]:               318
    Algorithm:                 Core
    Schwarz Cutoff:           1E-12
    Mask sparsity (%):       0.0000
    Fitting Condition:        1E-10

   => Auxiliary Basis Set <=

  Basis Set: (CC-PVTZ AUX)
    Blend: CC-PVTZ-JKFIT
    Number of shells: 35
    Number of basis functions: 109
    Number of Cartesian functions: 131
    Spherical Harmonics?: true
    Max angular momentum: 4

  Cached 100.0% of DFT collocation blocks in 0.055 [GiB].

  Minimum eigenvalue in the overlap matrix is 4.8380760700E-03.
  Reciprocal condition number of the overlap matrix is 1.2233140575E-03.
    Using symmetric orthogonalization.

  ==> Pre-Iterations <==

  SCF Guess: Orbitals guess was supplied from a previous computation.

   -------------------------------------------------------
    Irrep   Nso     Nmo     Nalpha   Nbeta   Ndocc  Nsocc
   -------------------------------------------------------
     A1        20      20       3       3       3       0
     A2         4       4       0       0       0       0
     B1        10      10       1       0       0       1
     B2        10      10       0       0       0       0
   -------------------------------------------------------
    Total      44      44       4       3       3       1
   -------------------------------------------------------

  ==> Iterations <==

                           Total Energy        Delta E     RMS |[F,P]|

   @DF-UKS iter   0:   -38.48978563411671   -3.84898e+01   2.68274e-11 
   @DF-UKS iter   1:   -38.48978563411670    7.10543e-15   1.24715e-11 DIIS
  Energy and wave function converged.


  ==> Post-Iterations <==

   Electrons on quadrature grid:
      Nalpha   =    4.0000000243 ; deviation = 2.425e-08
      Nbeta    =    3.0000000291 ; deviation = 2.911e-08
      Ntotal   =    7.0000000534 ; deviation = 5.336e-08 

   @Spin Contamination Metric:   3.209954043E-03
   @S^2 Expected:                7.500000000E-01
   @S^2 Observed:                7.532099540E-01
   @S   Expected:                5.000000000E-01
   @S   Observed:                5.000000000E-01

    Orbital Energies [Eh]
    ---------------------

    Alpha Occupied:                                                       

       1A1   -10.295824     2A1    -0.626563     3A1    -0.322834  
       1B1    -0.261817  

    Alpha Virtual:                                                        

       1B2    -0.149268     4A1     0.039927     5A1     0.275600  
       2B1     0.289830     2B2     0.309523     6A1     0.330558  
       7A1     0.444015     3B1     0.554826     3B2     0.557598  
       1A2     0.654505     8A1     0.660241     9A1     0.926546  
       4B1     0.994417     4B2     0.995036    10A1     1.260580  
       5B1     1.915655     5B2     1.942064    11A1     2.111866  
      12A1     2.301613     2A2     2.535030    13A1     2.538901  
       6B1     2.577541     6B2     2.582831     7B1     2.639305  
       7B2     2.641823    14A1     2.798126     3A2     2.894623  
      15A1     2.908220     8B1     3.034233     8B2     3.045753  
      16A1     3.099585     4A2     3.439208    17A1     3.440585  
       9B2     3.740178     9B1     3.742531    18A1     4.047465  
      10B1     4.380164    10B2     4.380408    19A1     4.479674  
      20A1     6.936597  

    Beta Occupied:                                                        

       1A1   -10.280862     2A1    -0.581538     3A1    -0.305101  

    Beta Virtual:                                                         

       1B2    -0.133133     1B1    -0.086814     4A1     0.046889  
       5A1     0.280985     2B2     0.316979     6A1     0.338983  
       2B1     0.345786     7A1     0.462355     3B2     0.558525  
       3B1     0.579439     8A1     0.697699     1A2     0.698028  
       9A1     0.939786     4B2     0.996418     4B1     1.016132  
      10A1     1.267749     5B2     1.953248     5B1     1.997095  
      11A1     2.123491    12A1     2.310628     2A2     2.565674  
      13A1     2.565760     6B2     2.585964     6B1     2.617561  
       7B2     2.698005     7B1     2.698714    14A1     2.817287  
       3A2     2.972996    15A1     2.975185     8B2     3.050795  
       8B1     3.092053    16A1     3.117164     4A2     3.447351  
      17A1     3.447676     9B2     3.735384     9B1     3.743078  
      18A1     4.057733    10B2     4.380337    10B1     4.400627  
      19A1     4.482716    20A1     6.953127  

    Final Occupation by Irrep:
             A1    A2    B1    B2 
    DOCC [     3,    0,    0,    0 ]
    SOCC [     0,    0,    1,    0 ]
    NA   [     3,    0,    1,    0 ]
    NB   [     3,    0,    0,    0 ]

  @DF-UKS Final Energy:   -38.48978563411670

   => Energetics <=

    Nuclear Repulsion Energy =              2.5357439037698368
    One-Electron Energy =                 -56.1153558551723393
    Two-Electron Energy =                  19.6052993407327882
    DFT Exchange-Correlation Energy =      -4.5154730234469769
    Empirical Dispersion Energy =           0.0000000000000000
    VV10 Nonlocal Energy =                  0.0000000000000000
    Total Energy =                        -38.4897856341166928

  UHF NO Occupations:
  HONO-2 :    2 A1 1.9997570
  HONO-1 :    3 A1 1.9986378
  HONO-0 :    1 B1 1.0000000
  LUNO+0 :    4 A1 0.0013622
  LUNO+1 :    5 A1 0.0002430
  LUNO+2 :    6 A1 0.0000007
  LUNO+3 :    7 A1 0.0000000


Computation Completed


Properties will be evaluated at   0.000000,   0.000000,   0.000000 [a0]

Properties computed using the B3LYP density matrix


 Multipole Moments:

 ------------------------------------------------------------------------------------
     Multipole            Electronic (a.u.)      Nuclear  (a.u.)        Total (a.u.)
 ------------------------------------------------------------------------------------

 L = 1.  Multiply by 2.5417464519 to convert [e a0] to [Debye]
 Dipole X            :          0.0000000            0.0000000            0.0000000
 Dipole Y            :          0.0000000            0.0000000            0.0000000
 Dipole Z            :         -0.6036009            1.0828809            0.4792800
 Magnitude           :                                                    0.4792800

 L = 2.  Multiply by 1.3450342976 to convert [e a0^2] to [Debye ang]
 Quadrupole XX       :         -5.7904502            0.0000000           -5.7904502
 Quadrupole XY       :          0.0000000            0.0000000            0.0000000
 Quadrupole XZ       :          0.0000000            0.0000000            0.0000000
 Quadrupole YY       :         -4.3043135            0.0000000           -4.3043135
 Quadrupole YZ       :          0.0000000            0.0000000            0.0000000
 Quadrupole ZZ       :        -10.5854308            4.9664544           -5.6189763
 Traceless XX        :          1.1029480           -1.6554848           -0.5525368
 Traceless YY        :          2.5890846           -1.6554848            0.9335998
 Traceless ZZ        :         -3.6920326            3.3109696           -0.3810630

 ------------------------------------------------------------------------------------
  ==> Computing MBIS Charges <==

  Electron Count from Grid (Expected Number):  7.00000 ( 7.00000)
  Difference:  0.00000

  MBIS Charges: (a.u.)
   Center  Symbol  Z      Pop.       Charge
      1       C    6    6.055513   -0.055513
      2       H    1    0.944487    0.055513

  MBIS Dipoles: [e a0]
   Center  Symbol  Z        X           Y           Z
      1       C    6    0.000000    0.000000    0.290635
      2       H    1    0.000000   -0.000000    0.057291

  MBIS Quadrupoles: [e a0^2]
   Center  Symbol  Z      XX        XY        XZ        YY        YZ        ZZ
      1       C    6   -5.1133    0.0000   -0.0000   -3.7026   -0.0000   -5.3563
      2       H    1   -0.6771    0.0000   -0.0000   -0.6017   -0.0000   -0.6689

  MBIS Octupoles: [e a0^3]
   Center  Symbol  Z      XXX       XXY       XXZ       XYY       XYZ       XZZ       YYY       YYZ       YZZ       ZZZ
      1       C    6   -0.0000   -0.0000    0.3727   -0.0000   -0.0000   -0.0000   -0.0000    0.3669   -0.0000    0.6658
      2       H    1    0.0000   -0.0000   -0.0005   -0.0000   -0.0000   -0.0000   -0.0000   -0.0534   -0.0000   -0.0261

  MBIS Radial Moments:
   Center  Symbol  Z      [a0^2]      [a0^3]      [a0^4]      
      1       C    6   14.172205   35.359742   105.550071
      2       H    1    1.947731    4.018656    9.994398

  MBIS Valence Widths: [a0]
   Center  Symbol  Z     Width
      1       C    6    0.523917
      2       H    1    0.416823

*** tstop() called on Mac.lan at Sun Aug 10 17:09:13 2025
Module time:
	user time   =       2.88 seconds =       0.05 minutes
	system time =       1.63 seconds =       0.03 minutes
	total time  =          1 seconds =       0.02 minutes
Total time:
	user time   =      12.59 seconds =       0.21 minutes
	system time =       3.72 seconds =       0.06 minutes
	total time  =          2 seconds =       0.03 minutes

    Psi4 stopped on: Sunday, 10 August 2025 05:09PM
    Psi4 wall time for execution: 0:00:01.61

*** Psi4 exiting successfully. Buy a developer a beer!
