
    -----------------------------------------------------------------------
          Psi4: An Open-Source Ab Initio Electronic Structure Package
                               Psi4 1.9.1 release

                         Git: Rev {} zzzzzzz 


    D. G. A. Smith, L. A. Burns, A. C. Simmonett, R. M. Parrish,
    M. C. Schieber, R. Galvelis, P. Kraus, H. Kruse, R. Di Remigio,
    A. Alenaizan, A. M. James, S. Lehtola, J. P. Misiewicz, M. Scheurer,
    R. A. Shaw, J. B. Schriber, Y. Xie, Z. L. Glick, D. A. Sirianni,
    J. S. O'Brien, J. M. Waldrop, A. Kumar, E. G. Hohenstein,
    B. P. Pritchard, B. R. Brooks, H. F. Schaefer III, A. Yu. Sokolov,
    K. Patkowski, A. E. DePrince III, U. Bozkaya, R. A. King,
    F. A. Evangelista, J. M. Turney, T. D. Crawford, C. D. Sherrill,
    J. Chem. Phys. 152(18) 184108 (2020). https://doi.org/10.1063/5.0006002

                            Additional Code Authors
    E. T. Seidl, C. L. Janssen, E. F. Valeev, M. L. Leininger,
    J. F. Gonthier, R. M. Richard, H. R. McAlexander, M. Saitow, X. Wang,
    P. Verma, M. H. Lechner, A. Jiang, S. Behnle, A. G. Heide,
    M. F. Herbst, and D. L. Poole

             Previous Authors, Complete List of Code Contributors,
                       and Citations for Specific Modules
    https://github.com/psi4/psi4/blob/master/codemeta.json
    https://github.com/psi4/psi4/graphs/contributors
    http://psicode.org/psi4manual/master/introduction.html#citing-psifour

    -----------------------------------------------------------------------


    Psi4 started on: Sunday, 10 August 2025 05:00PM

    Process ID: 48081
    Host:       Mac.lan
    PSIDATADIR: /Users/joseantoniorodriguesromero/anaconda3/share/psi4
    Memory:     500.0 MiB
    Threads:    1
    
  ==> Input File <==

--------------------------------------------------------------------------
molecule { 
0 3
O           0.000000           0.000000           0.000000
O           0.000000           0.000000           0.989271
}

set { 
basis              cc-pvtz
reference          uks
maxiter            500
DAMPING_PERCENTAGE 1
E_CONVERGENCE      1.0E-8
D_CONVERGENCE      1.0E-8
DIIS_MAX_VECS      400
MBIS_MAXITER       8000
guess              read
}

E, wfn = energy('b3lyp', restart_file='last_wfn', return_wfn=True)
properties('b3lyp','MBIS_CHARGES', wfn=wfn)
wfn.to_file('last_wfn')
--------------------------------------------------------------------------

Scratch directory: /tmp/
 Found user provided orbital data. Setting orbital guess to READ 
 Copying restart file <last_wfn.npy> to </tmp/scan_OO_13.default.48081.180.npy> for internal processing
   => Libint2 <=

    Primary   basis highest AM E, G, H:  6, 6, 3
    Auxiliary basis highest AM E, G, H:  7, 7, 4
    Onebody   basis highest AM E, G, H:  -, -, -
    Solid Harmonics ordering:            Gaussian

*** tstart() called on Mac.lan
*** at Sun Aug 10 17:00:59 2025

   => Loading Basis Set <=

    Name: CC-PVTZ
    Role: ORBITAL
    Keyword: BASIS
    atoms 1-2 entry O          line   262 file /Users/joseantoniorodriguesromero/anaconda3/share/psi4/basis/cc-pvtz.gbs 


         ---------------------------------------------------------
                                   SCF
               by Justin Turney, Rob Parrish, Andy Simmonett
                          and Daniel G. A. Smith
                              UKS Reference
                        1 Threads,    500 MiB Core
         ---------------------------------------------------------

  ==> Geometry <==

    Molecular point group: d2h
    Full point group: D_inf_h

    Geometry (in Angstrom), charge = 0, multiplicity = 3:

       Center              X                  Y                   Z               Mass       
    ------------   -----------------  -----------------  -----------------  -----------------
         O            0.000000000000     0.000000000000    -0.494635500000    15.994914619570
         O            0.000000000000     0.000000000000     0.494635500000    15.994914619570

  Running in d2h symmetry.

  Rotational constants: A = ************  B =      2.15384  C =      2.15384 [cm^-1]
  Rotational constants: A = ************  B =  64570.58374  C =  64570.58374 [MHz]
  Nuclear repulsion =   34.234644988966622

  Charge       = 0
  Multiplicity = 3
  Electrons    = 16
  Nalpha       = 9
  Nbeta        = 7

  ==> Algorithm <==

  SCF Algorithm Type is DF.
  DIIS enabled.
  MOM disabled.
  Fractional occupation disabled.
  Guess Type is READ.
  Energy threshold   = 1.00e-08
  Density threshold  = 1.00e-08
  Integral threshold = 1.00e-12

  ==> Primary Basis <==

  Basis Set: CC-PVTZ
    Blend: CC-PVTZ
    Number of shells: 20
    Number of basis functions: 60
    Number of Cartesian functions: 70
    Spherical Harmonics?: true
    Max angular momentum: 3

  ==> DFT Potential <==

   => LibXC <=

    Version 6.2.2
    S. Lehtola, C. Steigemann, M. J.T. Oliveira, and M. A.L. Marques.,  SoftwareX 7, 1–5 (2018) (10.1016/j.softx.2017.11.002)

   => Composite Functional: B3LYP <= 

    B3LYP Hyb-GGA Exchange-Correlation Functional

    P. J. Stephens, F. J. Devlin, C. F. Chabalowski, and M. J. Frisch.,  J. Phys. Chem. 98, 11623 (1994) (10.1021/j100096a001)

    Deriv               =              1
    GGA                 =           TRUE
    Meta                =          FALSE

    Exchange Hybrid     =           TRUE
    MP2 Hybrid          =          FALSE

   => Exchange Functionals <=

    0.0800   Slater exchange
    0.7200         Becke 88

   => Exact (HF) Exchange <=

    0.2000               HF 

   => Correlation Functionals <=

    0.1900   Vosko, Wilk & Nusair (VWN5_RPA)
    0.8100   Lee, Yang & Parr

   => LibXC Density Thresholds  <==

    XC_HYB_GGA_XC_B3LYP:  1.00E-15 

   => Molecular Quadrature <=

    Radial Scheme          =       TREUTLER
    Pruning Scheme         =           NONE
    Nuclear Scheme         =       TREUTLER

    Blocking Scheme        =         OCTREE
    BS radius alpha        =              1
    Pruning alpha          =              1
    Radial Points          =             75
    Spherical Points       =            302
    Total Points           =          42370
    Total Blocks           =            376
    Max Points             =            256
    Max Functions          =             60
    Weights Tolerance      =       1.00E-15

   => Loading Basis Set <=

    Name: (CC-PVTZ AUX)
    Role: JKFIT
    Keyword: DF_BASIS_SCF
    atoms 1-2 entry O          line   229 file /Users/joseantoniorodriguesromero/anaconda3/share/psi4/basis/cc-pvtz-jkfit.gbs 

   => Loading Basis Set <=

    Name: CC-PVTZ
    Role: ORBITAL
    Keyword: BASIS
    atoms 1-2 entry O          line   262 file /Users/joseantoniorodriguesromero/anaconda3/share/psi4/basis/cc-pvtz.gbs 

  Reading orbitals from file /tmp/scan_OO_13.default.48081.180.npy, no projection.

  ==> Integral Setup <==

  DFHelper Memory: AOs need 0.005 GiB; user supplied 0.296 GiB. 
  Using in-core AOs.

  ==> MemDFJK: Density-Fitted J/K Matrices <==

    J tasked:                   Yes
    K tasked:                   Yes
    wK tasked:                   No
    OpenMP threads:               1
    Memory [MiB]:               303
    Algorithm:                 Core
    Schwarz Cutoff:           1E-12
    Mask sparsity (%):       0.0000
    Fitting Condition:        1E-10

   => Auxiliary Basis Set <=

  Basis Set: (CC-PVTZ AUX)
    Blend: CC-PVTZ-JKFIT
    Number of shells: 50
    Number of basis functions: 158
    Number of Cartesian functions: 192
    Spherical Harmonics?: true
    Max angular momentum: 4

  Cached 100.0% of DFT collocation blocks in 0.070 [GiB].

  Minimum eigenvalue in the overlap matrix is 3.0364001440E-03.
  Reciprocal condition number of the overlap matrix is 8.2705127275E-04.
    Using symmetric orthogonalization.

  ==> Pre-Iterations <==

  SCF Guess: Orbitals guess was supplied from a previous computation.

   -------------------------------------------------------
    Irrep   Nso     Nmo     Nalpha   Nbeta   Ndocc  Nsocc
   -------------------------------------------------------
     Ag        13      13       3       3       3       0
     B1g        3       3       0       0       0       0
     B2g        7       7       1       0       0       1
     B3g        7       7       1       0       0       1
     Au         3       3       0       0       0       0
     B1u       13      13       2       2       2       0
     B2u        7       7       1       1       1       0
     B3u        7       7       1       1       1       0
   -------------------------------------------------------
    Total      60      60       9       7       7       2
   -------------------------------------------------------

  ==> Iterations <==

                           Total Energy        Delta E     RMS |[F,P]|

   @DF-UKS iter   0:  -150.28754879525820   -1.50288e+02   6.35016e-03 
   @DF-UKS iter   1:  -150.26364572492085    2.39031e-02   6.09228e-04 ADIIS/DIIS
   @DF-UKS iter   2:  -150.26369077254301   -4.50476e-05   2.21990e-04 ADIIS/DIIS/DAMP=1%
   @DF-UKS iter   3:  -150.26369781226219   -7.03972e-06   7.40103e-06 DIIS/DAMP=1%
   @DF-UKS iter   4:  -150.26369083112235    6.98114e-06   4.18258e-06 DIIS/DAMP=1%
   @DF-UKS iter   5:  -150.26370050556275   -9.67444e-06   1.06179e-06 DIIS/DAMP=1%
   @DF-UKS iter   6:  -150.26369614367934    4.36188e-06   8.33806e-08 DIIS/DAMP=1%
   @DF-UKS iter   7:  -150.26369693957290   -7.95894e-07   7.58572e-09 DIIS/DAMP=1%
   @DF-UKS iter   8:  -150.26369689109760    4.84753e-08   6.09594e-10 DIIS/DAMP=1%
   @DF-UKS iter   9:  -150.26369689662423   -5.52663e-09   2.92963e-11 DIIS/DAMP=1%
  Energy and wave function converged.


  ==> Post-Iterations <==

   Electrons on quadrature grid:
      Nalpha   =    9.0000000251 ; deviation = 2.513e-08
      Nbeta    =    7.0000001175 ; deviation = 1.175e-07
      Ntotal   =   16.0000001427 ; deviation = 1.427e-07 

   @Spin Contamination Metric:   5.270822645E-03
   @S^2 Expected:                2.000000000E+00
   @S^2 Observed:                2.005270823E+00
   @S   Expected:                1.000000000E+00
   @S   Observed:                1.000000000E+00

    Orbital Energies [Eh]
    ---------------------

    Alpha Occupied:                                                       

       1Ag   -19.259570     1B1u  -19.258169     2Ag    -1.518063  
       2B1u   -0.771639     1B3u   -0.664662     1B2u   -0.664662  
       3Ag    -0.589389     1B3g   -0.217771     1B2g   -0.217771  

    Alpha Virtual:                                                        

       3B1u    0.330510     2B3u    0.466743     2B2u    0.466743  
       4Ag     0.514623     2B2g    0.625783     2B3g    0.625783  
       5Ag     0.648982     4B1u    0.780146     6Ag     1.146902  
       1B1g    1.146902     5B1u    1.156237     3B2u    1.442091  
       3B3u    1.442091     1Au     1.695354     6B1u    1.695354  
       7Ag     2.189137     3B3g    2.254439     3B2g    2.254439  
       7B1u    2.367574     4B2u    3.412091     4B3u    3.412091  
       8Ag     3.721482     4B3g    3.853114     4B2g    3.853114  
       8B1u    4.435259     2B1g    4.517319     9Ag     4.517319  
       5B2u    4.712905     5B3u    4.712905     6B3u    4.765212  
       6B2u    4.765212     5B3g    5.280571     5B2g    5.280571  
      10Ag     5.283196     9B1u    5.950572     3B1g    5.986594  
      11Ag     5.986598     2Au     6.138415    10B1u    6.138418  
       6B2g    6.156685     6B3g    6.156685     3Au     6.339386  
      11B1u    6.339387     7B3u    6.708722     7B2u    6.708722  
      12Ag     6.860694    12B1u    7.485855     7B2g    8.200959  
       7B3g    8.200959    13Ag     8.259787    13B1u   19.681077  

    Beta Occupied:                                                        

       1Ag   -19.229966     1B1u  -19.228345     2Ag    -1.473140  
       2B1u   -0.685013     1B3u   -0.569571     1B2u   -0.569571  
       3Ag    -0.542330  

    Beta Virtual:                                                         

       1B3g   -0.023141     1B2g   -0.023141     3B1u    0.347064  
       2B3u    0.495209     2B2u    0.495209     4Ag     0.521973  
       2B2g    0.672920     2B3g    0.672920     5Ag     0.673859  
       4B1u    0.823377     1B1g    1.186435     6Ag     1.186435  
       5B1u    1.189804     3B2u    1.479266     3B3u    1.479266  
       6B1u    1.760447     1Au     1.760448     7Ag     2.214296  
       3B3g    2.294085     3B2g    2.294085     7B1u    2.394315  
       4B2u    3.486215     4B3u    3.486215     8Ag     3.745154  
       4B3g    3.926795     4B2g    3.926795     8B1u    4.478469  
       2B1g    4.552105     9Ag     4.552105     5B2u    4.777493  
       5B3u    4.777493     6B3u    4.799445     6B2u    4.799445  
      10Ag     5.312077     5B3g    5.355978     5B2g    5.355978  
       9B1u    5.988721     3B1g    6.092311    11Ag     6.092316  
       6B2g    6.207702     6B3g    6.207702     2Au     6.239595  
      10B1u    6.239599     3Au     6.396859    11B1u    6.396861  
       7B3u    6.758343     7B2u    6.758343    12Ag     6.913974  
      12B1u    7.519615     7B2g    8.245144     7B3g    8.245144  
      13Ag     8.290973    13B1u   19.722849  

    Final Occupation by Irrep:
             Ag   B1g   B2g   B3g    Au   B1u   B2u   B3u 
    DOCC [     3,    0,    0,    0,    0,    2,    1,    1 ]
    SOCC [     0,    0,    1,    1,    0,    0,    0,    0 ]
    NA   [     3,    0,    1,    1,    0,    2,    1,    1 ]
    NB   [     3,    0,    0,    0,    0,    2,    1,    1 ]

  @DF-UKS Final Energy:  -150.26369689662423

   => Energetics <=

    Nuclear Repulsion Energy =             34.2346449889666218
    One-Electron Energy =                -273.5024886549713301
    Two-Electron Energy =                 102.9898150837734363
    DFT Exchange-Correlation Energy =     -13.9856683143929743
    Empirical Dispersion Energy =           0.0000000000000000
    VV10 Nonlocal Energy =                  0.0000000000000000
    Total Energy =                       -150.2636968966242250

  UHF NO Occupations:
  HONO-2 :    1B2u 1.9991331
  HONO-1 :    1B3g 1.0000000
  HONO-0 :    1B2g 1.0000000
  LUNO+0 :    2B2u 0.0008669
  LUNO+1 :    2B3u 0.0008669
  LUNO+2 :    3B1u 0.0006374
  LUNO+3 :    4 Ag 0.0002463


Computation Completed


Properties will be evaluated at   0.000000,   0.000000,   0.000000 [a0]

Properties computed using the SCF density matrix


 Multipole Moments:

 ------------------------------------------------------------------------------------
     Multipole            Electronic (a.u.)      Nuclear  (a.u.)        Total (a.u.)
 ------------------------------------------------------------------------------------

 L = 1.  Multiply by 2.5417464519 to convert [e a0] to [Debye]
 Dipole X            :          0.0000000            0.0000000            0.0000000
 Dipole Y            :          0.0000000            0.0000000            0.0000000
 Dipole Z            :          0.0000000            0.0000000            0.0000000
 Magnitude           :                                                    0.0000000

 ------------------------------------------------------------------------------------

*** tstop() called on Mac.lan at Sun Aug 10 17:01:00 2025
Module time:
	user time   =      12.63 seconds =       0.21 minutes
	system time =       2.25 seconds =       0.04 minutes
	total time  =          1 seconds =       0.02 minutes
Total time:
	user time   =      12.63 seconds =       0.21 minutes
	system time =       2.25 seconds =       0.04 minutes
	total time  =          1 seconds =       0.02 minutes

*** tstart() called on Mac.lan
*** at Sun Aug 10 17:01:00 2025

   => Libint2 <=

    Primary   basis highest AM E, G, H:  6, 6, 3
    Auxiliary basis highest AM E, G, H:  7, 7, 4
    Onebody   basis highest AM E, G, H:  -, -, -
    Solid Harmonics ordering:            Gaussian
   => Loading Basis Set <=

    Name: CC-PVTZ
    Role: ORBITAL
    Keyword: BASIS
    atoms 1-2 entry O          line   262 file /Users/joseantoniorodriguesromero/anaconda3/share/psi4/basis/cc-pvtz.gbs 


         ---------------------------------------------------------
                                   SCF
               by Justin Turney, Rob Parrish, Andy Simmonett
                          and Daniel G. A. Smith
                              UKS Reference
                        1 Threads,    500 MiB Core
         ---------------------------------------------------------

  ==> Geometry <==

    Molecular point group: d2h
    Full point group: D_inf_h

    Geometry (in Angstrom), charge = 0, multiplicity = 3:

       Center              X                  Y                   Z               Mass       
    ------------   -----------------  -----------------  -----------------  -----------------
         O            0.000000000000     0.000000000000    -0.494635500000    15.994914619570
         O            0.000000000000     0.000000000000     0.494635500000    15.994914619570

  Running in d2h symmetry.

  Rotational constants: A = ************  B =      2.15384  C =      2.15384 [cm^-1]
  Rotational constants: A = ************  B =  64570.58374  C =  64570.58374 [MHz]
  Nuclear repulsion =   34.234644988966622

  Charge       = 0
  Multiplicity = 3
  Electrons    = 16
  Nalpha       = 9
  Nbeta        = 7

  ==> Algorithm <==

  SCF Algorithm Type is DF.
  DIIS enabled.
  MOM disabled.
  Fractional occupation disabled.
  Guess Type is READ.
  Energy threshold   = 1.00e-08
  Density threshold  = 1.00e-08
  Integral threshold = 1.00e-12

  ==> Primary Basis <==

  Basis Set: CC-PVTZ
    Blend: CC-PVTZ
    Number of shells: 20
    Number of basis functions: 60
    Number of Cartesian functions: 70
    Spherical Harmonics?: true
    Max angular momentum: 3

  ==> DFT Potential <==

   => LibXC <=

    Version 6.2.2
    S. Lehtola, C. Steigemann, M. J.T. Oliveira, and M. A.L. Marques.,  SoftwareX 7, 1–5 (2018) (10.1016/j.softx.2017.11.002)

   => Composite Functional: B3LYP <= 

    B3LYP Hyb-GGA Exchange-Correlation Functional

    P. J. Stephens, F. J. Devlin, C. F. Chabalowski, and M. J. Frisch.,  J. Phys. Chem. 98, 11623 (1994) (10.1021/j100096a001)

    Deriv               =              1
    GGA                 =           TRUE
    Meta                =          FALSE

    Exchange Hybrid     =           TRUE
    MP2 Hybrid          =          FALSE

   => Exchange Functionals <=

    0.0800   Slater exchange
    0.7200         Becke 88

   => Exact (HF) Exchange <=

    0.2000               HF 

   => Correlation Functionals <=

    0.1900   Vosko, Wilk & Nusair (VWN5_RPA)
    0.8100   Lee, Yang & Parr

   => LibXC Density Thresholds  <==

    XC_HYB_GGA_XC_B3LYP:  1.00E-15 

   => Molecular Quadrature <=

    Radial Scheme          =       TREUTLER
    Pruning Scheme         =           NONE
    Nuclear Scheme         =       TREUTLER

    Blocking Scheme        =         OCTREE
    BS radius alpha        =              1
    Pruning alpha          =              1
    Radial Points          =             75
    Spherical Points       =            302
    Total Points           =          42370
    Total Blocks           =            376
    Max Points             =            256
    Max Functions          =             60
    Weights Tolerance      =       1.00E-15

   => Loading Basis Set <=

    Name: (CC-PVTZ AUX)
    Role: JKFIT
    Keyword: DF_BASIS_SCF
    atoms 1-2 entry O          line   229 file /Users/joseantoniorodriguesromero/anaconda3/share/psi4/basis/cc-pvtz-jkfit.gbs 

   => Loading Basis Set <=

    Name: CC-PVTZ
    Role: ORBITAL
    Keyword: BASIS
    atoms 1-2 entry O          line   262 file /Users/joseantoniorodriguesromero/anaconda3/share/psi4/basis/cc-pvtz.gbs 

  Reading orbitals from file /tmp/scan_OO_13.default.48081.180.npy, no projection.

  ==> Integral Setup <==

  DFHelper Memory: AOs need 0.005 GiB; user supplied 0.296 GiB. 
  Using in-core AOs.

  ==> MemDFJK: Density-Fitted J/K Matrices <==

    J tasked:                   Yes
    K tasked:                   Yes
    wK tasked:                   No
    OpenMP threads:               1
    Memory [MiB]:               303
    Algorithm:                 Core
    Schwarz Cutoff:           1E-12
    Mask sparsity (%):       0.0000
    Fitting Condition:        1E-10

   => Auxiliary Basis Set <=

  Basis Set: (CC-PVTZ AUX)
    Blend: CC-PVTZ-JKFIT
    Number of shells: 50
    Number of basis functions: 158
    Number of Cartesian functions: 192
    Spherical Harmonics?: true
    Max angular momentum: 4

  Cached 100.0% of DFT collocation blocks in 0.070 [GiB].

  Minimum eigenvalue in the overlap matrix is 3.0364001440E-03.
  Reciprocal condition number of the overlap matrix is 8.2705127275E-04.
    Using symmetric orthogonalization.

  ==> Pre-Iterations <==

  SCF Guess: Orbitals guess was supplied from a previous computation.

   -------------------------------------------------------
    Irrep   Nso     Nmo     Nalpha   Nbeta   Ndocc  Nsocc
   -------------------------------------------------------
     Ag        13      13       3       3       3       0
     B1g        3       3       0       0       0       0
     B2g        7       7       1       0       0       1
     B3g        7       7       1       0       0       1
     Au         3       3       0       0       0       0
     B1u       13      13       2       2       2       0
     B2u        7       7       1       1       1       0
     B3u        7       7       1       1       1       0
   -------------------------------------------------------
    Total      60      60       9       7       7       2
   -------------------------------------------------------

  ==> Iterations <==

                           Total Energy        Delta E     RMS |[F,P]|

   @DF-UKS iter   0:  -150.26369689622430   -1.50264e+02   2.63673e-12 
   @DF-UKS iter   1:  -150.26369689622419    1.13687e-13   1.81841e-12 DIIS
  Energy and wave function converged.


  ==> Post-Iterations <==

   Electrons on quadrature grid:
      Nalpha   =    9.0000000251 ; deviation = 2.513e-08
      Nbeta    =    7.0000001175 ; deviation = 1.175e-07
      Ntotal   =   16.0000001427 ; deviation = 1.427e-07 

   @Spin Contamination Metric:   5.270822645E-03
   @S^2 Expected:                2.000000000E+00
   @S^2 Observed:                2.005270823E+00
   @S   Expected:                1.000000000E+00
   @S   Observed:                1.000000000E+00

    Orbital Energies [Eh]
    ---------------------

    Alpha Occupied:                                                       

       1Ag   -19.259570     1B1u  -19.258169     2Ag    -1.518063  
       2B1u   -0.771639     1B3u   -0.664662     1B2u   -0.664662  
       3Ag    -0.589389     1B3g   -0.217771     1B2g   -0.217771  

    Alpha Virtual:                                                        

       3B1u    0.330510     2B3u    0.466743     2B2u    0.466743  
       4Ag     0.514623     2B2g    0.625783     2B3g    0.625783  
       5Ag     0.648982     4B1u    0.780146     6Ag     1.146902  
       1B1g    1.146902     5B1u    1.156237     3B2u    1.442091  
       3B3u    1.442091     1Au     1.695354     6B1u    1.695354  
       7Ag     2.189137     3B3g    2.254439     3B2g    2.254439  
       7B1u    2.367574     4B2u    3.412091     4B3u    3.412091  
       8Ag     3.721482     4B3g    3.853114     4B2g    3.853114  
       8B1u    4.435259     2B1g    4.517319     9Ag     4.517319  
       5B2u    4.712905     5B3u    4.712905     6B3u    4.765212  
       6B2u    4.765212     5B3g    5.280571     5B2g    5.280571  
      10Ag     5.283196     9B1u    5.950572     3B1g    5.986594  
      11Ag     5.986598     2Au     6.138415    10B1u    6.138418  
       6B2g    6.156685     6B3g    6.156685     3Au     6.339386  
      11B1u    6.339387     7B3u    6.708722     7B2u    6.708722  
      12Ag     6.860694    12B1u    7.485855     7B2g    8.200959  
       7B3g    8.200959    13Ag     8.259787    13B1u   19.681077  

    Beta Occupied:                                                        

       1Ag   -19.229966     1B1u  -19.228345     2Ag    -1.473140  
       2B1u   -0.685013     1B3u   -0.569571     1B2u   -0.569571  
       3Ag    -0.542330  

    Beta Virtual:                                                         

       1B2g   -0.023141     1B3g   -0.023141     3B1u    0.347064  
       2B3u    0.495209     2B2u    0.495209     4Ag     0.521973  
       2B2g    0.672920     2B3g    0.672920     5Ag     0.673859  
       4B1u    0.823377     1B1g    1.186435     6Ag     1.186435  
       5B1u    1.189804     3B2u    1.479266     3B3u    1.479266  
       6B1u    1.760447     1Au     1.760448     7Ag     2.214296  
       3B3g    2.294085     3B2g    2.294085     7B1u    2.394315  
       4B2u    3.486215     4B3u    3.486215     8Ag     3.745154  
       4B3g    3.926795     4B2g    3.926795     8B1u    4.478469  
       2B1g    4.552105     9Ag     4.552105     5B2u    4.777493  
       5B3u    4.777493     6B3u    4.799445     6B2u    4.799445  
      10Ag     5.312077     5B3g    5.355978     5B2g    5.355978  
       9B1u    5.988721     3B1g    6.092311    11Ag     6.092316  
       6B2g    6.207702     6B3g    6.207702     2Au     6.239595  
      10B1u    6.239599     3Au     6.396859    11B1u    6.396861  
       7B3u    6.758343     7B2u    6.758343    12Ag     6.913974  
      12B1u    7.519615     7B2g    8.245144     7B3g    8.245144  
      13Ag     8.290973    13B1u   19.722849  

    Final Occupation by Irrep:
             Ag   B1g   B2g   B3g    Au   B1u   B2u   B3u 
    DOCC [     3,    0,    0,    0,    0,    2,    1,    1 ]
    SOCC [     0,    0,    1,    1,    0,    0,    0,    0 ]
    NA   [     3,    0,    1,    1,    0,    2,    1,    1 ]
    NB   [     3,    0,    0,    0,    0,    2,    1,    1 ]

  @DF-UKS Final Energy:  -150.26369689622419

   => Energetics <=

    Nuclear Repulsion Energy =             34.2346449889666218
    One-Electron Energy =                -273.5024886573463618
    Two-Electron Energy =                 102.9898150868037305
    DFT Exchange-Correlation Energy =     -13.9856683146481870
    Empirical Dispersion Energy =           0.0000000000000000
    VV10 Nonlocal Energy =                  0.0000000000000000
    Total Energy =                       -150.2636968962241895

  UHF NO Occupations:
  HONO-2 :    1B3u 1.9991331
  HONO-1 :    1B3g 1.0000000
  HONO-0 :    1B2g 1.0000000
  LUNO+0 :    2B2u 0.0008669
  LUNO+1 :    2B3u 0.0008669
  LUNO+2 :    3B1u 0.0006374
  LUNO+3 :    4 Ag 0.0002463


Computation Completed


Properties will be evaluated at   0.000000,   0.000000,   0.000000 [a0]

Properties computed using the B3LYP density matrix


 Multipole Moments:

 ------------------------------------------------------------------------------------
     Multipole            Electronic (a.u.)      Nuclear  (a.u.)        Total (a.u.)
 ------------------------------------------------------------------------------------

 L = 1.  Multiply by 2.5417464519 to convert [e a0] to [Debye]
 Dipole X            :          0.0000000            0.0000000            0.0000000
 Dipole Y            :          0.0000000            0.0000000            0.0000000
 Dipole Z            :          0.0000000            0.0000000            0.0000000
 Magnitude           :                                                    0.0000000

 L = 2.  Multiply by 1.3450342976 to convert [e a0^2] to [Debye ang]
 Quadrupole XX       :         -7.0427308            0.0000000           -7.0427308
 Quadrupole XY       :          0.0000000            0.0000000            0.0000000
 Quadrupole XZ       :          0.0000000            0.0000000            0.0000000
 Quadrupole YY       :         -7.0427308            0.0000000           -7.0427308
 Quadrupole YZ       :          0.0000000            0.0000000            0.0000000
 Quadrupole ZZ       :        -22.0109097           13.9793920           -8.0315178
 Traceless XX        :          4.9893930           -4.6597973            0.3295957
 Traceless YY        :          4.9893930           -4.6597973            0.3295957
 Traceless ZZ        :         -9.9787860            9.3195946           -0.6591913

 ------------------------------------------------------------------------------------
  ==> Computing MBIS Charges <==

  Electron Count from Grid (Expected Number): 16.00000 (16.00000)
  Difference:  0.00000

  MBIS Charges: (a.u.)
   Center  Symbol  Z      Pop.       Charge
      1       O    8    8.000000   -0.000000
      2       O    8    8.000000   -0.000000

  MBIS Dipoles: [e a0]
   Center  Symbol  Z        X           Y           Z
      1       O    8    0.000000   -0.000000    0.181088
      2       O    8   -0.000000   -0.000000   -0.181088

  MBIS Quadrupoles: [e a0^2]
   Center  Symbol  Z      XX        XY        XZ        YY        YZ        ZZ
      1       O    8   -3.5214    0.0000    0.0000   -3.5214    0.0000   -3.6772
      2       O    8   -3.5214   -0.0000   -0.0000   -3.5214   -0.0000   -3.6772

  MBIS Octupoles: [e a0^3]
   Center  Symbol  Z      XXX       XXY       XXZ       XYY       XYZ       XZZ       YYY       YYZ       YZZ       ZZZ
      1       O    8   -0.0000   -0.0000    0.2558    0.0000   -0.0000   -0.0000   -0.0000    0.2558   -0.0000    0.0876
      2       O    8   -0.0000   -0.0000   -0.2558    0.0000    0.0000    0.0000    0.0000   -0.2558   -0.0000   -0.0876

  MBIS Radial Moments:
   Center  Symbol  Z      [a0^2]      [a0^3]      [a0^4]      
      1       O    8   10.719955   19.685523   43.509335
      2       O    8   10.719955   19.685523   43.509335

  MBIS Valence Widths: [a0]
   Center  Symbol  Z     Width
      1       O    8    0.374988
      2       O    8    0.374988

*** tstop() called on Mac.lan at Sun Aug 10 17:01:01 2025
Module time:
	user time   =       3.86 seconds =       0.06 minutes
	system time =       2.15 seconds =       0.04 minutes
	total time  =          1 seconds =       0.02 minutes
Total time:
	user time   =      16.52 seconds =       0.28 minutes
	system time =       4.56 seconds =       0.08 minutes
	total time  =          2 seconds =       0.03 minutes

    Psi4 stopped on: Sunday, 10 August 2025 05:01PM
    Psi4 wall time for execution: 0:00:02.06

*** Psi4 exiting successfully. Buy a developer a beer!
