
    -----------------------------------------------------------------------
          Psi4: An Open-Source Ab Initio Electronic Structure Package
                               Psi4 1.9.1 release

                         Git: Rev {} zzzzzzz 


    D. G. A. Smith, L. A. Burns, A. C. Simmonett, R. M. Parrish,
    M. C. Schieber, R. Galvelis, P. Kraus, H. Kruse, R. Di Remigio,
    A. Alenaizan, A. M. James, S. Lehtola, J. P. Misiewicz, M. Scheurer,
    R. A. Shaw, J. B. Schriber, Y. Xie, Z. L. Glick, D. A. Sirianni,
    J. S. O'Brien, J. M. Waldrop, A. Kumar, E. G. Hohenstein,
    B. P. Pritchard, B. R. Brooks, H. F. Schaefer III, A. Yu. Sokolov,
    K. Patkowski, A. E. DePrince III, U. Bozkaya, R. A. King,
    F. A. Evangelista, J. M. Turney, T. D. Crawford, C. D. Sherrill,
    J. Chem. Phys. 152(18) 184108 (2020). https://doi.org/10.1063/5.0006002

                            Additional Code Authors
    E. T. Seidl, C. L. Janssen, E. F. Valeev, M. L. Leininger,
    J. F. Gonthier, R. M. Richard, H. R. McAlexander, M. Saitow, X. Wang,
    P. Verma, M. H. Lechner, A. Jiang, S. Behnle, A. G. Heide,
    M. F. Herbst, and D. L. Poole

             Previous Authors, Complete List of Code Contributors,
                       and Citations for Specific Modules
    https://github.com/psi4/psi4/blob/master/codemeta.json
    https://github.com/psi4/psi4/graphs/contributors
    http://psicode.org/psi4manual/master/introduction.html#citing-psifour

    -----------------------------------------------------------------------


    Psi4 started on: Sunday, 10 August 2025 05:08PM

    Process ID: 48337
    Host:       Mac.lan
    PSIDATADIR: /Users/joseantoniorodriguesromero/anaconda3/share/psi4
    Memory:     500.0 MiB
    Threads:    1
    
  ==> Input File <==

--------------------------------------------------------------------------
molecule { 
0 2
C           0.000000           0.000000           0.000000
H           0.000000           0.000000           0.921893
}

set { 
basis              cc-pvtz
reference          uks
maxiter            500
DAMPING_PERCENTAGE 1
E_CONVERGENCE      1.0E-8
D_CONVERGENCE      1.0E-8
DIIS_MAX_VECS      400
MBIS_MAXITER       8000
guess              read
}

E, wfn = energy('b3lyp', restart_file='last_wfn', return_wfn=True)
properties('b3lyp','MBIS_CHARGES', wfn=wfn)
wfn.to_file('last_wfn')
--------------------------------------------------------------------------

Scratch directory: /tmp/
 Found user provided orbital data. Setting orbital guess to READ 
 Copying restart file <last_wfn.npy> to </tmp/scan_HC_13.default.48337.180.npy> for internal processing
   => Libint2 <=

    Primary   basis highest AM E, G, H:  6, 6, 3
    Auxiliary basis highest AM E, G, H:  7, 7, 4
    Onebody   basis highest AM E, G, H:  -, -, -
    Solid Harmonics ordering:            Gaussian

*** tstart() called on Mac.lan
*** at Sun Aug 10 17:08:37 2025

   => Loading Basis Set <=

    Name: CC-PVTZ
    Role: ORBITAL
    Keyword: BASIS
    atoms 1 entry C          line   186 file /Users/joseantoniorodriguesromero/anaconda3/share/psi4/basis/cc-pvtz.gbs 
    atoms 2 entry H          line    23 file /Users/joseantoniorodriguesromero/anaconda3/share/psi4/basis/cc-pvtz.gbs 


         ---------------------------------------------------------
                                   SCF
               by Justin Turney, Rob Parrish, Andy Simmonett
                          and Daniel G. A. Smith
                              UKS Reference
                        1 Threads,    500 MiB Core
         ---------------------------------------------------------

  ==> Geometry <==

    Molecular point group: c2v
    Full point group: C_inf_v

    Geometry (in Angstrom), charge = 0, multiplicity = 2:

       Center              X                  Y                   Z               Mass       
    ------------   -----------------  -----------------  -----------------  -----------------
         C            0.000000000000     0.000000000000    -0.071426763516    12.000000000000
         H            0.000000000000     0.000000000000     0.850466236484     1.007825032230

  Running in c2v symmetry.

  Rotational constants: A = ************  B =     21.33407  C =     21.33407 [cm^-1]
  Rotational constants: A = ************  B = 639579.39532  C = 639579.39532 [MHz]
  Nuclear repulsion =    3.444069175077802

  Charge       = 0
  Multiplicity = 2
  Electrons    = 7
  Nalpha       = 4
  Nbeta        = 3

  ==> Algorithm <==

  SCF Algorithm Type is DF.
  DIIS enabled.
  MOM disabled.
  Fractional occupation disabled.
  Guess Type is READ.
  Energy threshold   = 1.00e-08
  Density threshold  = 1.00e-08
  Integral threshold = 1.00e-12

  ==> Primary Basis <==

  Basis Set: CC-PVTZ
    Blend: CC-PVTZ
    Number of shells: 16
    Number of basis functions: 44
    Number of Cartesian functions: 50
    Spherical Harmonics?: true
    Max angular momentum: 3

  ==> DFT Potential <==

   => LibXC <=

    Version 6.2.2
    S. Lehtola, C. Steigemann, M. J.T. Oliveira, and M. A.L. Marques.,  SoftwareX 7, 1–5 (2018) (10.1016/j.softx.2017.11.002)

   => Composite Functional: B3LYP <= 

    B3LYP Hyb-GGA Exchange-Correlation Functional

    P. J. Stephens, F. J. Devlin, C. F. Chabalowski, and M. J. Frisch.,  J. Phys. Chem. 98, 11623 (1994) (10.1021/j100096a001)

    Deriv               =              1
    GGA                 =           TRUE
    Meta                =          FALSE

    Exchange Hybrid     =           TRUE
    MP2 Hybrid          =          FALSE

   => Exchange Functionals <=

    0.0800   Slater exchange
    0.7200         Becke 88

   => Exact (HF) Exchange <=

    0.2000               HF 

   => Correlation Functionals <=

    0.1900   Vosko, Wilk & Nusair (VWN5_RPA)
    0.8100   Lee, Yang & Parr

   => LibXC Density Thresholds  <==

    XC_HYB_GGA_XC_B3LYP:  1.00E-15 

   => Molecular Quadrature <=

    Radial Scheme          =       TREUTLER
    Pruning Scheme         =           NONE
    Nuclear Scheme         =       TREUTLER

    Blocking Scheme        =         OCTREE
    BS radius alpha        =              1
    Pruning alpha          =              1
    Radial Points          =             75
    Spherical Points       =            302
    Total Points           =          43794
    Total Blocks           =            389
    Max Points             =            255
    Max Functions          =             44
    Weights Tolerance      =       1.00E-15

   => Loading Basis Set <=

    Name: (CC-PVTZ AUX)
    Role: JKFIT
    Keyword: DF_BASIS_SCF
    atoms 1 entry C          line   125 file /Users/joseantoniorodriguesromero/anaconda3/share/psi4/basis/cc-pvtz-jkfit.gbs 
    atoms 2 entry H          line    51 file /Users/joseantoniorodriguesromero/anaconda3/share/psi4/basis/cc-pvtz-jkfit.gbs 

   => Loading Basis Set <=

    Name: CC-PVTZ
    Role: ORBITAL
    Keyword: BASIS
    atoms 1 entry C          line   186 file /Users/joseantoniorodriguesromero/anaconda3/share/psi4/basis/cc-pvtz.gbs 
    atoms 2 entry H          line    23 file /Users/joseantoniorodriguesromero/anaconda3/share/psi4/basis/cc-pvtz.gbs 

  Reading orbitals from file /tmp/scan_HC_13.default.48337.180.npy, no projection.

  ==> Integral Setup <==

  DFHelper Memory: AOs need 0.002 GiB; user supplied 0.311 GiB. 
  Using in-core AOs.

  ==> MemDFJK: Density-Fitted J/K Matrices <==

    J tasked:                   Yes
    K tasked:                   Yes
    wK tasked:                   No
    OpenMP threads:               1
    Memory [MiB]:               318
    Algorithm:                 Core
    Schwarz Cutoff:           1E-12
    Mask sparsity (%):       0.0000
    Fitting Condition:        1E-10

   => Auxiliary Basis Set <=

  Basis Set: (CC-PVTZ AUX)
    Blend: CC-PVTZ-JKFIT
    Number of shells: 35
    Number of basis functions: 109
    Number of Cartesian functions: 131
    Spherical Harmonics?: true
    Max angular momentum: 4

  Cached 100.0% of DFT collocation blocks in 0.056 [GiB].

  Minimum eigenvalue in the overlap matrix is 1.4586257761E-03.
  Reciprocal condition number of the overlap matrix is 3.4395892247E-04.
    Using symmetric orthogonalization.

  ==> Pre-Iterations <==

  SCF Guess: Orbitals guess was supplied from a previous computation.

   -------------------------------------------------------
    Irrep   Nso     Nmo     Nalpha   Nbeta   Ndocc  Nsocc
   -------------------------------------------------------
     A1        20      20       3       3       3       0
     A2         4       4       0       0       0       0
     B1        10      10       1       0       0       1
     B2        10      10       0       0       0       0
   -------------------------------------------------------
    Total      44      44       4       3       3       1
   -------------------------------------------------------

  ==> Iterations <==

                           Total Energy        Delta E     RMS |[F,P]|

   @DF-UKS iter   0:   -38.46336114501967   -3.84634e+01   1.69640e-03 
   @DF-UKS iter   1:   -38.46520354587817   -1.84240e-03   1.86787e-04 ADIIS/DIIS
   @DF-UKS iter   2:   -38.46521213733765   -8.59146e-06   9.52102e-05 DIIS/DAMP=1%
   @DF-UKS iter   3:   -38.46517852463568    3.36127e-05   1.28764e-05 DIIS/DAMP=1%
   @DF-UKS iter   4:   -38.46522077678476   -4.22521e-05   8.35195e-07 DIIS/DAMP=1%
   @DF-UKS iter   5:   -38.46521491084910    5.86594e-06   1.03123e-07 DIIS/DAMP=1%
   @DF-UKS iter   6:   -38.46521509334288   -1.82494e-07   1.72220e-08 DIIS/DAMP=1%
   @DF-UKS iter   7:   -38.46521508421517    9.12771e-09   1.97938e-09 DIIS/DAMP=1%
  Energy and wave function converged.


  ==> Post-Iterations <==

   Electrons on quadrature grid:
      Nalpha   =    4.0000000110 ; deviation = 1.101e-08
      Nbeta    =    3.0000000109 ; deviation = 1.091e-08
      Ntotal   =    7.0000000219 ; deviation = 2.192e-08 

   @Spin Contamination Metric:   2.710281911E-03
   @S^2 Expected:                7.500000000E-01
   @S^2 Observed:                7.527102819E-01
   @S   Expected:                5.000000000E-01
   @S   Observed:                5.000000000E-01

    Orbital Energies [Eh]
    ---------------------

    Alpha Occupied:                                                       

       1A1   -10.257474     2A1    -0.703995     3A1    -0.324224  
       1B1    -0.259034  

    Alpha Virtual:                                                        

       1B2    -0.147707     4A1     0.072416     5A1     0.286587  
       2B1     0.292479     2B2     0.311761     6A1     0.359032  
       7A1     0.524388     3B1     0.597160     3B2     0.601571  
       1A2     0.654682     8A1     0.660527     9A1     0.987352  
       4B1     1.068387     4B2     1.068542    10A1     1.679639  
      11A1     1.921031     5B1     1.940277     5B2     1.965456  
      12A1     2.161921     2A2     2.538334    13A1     2.542038  
       6B1     2.643140     6B2     2.645351     7B1     2.673365  
       7B2     2.681559     3A2     2.900029    14A1     2.910363  
      15A1     3.001457     8B1     3.034876     8B2     3.038179  
      16A1     3.577464     4A2     3.774582    17A1     3.777119  
       9B2     3.910066     9B1     3.912137    18A1     5.119536  
      10B1     5.193306    10B2     5.196036    19A1     5.354770  
      20A1    10.630511  

    Beta Occupied:                                                        

       1A1   -10.243031     2A1    -0.664552     3A1    -0.300509  

    Beta Virtual:                                                         

       1B2    -0.131631     1B1    -0.086019     4A1     0.075583  
       5A1     0.293425     2B2     0.319053     2B1     0.346967  
       6A1     0.373604     7A1     0.537575     3B2     0.604021  
       3B1     0.630133     1A2     0.698209     8A1     0.698223  
       9A1     0.998950     4B2     1.069860     4B1     1.088867  
      10A1     1.696702    11A1     1.932895     5B2     1.977425  
       5B1     2.021251    12A1     2.184149     2A2     2.570403  
      13A1     2.570872     6B2     2.684070     6B1     2.700449  
       7B2     2.701793     7B1     2.721680    14A1     2.965610  
       3A2     2.973710    15A1     3.028660     8B2     3.041705  
       8B1     3.076097    16A1     3.589298     4A2     3.792468  
      17A1     3.793357     9B2     3.908501     9B1     3.923858  
      18A1     5.129052    10B2     5.198016    10B1     5.225887  
      19A1     5.362452    20A1    10.645380  

    Final Occupation by Irrep:
             A1    A2    B1    B2 
    DOCC [     3,    0,    0,    0 ]
    SOCC [     0,    0,    1,    0 ]
    NA   [     3,    0,    1,    0 ]
    NB   [     3,    0,    0,    0 ]

  @DF-UKS Final Energy:   -38.46521508421517

   => Energetics <=

    Nuclear Repulsion Energy =              3.4440691750778023
    One-Electron Energy =                 -57.7347632083709286
    Two-Electron Energy =                  20.4400106682210598
    DFT Exchange-Correlation Energy =      -4.6145317191431099
    Empirical Dispersion Energy =           0.0000000000000000
    VV10 Nonlocal Energy =                  0.0000000000000000
    Total Energy =                        -38.4652150842151812

  UHF NO Occupations:
  HONO-2 :    2 A1 1.9998913
  HONO-1 :    3 A1 1.9987535
  HONO-0 :    1 B1 1.0000000
  LUNO+0 :    4 A1 0.0012465
  LUNO+1 :    5 A1 0.0001087
  LUNO+2 :    6 A1 0.0000007
  LUNO+3 :    7 A1 0.0000000


Computation Completed


Properties will be evaluated at   0.000000,   0.000000,   0.000000 [a0]

Properties computed using the SCF density matrix


 Multipole Moments:

 ------------------------------------------------------------------------------------
     Multipole            Electronic (a.u.)      Nuclear  (a.u.)        Total (a.u.)
 ------------------------------------------------------------------------------------

 L = 1.  Multiply by 2.5417464519 to convert [e a0] to [Debye]
 Dipole X            :          0.0000000            0.0000000            0.0000000
 Dipole Y            :          0.0000000            0.0000000            0.0000000
 Dipole Z            :         -0.0889580            0.7972861            0.7083282
 Magnitude           :                                                    0.7083282

 ------------------------------------------------------------------------------------

*** tstop() called on Mac.lan at Sun Aug 10 17:08:38 2025
Module time:
	user time   =       8.44 seconds =       0.14 minutes
	system time =       1.76 seconds =       0.03 minutes
	total time  =          1 seconds =       0.02 minutes
Total time:
	user time   =       8.44 seconds =       0.14 minutes
	system time =       1.76 seconds =       0.03 minutes
	total time  =          1 seconds =       0.02 minutes

*** tstart() called on Mac.lan
*** at Sun Aug 10 17:08:38 2025

   => Libint2 <=

    Primary   basis highest AM E, G, H:  6, 6, 3
    Auxiliary basis highest AM E, G, H:  7, 7, 4
    Onebody   basis highest AM E, G, H:  -, -, -
    Solid Harmonics ordering:            Gaussian
   => Loading Basis Set <=

    Name: CC-PVTZ
    Role: ORBITAL
    Keyword: BASIS
    atoms 1 entry C          line   186 file /Users/joseantoniorodriguesromero/anaconda3/share/psi4/basis/cc-pvtz.gbs 
    atoms 2 entry H          line    23 file /Users/joseantoniorodriguesromero/anaconda3/share/psi4/basis/cc-pvtz.gbs 


         ---------------------------------------------------------
                                   SCF
               by Justin Turney, Rob Parrish, Andy Simmonett
                          and Daniel G. A. Smith
                              UKS Reference
                        1 Threads,    500 MiB Core
         ---------------------------------------------------------

  ==> Geometry <==

    Molecular point group: c2v
    Full point group: C_inf_v

    Geometry (in Angstrom), charge = 0, multiplicity = 2:

       Center              X                  Y                   Z               Mass       
    ------------   -----------------  -----------------  -----------------  -----------------
         C            0.000000000000     0.000000000000    -0.071426763516    12.000000000000
         H            0.000000000000     0.000000000000     0.850466236484     1.007825032230

  Running in c2v symmetry.

  Rotational constants: A = ************  B =     21.33407  C =     21.33407 [cm^-1]
  Rotational constants: A = ************  B = 639579.39532  C = 639579.39532 [MHz]
  Nuclear repulsion =    3.444069175077802

  Charge       = 0
  Multiplicity = 2
  Electrons    = 7
  Nalpha       = 4
  Nbeta        = 3

  ==> Algorithm <==

  SCF Algorithm Type is DF.
  DIIS enabled.
  MOM disabled.
  Fractional occupation disabled.
  Guess Type is READ.
  Energy threshold   = 1.00e-08
  Density threshold  = 1.00e-08
  Integral threshold = 1.00e-12

  ==> Primary Basis <==

  Basis Set: CC-PVTZ
    Blend: CC-PVTZ
    Number of shells: 16
    Number of basis functions: 44
    Number of Cartesian functions: 50
    Spherical Harmonics?: true
    Max angular momentum: 3

  ==> DFT Potential <==

   => LibXC <=

    Version 6.2.2
    S. Lehtola, C. Steigemann, M. J.T. Oliveira, and M. A.L. Marques.,  SoftwareX 7, 1–5 (2018) (10.1016/j.softx.2017.11.002)

   => Composite Functional: B3LYP <= 

    B3LYP Hyb-GGA Exchange-Correlation Functional

    P. J. Stephens, F. J. Devlin, C. F. Chabalowski, and M. J. Frisch.,  J. Phys. Chem. 98, 11623 (1994) (10.1021/j100096a001)

    Deriv               =              1
    GGA                 =           TRUE
    Meta                =          FALSE

    Exchange Hybrid     =           TRUE
    MP2 Hybrid          =          FALSE

   => Exchange Functionals <=

    0.0800   Slater exchange
    0.7200         Becke 88

   => Exact (HF) Exchange <=

    0.2000               HF 

   => Correlation Functionals <=

    0.1900   Vosko, Wilk & Nusair (VWN5_RPA)
    0.8100   Lee, Yang & Parr

   => LibXC Density Thresholds  <==

    XC_HYB_GGA_XC_B3LYP:  1.00E-15 

   => Molecular Quadrature <=

    Radial Scheme          =       TREUTLER
    Pruning Scheme         =           NONE
    Nuclear Scheme         =       TREUTLER

    Blocking Scheme        =         OCTREE
    BS radius alpha        =              1
    Pruning alpha          =              1
    Radial Points          =             75
    Spherical Points       =            302
    Total Points           =          43794
    Total Blocks           =            389
    Max Points             =            255
    Max Functions          =             44
    Weights Tolerance      =       1.00E-15

   => Loading Basis Set <=

    Name: (CC-PVTZ AUX)
    Role: JKFIT
    Keyword: DF_BASIS_SCF
    atoms 1 entry C          line   125 file /Users/joseantoniorodriguesromero/anaconda3/share/psi4/basis/cc-pvtz-jkfit.gbs 
    atoms 2 entry H          line    51 file /Users/joseantoniorodriguesromero/anaconda3/share/psi4/basis/cc-pvtz-jkfit.gbs 

   => Loading Basis Set <=

    Name: CC-PVTZ
    Role: ORBITAL
    Keyword: BASIS
    atoms 1 entry C          line   186 file /Users/joseantoniorodriguesromero/anaconda3/share/psi4/basis/cc-pvtz.gbs 
    atoms 2 entry H          line    23 file /Users/joseantoniorodriguesromero/anaconda3/share/psi4/basis/cc-pvtz.gbs 

  Reading orbitals from file /tmp/scan_HC_13.default.48337.180.npy, no projection.

  ==> Integral Setup <==

  DFHelper Memory: AOs need 0.002 GiB; user supplied 0.311 GiB. 
  Using in-core AOs.

  ==> MemDFJK: Density-Fitted J/K Matrices <==

    J tasked:                   Yes
    K tasked:                   Yes
    wK tasked:                   No
    OpenMP threads:               1
    Memory [MiB]:               318
    Algorithm:                 Core
    Schwarz Cutoff:           1E-12
    Mask sparsity (%):       0.0000
    Fitting Condition:        1E-10

   => Auxiliary Basis Set <=

  Basis Set: (CC-PVTZ AUX)
    Blend: CC-PVTZ-JKFIT
    Number of shells: 35
    Number of basis functions: 109
    Number of Cartesian functions: 131
    Spherical Harmonics?: true
    Max angular momentum: 4

  Cached 100.0% of DFT collocation blocks in 0.056 [GiB].

  Minimum eigenvalue in the overlap matrix is 1.4586257761E-03.
  Reciprocal condition number of the overlap matrix is 3.4395892247E-04.
    Using symmetric orthogonalization.

  ==> Pre-Iterations <==

  SCF Guess: Orbitals guess was supplied from a previous computation.

   -------------------------------------------------------
    Irrep   Nso     Nmo     Nalpha   Nbeta   Ndocc  Nsocc
   -------------------------------------------------------
     A1        20      20       3       3       3       0
     A2         4       4       0       0       0       0
     B1        10      10       1       0       0       1
     B2        10      10       0       0       0       0
   -------------------------------------------------------
    Total      44      44       4       3       3       1
   -------------------------------------------------------

  ==> Iterations <==

                           Total Energy        Delta E     RMS |[F,P]|

   @DF-UKS iter   0:   -38.46521508765773   -3.84652e+01   2.97937e-10 
   @DF-UKS iter   1:   -38.46521508765770    2.13163e-14   1.16723e-10 DIIS
  Energy and wave function converged.


  ==> Post-Iterations <==

   Electrons on quadrature grid:
      Nalpha   =    4.0000000110 ; deviation = 1.101e-08
      Nbeta    =    3.0000000109 ; deviation = 1.091e-08
      Ntotal   =    7.0000000219 ; deviation = 2.192e-08 

   @Spin Contamination Metric:   2.710281966E-03
   @S^2 Expected:                7.500000000E-01
   @S^2 Observed:                7.527102820E-01
   @S   Expected:                5.000000000E-01
   @S   Observed:                5.000000000E-01

    Orbital Energies [Eh]
    ---------------------

    Alpha Occupied:                                                       

       1A1   -10.257474     2A1    -0.703995     3A1    -0.324224  
       1B1    -0.259034  

    Alpha Virtual:                                                        

       1B2    -0.147707     4A1     0.072416     5A1     0.286587  
       2B1     0.292479     2B2     0.311761     6A1     0.359032  
       7A1     0.524388     3B1     0.597160     3B2     0.601571  
       1A2     0.654682     8A1     0.660527     9A1     0.987352  
       4B1     1.068387     4B2     1.068542    10A1     1.679639  
      11A1     1.921031     5B1     1.940277     5B2     1.965456  
      12A1     2.161921     2A2     2.538334    13A1     2.542038  
       6B1     2.643140     6B2     2.645351     7B1     2.673365  
       7B2     2.681559     3A2     2.900029    14A1     2.910363  
      15A1     3.001457     8B1     3.034876     8B2     3.038179  
      16A1     3.577464     4A2     3.774582    17A1     3.777119  
       9B2     3.910066     9B1     3.912137    18A1     5.119536  
      10B1     5.193306    10B2     5.196036    19A1     5.354770  
      20A1    10.630511  

    Beta Occupied:                                                        

       1A1   -10.243031     2A1    -0.664552     3A1    -0.300509  

    Beta Virtual:                                                         

       1B2    -0.131631     1B1    -0.086019     4A1     0.075583  
       5A1     0.293425     2B2     0.319053     2B1     0.346967  
       6A1     0.373604     7A1     0.537575     3B2     0.604021  
       3B1     0.630133     1A2     0.698209     8A1     0.698223  
       9A1     0.998950     4B2     1.069860     4B1     1.088867  
      10A1     1.696702    11A1     1.932895     5B2     1.977425  
       5B1     2.021251    12A1     2.184149     2A2     2.570403  
      13A1     2.570872     6B2     2.684070     6B1     2.700449  
       7B2     2.701793     7B1     2.721680    14A1     2.965610  
       3A2     2.973710    15A1     3.028660     8B2     3.041705  
       8B1     3.076097    16A1     3.589298     4A2     3.792468  
      17A1     3.793357     9B2     3.908501     9B1     3.923858  
      18A1     5.129052    10B2     5.198016    10B1     5.225887  
      19A1     5.362452    20A1    10.645380  

    Final Occupation by Irrep:
             A1    A2    B1    B2 
    DOCC [     3,    0,    0,    0 ]
    SOCC [     0,    0,    1,    0 ]
    NA   [     3,    0,    1,    0 ]
    NB   [     3,    0,    0,    0 ]

  @DF-UKS Final Energy:   -38.46521508765770

   => Energetics <=

    Nuclear Repulsion Energy =              3.4440691750778023
    One-Electron Energy =                 -57.7347631904655429
    Two-Electron Energy =                  20.4400106418936183
    DFT Exchange-Correlation Energy =      -4.6145317141635855
    Empirical Dispersion Energy =           0.0000000000000000
    VV10 Nonlocal Energy =                  0.0000000000000000
    Total Energy =                        -38.4652150876577039

  UHF NO Occupations:
  HONO-2 :    2 A1 1.9998913
  HONO-1 :    3 A1 1.9987535
  HONO-0 :    1 B1 1.0000000
  LUNO+0 :    4 A1 0.0012465
  LUNO+1 :    5 A1 0.0001087
  LUNO+2 :    6 A1 0.0000007
  LUNO+3 :    7 A1 0.0000000


Computation Completed


Properties will be evaluated at   0.000000,   0.000000,   0.000000 [a0]

Properties computed using the B3LYP density matrix


 Multipole Moments:

 ------------------------------------------------------------------------------------
     Multipole            Electronic (a.u.)      Nuclear  (a.u.)        Total (a.u.)
 ------------------------------------------------------------------------------------

 L = 1.  Multiply by 2.5417464519 to convert [e a0] to [Debye]
 Dipole X            :          0.0000000            0.0000000            0.0000000
 Dipole Y            :          0.0000000            0.0000000            0.0000000
 Dipole Z            :         -0.0889580            0.7972861            0.7083282
 Magnitude           :                                                    0.7083282

 L = 2.  Multiply by 1.3450342976 to convert [e a0^2] to [Debye ang]
 Quadrupole XX       :         -5.5560200            0.0000000           -5.5560200
 Quadrupole XY       :          0.0000000            0.0000000            0.0000000
 Quadrupole XZ       :          0.0000000            0.0000000            0.0000000
 Quadrupole YY       :         -4.0560621            0.0000000           -4.0560621
 Quadrupole YZ       :          0.0000000            0.0000000            0.0000000
 Quadrupole ZZ       :         -8.1639881            2.6922383           -5.4717498
 Traceless XX        :          0.3693368           -0.8974128           -0.5280760
 Traceless YY        :          1.8692946           -0.8974128            0.9718819
 Traceless ZZ        :         -2.2386314            1.7948256           -0.4438059

 ------------------------------------------------------------------------------------
  ==> Computing MBIS Charges <==

  Electron Count from Grid (Expected Number):  7.00000 ( 7.00000)
  Difference:  0.00000

  MBIS Charges: (a.u.)
   Center  Symbol  Z      Pop.       Charge
      1       C    6    6.135108   -0.135108
      2       H    1    0.864892    0.135108

  MBIS Dipoles: [e a0]
   Center  Symbol  Z        X           Y           Z
      1       C    6   -0.000000   -0.000000    0.434739
      2       H    1   -0.000000    0.000000    0.038214

  MBIS Quadrupoles: [e a0^2]
   Center  Symbol  Z      XX        XY        XZ        YY        YZ        ZZ
      1       C    6   -5.1617    0.0000    0.0000   -3.7173   -0.0000   -5.4418
      2       H    1   -0.3943   -0.0000   -0.0000   -0.3388    0.0000   -0.3819

  MBIS Octupoles: [e a0^3]
   Center  Symbol  Z      XXX       XXY       XXZ       XYY       XYZ       XZZ       YYY       YYZ       YZZ       ZZZ
      1       C    6    0.0000    0.0000    0.6680    0.0000   -0.0000    0.0000    0.0000    0.7522    0.0000    1.4746
      2       H    1    0.0000    0.0000    0.0089    0.0000   -0.0000    0.0000   -0.0000   -0.0109   -0.0000   -0.0049

  MBIS Radial Moments:
   Center  Symbol  Z      [a0^2]      [a0^3]      [a0^4]      
      1       C    6   14.320771   35.651869   105.719496
      2       H    1    1.115045    1.796344    3.479665

  MBIS Valence Widths: [a0]
   Center  Symbol  Z     Width
      1       C    6    0.521028
      2       H    1    0.331517

*** tstop() called on Mac.lan at Sun Aug 10 17:08:39 2025
Module time:
	user time   =       2.59 seconds =       0.04 minutes
	system time =       2.19 seconds =       0.04 minutes
	total time  =          1 seconds =       0.02 minutes
Total time:
	user time   =      11.12 seconds =       0.19 minutes
	system time =       4.10 seconds =       0.07 minutes
	total time  =          2 seconds =       0.03 minutes

    Psi4 stopped on: Sunday, 10 August 2025 05:08PM
    Psi4 wall time for execution: 0:00:01.50

*** Psi4 exiting successfully. Buy a developer a beer!
