
    -----------------------------------------------------------------------
          Psi4: An Open-Source Ab Initio Electronic Structure Package
                               Psi4 1.9.1 release

                         Git: Rev {} zzzzzzz 


    D. G. A. Smith, L. A. Burns, A. C. Simmonett, R. M. Parrish,
    M. C. Schieber, R. Galvelis, P. Kraus, H. Kruse, R. Di Remigio,
    A. Alenaizan, A. M. James, S. Lehtola, J. P. Misiewicz, M. Scheurer,
    R. A. Shaw, J. B. Schriber, Y. Xie, Z. L. Glick, D. A. Sirianni,
    J. S. O'Brien, J. M. Waldrop, A. Kumar, E. G. Hohenstein,
    B. P. Pritchard, B. R. Brooks, H. F. Schaefer III, A. Yu. Sokolov,
    K. Patkowski, A. E. DePrince III, U. Bozkaya, R. A. King,
    F. A. Evangelista, J. M. Turney, T. D. Crawford, C. D. Sherrill,
    J. Chem. Phys. 152(18) 184108 (2020). https://doi.org/10.1063/5.0006002

                            Additional Code Authors
    E. T. Seidl, C. L. Janssen, E. F. Valeev, M. L. Leininger,
    J. F. Gonthier, R. M. Richard, H. R. McAlexander, M. Saitow, X. Wang,
    P. Verma, M. H. Lechner, A. Jiang, S. Behnle, A. G. Heide,
    M. F. Herbst, and D. L. Poole

             Previous Authors, Complete List of Code Contributors,
                       and Citations for Specific Modules
    https://github.com/psi4/psi4/blob/master/codemeta.json
    https://github.com/psi4/psi4/graphs/contributors
    http://psicode.org/psi4manual/master/introduction.html#citing-psifour

    -----------------------------------------------------------------------


    Psi4 started on: Sunday, 10 August 2025 05:06PM

    Process ID: 48277
    Host:       Mac.lan
    PSIDATADIR: /Users/joseantoniorodriguesromero/anaconda3/share/psi4
    Memory:     500.0 MiB
    Threads:    1
    
  ==> Input File <==

--------------------------------------------------------------------------
molecule { 
0 1
N           0.000000           0.000000           0.000000
N           0.000000           0.000000           1.316274
}

set { 
basis              cc-pvtz
reference          uks
maxiter            500
DAMPING_PERCENTAGE 1
E_CONVERGENCE      1.0E-8
D_CONVERGENCE      1.0E-8
DIIS_MAX_VECS      400
MBIS_MAXITER       8000
guess              read
}

E, wfn = energy('b3lyp', restart_file='last_wfn', return_wfn=True)
properties('b3lyp','MBIS_CHARGES', wfn=wfn)
wfn.to_file('last_wfn')
--------------------------------------------------------------------------

Scratch directory: /tmp/
 Found user provided orbital data. Setting orbital guess to READ 
 Copying restart file <last_wfn.npy> to </tmp/scan_NN_34.default.48277.180.npy> for internal processing
   => Libint2 <=

    Primary   basis highest AM E, G, H:  6, 6, 3
    Auxiliary basis highest AM E, G, H:  7, 7, 4
    Onebody   basis highest AM E, G, H:  -, -, -
    Solid Harmonics ordering:            Gaussian

*** tstart() called on Mac.lan
*** at Sun Aug 10 17:06:53 2025

   => Loading Basis Set <=

    Name: CC-PVTZ
    Role: ORBITAL
    Keyword: BASIS
    atoms 1-2 entry N          line   224 file /Users/joseantoniorodriguesromero/anaconda3/share/psi4/basis/cc-pvtz.gbs 


         ---------------------------------------------------------
                                   SCF
               by Justin Turney, Rob Parrish, Andy Simmonett
                          and Daniel G. A. Smith
                              UKS Reference
                        1 Threads,    500 MiB Core
         ---------------------------------------------------------

  ==> Geometry <==

    Molecular point group: d2h
    Full point group: D_inf_h

    Geometry (in Angstrom), charge = 0, multiplicity = 1:

       Center              X                  Y                   Z               Mass       
    ------------   -----------------  -----------------  -----------------  -----------------
         N            0.000000000000     0.000000000000    -0.658137000000    14.003074004430
         N            0.000000000000     0.000000000000     0.658137000000    14.003074004430

  Running in d2h symmetry.

  Rotational constants: A = ************  B =      1.38967  C =      1.38967 [cm^-1]
  Rotational constants: A = ************  B =  41661.14533  C =  41661.14533 [MHz]
  Nuclear repulsion =   19.699305253184367

  Charge       = 0
  Multiplicity = 1
  Electrons    = 14
  Nalpha       = 7
  Nbeta        = 7

  ==> Algorithm <==

  SCF Algorithm Type is DF.
  DIIS enabled.
  MOM disabled.
  Fractional occupation disabled.
  Guess Type is READ.
  Energy threshold   = 1.00e-08
  Density threshold  = 1.00e-08
  Integral threshold = 1.00e-12

  ==> Primary Basis <==

  Basis Set: CC-PVTZ
    Blend: CC-PVTZ
    Number of shells: 20
    Number of basis functions: 60
    Number of Cartesian functions: 70
    Spherical Harmonics?: true
    Max angular momentum: 3

  ==> DFT Potential <==

   => LibXC <=

    Version 6.2.2
    S. Lehtola, C. Steigemann, M. J.T. Oliveira, and M. A.L. Marques.,  SoftwareX 7, 1–5 (2018) (10.1016/j.softx.2017.11.002)

   => Composite Functional: B3LYP <= 

    B3LYP Hyb-GGA Exchange-Correlation Functional

    P. J. Stephens, F. J. Devlin, C. F. Chabalowski, and M. J. Frisch.,  J. Phys. Chem. 98, 11623 (1994) (10.1021/j100096a001)

    Deriv               =              1
    GGA                 =           TRUE
    Meta                =          FALSE

    Exchange Hybrid     =           TRUE
    MP2 Hybrid          =          FALSE

   => Exchange Functionals <=

    0.0800   Slater exchange
    0.7200         Becke 88

   => Exact (HF) Exchange <=

    0.2000               HF 

   => Correlation Functionals <=

    0.1900   Vosko, Wilk & Nusair (VWN5_RPA)
    0.8100   Lee, Yang & Parr

   => LibXC Density Thresholds  <==

    XC_HYB_GGA_XC_B3LYP:  1.00E-15 

   => Molecular Quadrature <=

    Radial Scheme          =       TREUTLER
    Pruning Scheme         =           NONE
    Nuclear Scheme         =       TREUTLER

    Blocking Scheme        =         OCTREE
    BS radius alpha        =              1
    Pruning alpha          =              1
    Radial Points          =             75
    Spherical Points       =            302
    Total Points           =          42480
    Total Blocks           =            382
    Max Points             =            256
    Max Functions          =             60
    Weights Tolerance      =       1.00E-15

   => Loading Basis Set <=

    Name: (CC-PVTZ AUX)
    Role: JKFIT
    Keyword: DF_BASIS_SCF
    atoms 1-2 entry N          line   177 file /Users/joseantoniorodriguesromero/anaconda3/share/psi4/basis/cc-pvtz-jkfit.gbs 

   => Loading Basis Set <=

    Name: CC-PVTZ
    Role: ORBITAL
    Keyword: BASIS
    atoms 1-2 entry N          line   224 file /Users/joseantoniorodriguesromero/anaconda3/share/psi4/basis/cc-pvtz.gbs 

  Reading orbitals from file /tmp/scan_NN_34.default.48277.180.npy, no projection.

  ==> Integral Setup <==

  DFHelper Memory: AOs need 0.005 GiB; user supplied 0.295 GiB. 
  Using in-core AOs.

  ==> MemDFJK: Density-Fitted J/K Matrices <==

    J tasked:                   Yes
    K tasked:                   Yes
    wK tasked:                   No
    OpenMP threads:               1
    Memory [MiB]:               302
    Algorithm:                 Core
    Schwarz Cutoff:           1E-12
    Mask sparsity (%):       0.0000
    Fitting Condition:        1E-10

   => Auxiliary Basis Set <=

  Basis Set: (CC-PVTZ AUX)
    Blend: CC-PVTZ-JKFIT
    Number of shells: 50
    Number of basis functions: 158
    Number of Cartesian functions: 192
    Spherical Harmonics?: true
    Max angular momentum: 4

  Cached 100.0% of DFT collocation blocks in 0.071 [GiB].

  Minimum eigenvalue in the overlap matrix is 5.0994311069E-03.
  Reciprocal condition number of the overlap matrix is 1.4731505064E-03.
    Using symmetric orthogonalization.

  ==> Pre-Iterations <==

  SCF Guess: Orbitals guess was supplied from a previous computation.

   -------------------------------------------------------
    Irrep   Nso     Nmo     Nalpha   Nbeta   Ndocc  Nsocc
   -------------------------------------------------------
     Ag        13      13       3       3       3       0
     B1g        3       3       0       0       0       0
     B2g        7       7       0       0       0       0
     B3g        7       7       0       0       0       0
     Au         3       3       0       0       0       0
     B1u       13      13       2       2       2       0
     B2u        7       7       1       1       1       0
     B3u        7       7       1       1       1       0
   -------------------------------------------------------
    Total      60      60       7       7       7       0
   -------------------------------------------------------

  ==> Iterations <==

                           Total Energy        Delta E     RMS |[F,P]|

   @DF-UKS iter   0:  -109.46272481780503   -1.09463e+02   2.53254e-03 
   @DF-UKS iter   1:  -109.48128331844384   -1.85585e-02   6.26954e-04 ADIIS/DIIS
   @DF-UKS iter   2:  -109.48134361187088   -6.02934e-05   4.28365e-04 ADIIS/DIIS/DAMP=1%
   @DF-UKS iter   3:  -109.48112147273078    2.22139e-04   2.53429e-05 DIIS/DAMP=1%
   @DF-UKS iter   4:  -109.48139451915863   -2.73046e-04   5.79032e-06 DIIS/DAMP=1%
   @DF-UKS iter   5:  -109.48138223448822    1.22847e-05   1.71589e-07 DIIS/DAMP=1%
   @DF-UKS iter   6:  -109.48138594255926   -3.70807e-06   1.95610e-08 DIIS/DAMP=1%
   @DF-UKS iter   7:  -109.48138599949232   -5.69331e-08   4.91339e-10 DIIS/DAMP=1%
   @DF-UKS iter   8:  -109.48138600768281   -8.19050e-09   4.60834e-11 DIIS/DAMP=1%
  Energy and wave function converged.


  ==> Post-Iterations <==

   Electrons on quadrature grid:
      Nalpha   =    7.0000003737 ; deviation = 3.737e-07
      Nbeta    =    7.0000003737 ; deviation = 3.737e-07
      Ntotal   =   14.0000007473 ; deviation = 7.473e-07 

   @Spin Contamination Metric:   8.881784197E-15
   @S^2 Expected:                0.000000000E+00
   @S^2 Observed:                8.881784197E-15
   @S   Expected:                0.000000000E+00
   @S   Observed:                0.000000000E+00

    Orbital Energies [Eh]
    ---------------------

    Alpha Occupied:                                                       

       1Ag   -14.471046     1B1u  -14.470646     2Ag    -1.009041  
       2B1u   -0.611262     3Ag    -0.422813     1B3u   -0.411702  
       1B2u   -0.411702  

    Alpha Virtual:                                                        

       1B2g   -0.111942     1B3g   -0.111942     3B1u    0.214724  
       2B3u    0.410419     2B2u    0.410419     4Ag     0.432808  
       4B1u    0.450010     5Ag     0.483004     2B2g    0.511727  
       2B3g    0.511727     1B1g    0.856940     6Ag     0.856940  
       5B1u    0.858388     3B3u    0.974332     3B2u    0.974332  
       1Au     1.191793     6B1u    1.191793     7Ag     1.619727  
       3B2g    1.620046     3B3g    1.620046     7B1u    1.653929  
       4B3u    2.706377     4B2u    2.706377     8Ag     2.835475  
       4B3g    2.928585     4B2g    2.928585     2B1g    3.458940  
       9Ag     3.458941     5B3u    3.506188     5B2u    3.506188  
       8B1u    3.581060    10Ag     3.692229     6B3u    3.706683  
       6B2u    3.706683     5B3g    3.943038     5B2g    3.943038  
       9B1u    4.265816    11Ag     4.328339     3B1g    4.328342  
      10B1u    4.347087     2Au     4.347088     6B2g    4.575176  
       6B3g    4.575176    11B1u    4.585031     3Au     4.585032  
       7B3u    4.703012     7B2u    4.703012    12B1u    5.081257  
      12Ag     5.297563    13Ag     5.567577     7B2g    5.611616  
       7B3g    5.611616    13B1u   10.136448  

    Beta Occupied:                                                        

       1Ag   -14.471046     1B1u  -14.470646     2Ag    -1.009041  
       2B1u   -0.611262     3Ag    -0.422813     1B3u   -0.411702  
       1B2u   -0.411702  

    Beta Virtual:                                                         

       1B2g   -0.111942     1B3g   -0.111942     3B1u    0.214724  
       2B3u    0.410419     2B2u    0.410419     4Ag     0.432808  
       4B1u    0.450010     5Ag     0.483004     2B2g    0.511727  
       2B3g    0.511727     1B1g    0.856940     6Ag     0.856940  
       5B1u    0.858388     3B3u    0.974332     3B2u    0.974332  
       1Au     1.191793     6B1u    1.191793     7Ag     1.619727  
       3B2g    1.620046     3B3g    1.620046     7B1u    1.653929  
       4B3u    2.706377     4B2u    2.706377     8Ag     2.835475  
       4B3g    2.928585     4B2g    2.928585     2B1g    3.458940  
       9Ag     3.458941     5B3u    3.506188     5B2u    3.506188  
       8B1u    3.581060    10Ag     3.692229     6B2u    3.706683  
       6B3u    3.706683     5B3g    3.943038     5B2g    3.943038  
       9B1u    4.265816    11Ag     4.328339     3B1g    4.328342  
      10B1u    4.347087     2Au     4.347088     6B2g    4.575176  
       6B3g    4.575176    11B1u    4.585031     3Au     4.585032  
       7B3u    4.703012     7B2u    4.703012    12B1u    5.081257  
      12Ag     5.297563    13Ag     5.567577     7B2g    5.611616  
       7B3g    5.611616    13B1u   10.136448  

    Final Occupation by Irrep:
             Ag   B1g   B2g   B3g    Au   B1u   B2u   B3u 
    DOCC [     3,    0,    0,    0,    0,    2,    1,    1 ]
    SOCC [     0,    0,    0,    0,    0,    0,    0,    0 ]
    NA   [     3,    0,    0,    0,    0,    2,    1,    1 ]
    NB   [     3,    0,    0,    0,    0,    2,    1,    1 ]

  @DF-UKS Final Energy:  -109.48138600768281

   => Energetics <=

    Nuclear Repulsion Energy =             19.6993052531843666
    One-Electron Energy =                -186.8917415849840893
    Two-Electron Energy =                  68.6180003068580930
    DFT Exchange-Correlation Energy =     -10.9069499827411924
    Empirical Dispersion Energy =           0.0000000000000000
    VV10 Nonlocal Energy =                  0.0000000000000000
    Total Energy =                       -109.4813860076828149

  UHF NO Occupations:
  HONO-2 :    1B2u 2.0000000
  HONO-1 :    2B1u 2.0000000
  HONO-0 :    1B3u 2.0000000
  LUNO+0 :    3B1u 0.0000000
  LUNO+1 :    4 Ag 0.0000000
  LUNO+2 :    4B1u 0.0000000
  LUNO+3 :    2B2u 0.0000000


Computation Completed


Properties will be evaluated at   0.000000,   0.000000,   0.000000 [a0]

Properties computed using the SCF density matrix


 Multipole Moments:

 ------------------------------------------------------------------------------------
     Multipole            Electronic (a.u.)      Nuclear  (a.u.)        Total (a.u.)
 ------------------------------------------------------------------------------------

 L = 1.  Multiply by 2.5417464519 to convert [e a0] to [Debye]
 Dipole X            :          0.0000000            0.0000000            0.0000000
 Dipole Y            :          0.0000000            0.0000000            0.0000000
 Dipole Z            :          0.0000000           -0.0000000           -0.0000000
 Magnitude           :                                                    0.0000000

 ------------------------------------------------------------------------------------

*** tstop() called on Mac.lan at Sun Aug 10 17:07:03 2025
Module time:
	user time   =      41.13 seconds =       0.69 minutes
	system time =       3.56 seconds =       0.06 minutes
	total time  =         10 seconds =       0.17 minutes
Total time:
	user time   =      41.13 seconds =       0.69 minutes
	system time =       3.56 seconds =       0.06 minutes
	total time  =         10 seconds =       0.17 minutes

*** tstart() called on Mac.lan
*** at Sun Aug 10 17:07:03 2025

   => Libint2 <=

    Primary   basis highest AM E, G, H:  6, 6, 3
    Auxiliary basis highest AM E, G, H:  7, 7, 4
    Onebody   basis highest AM E, G, H:  -, -, -
    Solid Harmonics ordering:            Gaussian
   => Loading Basis Set <=

    Name: CC-PVTZ
    Role: ORBITAL
    Keyword: BASIS
    atoms 1-2 entry N          line   224 file /Users/joseantoniorodriguesromero/anaconda3/share/psi4/basis/cc-pvtz.gbs 


         ---------------------------------------------------------
                                   SCF
               by Justin Turney, Rob Parrish, Andy Simmonett
                          and Daniel G. A. Smith
                              UKS Reference
                        1 Threads,    500 MiB Core
         ---------------------------------------------------------

  ==> Geometry <==

    Molecular point group: d2h
    Full point group: D_inf_h

    Geometry (in Angstrom), charge = 0, multiplicity = 1:

       Center              X                  Y                   Z               Mass       
    ------------   -----------------  -----------------  -----------------  -----------------
         N            0.000000000000     0.000000000000    -0.658137000000    14.003074004430
         N            0.000000000000     0.000000000000     0.658137000000    14.003074004430

  Running in d2h symmetry.

  Rotational constants: A = ************  B =      1.38967  C =      1.38967 [cm^-1]
  Rotational constants: A = ************  B =  41661.14533  C =  41661.14533 [MHz]
  Nuclear repulsion =   19.699305253184367

  Charge       = 0
  Multiplicity = 1
  Electrons    = 14
  Nalpha       = 7
  Nbeta        = 7

  ==> Algorithm <==

  SCF Algorithm Type is DF.
  DIIS enabled.
  MOM disabled.
  Fractional occupation disabled.
  Guess Type is READ.
  Energy threshold   = 1.00e-08
  Density threshold  = 1.00e-08
  Integral threshold = 1.00e-12

  ==> Primary Basis <==

  Basis Set: CC-PVTZ
    Blend: CC-PVTZ
    Number of shells: 20
    Number of basis functions: 60
    Number of Cartesian functions: 70
    Spherical Harmonics?: true
    Max angular momentum: 3

  ==> DFT Potential <==

   => LibXC <=

    Version 6.2.2
    S. Lehtola, C. Steigemann, M. J.T. Oliveira, and M. A.L. Marques.,  SoftwareX 7, 1–5 (2018) (10.1016/j.softx.2017.11.002)

   => Composite Functional: B3LYP <= 

    B3LYP Hyb-GGA Exchange-Correlation Functional

    P. J. Stephens, F. J. Devlin, C. F. Chabalowski, and M. J. Frisch.,  J. Phys. Chem. 98, 11623 (1994) (10.1021/j100096a001)

    Deriv               =              1
    GGA                 =           TRUE
    Meta                =          FALSE

    Exchange Hybrid     =           TRUE
    MP2 Hybrid          =          FALSE

   => Exchange Functionals <=

    0.0800   Slater exchange
    0.7200         Becke 88

   => Exact (HF) Exchange <=

    0.2000               HF 

   => Correlation Functionals <=

    0.1900   Vosko, Wilk & Nusair (VWN5_RPA)
    0.8100   Lee, Yang & Parr

   => LibXC Density Thresholds  <==

    XC_HYB_GGA_XC_B3LYP:  1.00E-15 

   => Molecular Quadrature <=

    Radial Scheme          =       TREUTLER
    Pruning Scheme         =           NONE
    Nuclear Scheme         =       TREUTLER

    Blocking Scheme        =         OCTREE
    BS radius alpha        =              1
    Pruning alpha          =              1
    Radial Points          =             75
    Spherical Points       =            302
    Total Points           =          42480
    Total Blocks           =            382
    Max Points             =            256
    Max Functions          =             60
    Weights Tolerance      =       1.00E-15

   => Loading Basis Set <=

    Name: (CC-PVTZ AUX)
    Role: JKFIT
    Keyword: DF_BASIS_SCF
    atoms 1-2 entry N          line   177 file /Users/joseantoniorodriguesromero/anaconda3/share/psi4/basis/cc-pvtz-jkfit.gbs 

   => Loading Basis Set <=

    Name: CC-PVTZ
    Role: ORBITAL
    Keyword: BASIS
    atoms 1-2 entry N          line   224 file /Users/joseantoniorodriguesromero/anaconda3/share/psi4/basis/cc-pvtz.gbs 

  Reading orbitals from file /tmp/scan_NN_34.default.48277.180.npy, no projection.

  ==> Integral Setup <==

  DFHelper Memory: AOs need 0.005 GiB; user supplied 0.295 GiB. 
  Using in-core AOs.

  ==> MemDFJK: Density-Fitted J/K Matrices <==

    J tasked:                   Yes
    K tasked:                   Yes
    wK tasked:                   No
    OpenMP threads:               1
    Memory [MiB]:               302
    Algorithm:                 Core
    Schwarz Cutoff:           1E-12
    Mask sparsity (%):       0.0000
    Fitting Condition:        1E-10

   => Auxiliary Basis Set <=

  Basis Set: (CC-PVTZ AUX)
    Blend: CC-PVTZ-JKFIT
    Number of shells: 50
    Number of basis functions: 158
    Number of Cartesian functions: 192
    Spherical Harmonics?: true
    Max angular momentum: 4

  Cached 100.0% of DFT collocation blocks in 0.071 [GiB].

  Minimum eigenvalue in the overlap matrix is 5.0994311069E-03.
  Reciprocal condition number of the overlap matrix is 1.4731505064E-03.
    Using symmetric orthogonalization.

  ==> Pre-Iterations <==

  SCF Guess: Orbitals guess was supplied from a previous computation.

   -------------------------------------------------------
    Irrep   Nso     Nmo     Nalpha   Nbeta   Ndocc  Nsocc
   -------------------------------------------------------
     Ag        13      13       3       3       3       0
     B1g        3       3       0       0       0       0
     B2g        7       7       0       0       0       0
     B3g        7       7       0       0       0       0
     Au         3       3       0       0       0       0
     B1u       13      13       2       2       2       0
     B2u        7       7       1       1       1       0
     B3u        7       7       1       1       1       0
   -------------------------------------------------------
    Total      60      60       7       7       7       0
   -------------------------------------------------------

  ==> Iterations <==

                           Total Energy        Delta E     RMS |[F,P]|

   @DF-UKS iter   0:  -109.48138600785829   -1.09481e+02   3.05992e-12 
   @DF-UKS iter   1:  -109.48138600785828    1.42109e-14   2.09494e-12 DIIS
  Energy and wave function converged.


  ==> Post-Iterations <==

   Electrons on quadrature grid:
      Nalpha   =    7.0000003737 ; deviation = 3.737e-07
      Nbeta    =    7.0000003737 ; deviation = 3.737e-07
      Ntotal   =   14.0000007473 ; deviation = 7.473e-07 

   @Spin Contamination Metric:  -2.664535259E-15
   @S^2 Expected:                0.000000000E+00
   @S^2 Observed:               -2.664535259E-15
   @S   Expected:                0.000000000E+00
   @S   Observed:                0.000000000E+00

    Orbital Energies [Eh]
    ---------------------

    Alpha Occupied:                                                       

       1Ag   -14.471046     1B1u  -14.470646     2Ag    -1.009041  
       2B1u   -0.611262     3Ag    -0.422813     1B3u   -0.411702  
       1B2u   -0.411702  

    Alpha Virtual:                                                        

       1B2g   -0.111942     1B3g   -0.111942     3B1u    0.214724  
       2B3u    0.410419     2B2u    0.410419     4Ag     0.432808  
       4B1u    0.450010     5Ag     0.483004     2B2g    0.511727  
       2B3g    0.511727     1B1g    0.856940     6Ag     0.856940  
       5B1u    0.858388     3B3u    0.974332     3B2u    0.974332  
       1Au     1.191793     6B1u    1.191793     7Ag     1.619727  
       3B2g    1.620046     3B3g    1.620046     7B1u    1.653929  
       4B3u    2.706377     4B2u    2.706377     8Ag     2.835475  
       4B3g    2.928585     4B2g    2.928585     2B1g    3.458940  
       9Ag     3.458941     5B3u    3.506188     5B2u    3.506188  
       8B1u    3.581060    10Ag     3.692229     6B3u    3.706683  
       6B2u    3.706683     5B3g    3.943038     5B2g    3.943038  
       9B1u    4.265816    11Ag     4.328339     3B1g    4.328342  
      10B1u    4.347087     2Au     4.347088     6B2g    4.575176  
       6B3g    4.575176    11B1u    4.585031     3Au     4.585032  
       7B3u    4.703012     7B2u    4.703012    12B1u    5.081257  
      12Ag     5.297563    13Ag     5.567577     7B2g    5.611616  
       7B3g    5.611616    13B1u   10.136448  

    Beta Occupied:                                                        

       1Ag   -14.471046     1B1u  -14.470646     2Ag    -1.009041  
       2B1u   -0.611262     3Ag    -0.422813     1B3u   -0.411702  
       1B2u   -0.411702  

    Beta Virtual:                                                         

       1B2g   -0.111942     1B3g   -0.111942     3B1u    0.214724  
       2B3u    0.410419     2B2u    0.410419     4Ag     0.432808  
       4B1u    0.450010     5Ag     0.483004     2B2g    0.511727  
       2B3g    0.511727     1B1g    0.856940     6Ag     0.856940  
       5B1u    0.858388     3B3u    0.974332     3B2u    0.974332  
       1Au     1.191793     6B1u    1.191793     7Ag     1.619727  
       3B2g    1.620046     3B3g    1.620046     7B1u    1.653929  
       4B3u    2.706377     4B2u    2.706377     8Ag     2.835475  
       4B3g    2.928585     4B2g    2.928585     2B1g    3.458940  
       9Ag     3.458941     5B3u    3.506188     5B2u    3.506188  
       8B1u    3.581060    10Ag     3.692229     6B3u    3.706683  
       6B2u    3.706683     5B3g    3.943038     5B2g    3.943038  
       9B1u    4.265816    11Ag     4.328339     3B1g    4.328342  
      10B1u    4.347087     2Au     4.347088     6B2g    4.575176  
       6B3g    4.575176    11B1u    4.585031     3Au     4.585032  
       7B3u    4.703012     7B2u    4.703012    12B1u    5.081257  
      12Ag     5.297563    13Ag     5.567577     7B2g    5.611616  
       7B3g    5.611616    13B1u   10.136448  

    Final Occupation by Irrep:
             Ag   B1g   B2g   B3g    Au   B1u   B2u   B3u 
    DOCC [     3,    0,    0,    0,    0,    2,    1,    1 ]
    SOCC [     0,    0,    0,    0,    0,    0,    0,    0 ]
    NA   [     3,    0,    0,    0,    0,    2,    1,    1 ]
    NB   [     3,    0,    0,    0,    0,    2,    1,    1 ]

  @DF-UKS Final Energy:  -109.48138600785828

   => Energetics <=

    Nuclear Repulsion Energy =             19.6993052531843666
    One-Electron Energy =                -186.8917415893934049
    Two-Electron Energy =                  68.6180003116773207
    DFT Exchange-Correlation Energy =     -10.9069499833265731
    Empirical Dispersion Energy =           0.0000000000000000
    VV10 Nonlocal Energy =                  0.0000000000000000
    Total Energy =                       -109.4813860078582763

  UHF NO Occupations:
  HONO-2 :    2B1u 2.0000000
  HONO-1 :    3 Ag 2.0000000
  HONO-0 :    1B3u 2.0000000
  LUNO+0 :    3B1u 0.0000000
  LUNO+1 :    4 Ag 0.0000000
  LUNO+2 :    4B1u 0.0000000
  LUNO+3 :    2B2u 0.0000000


Computation Completed


Properties will be evaluated at   0.000000,   0.000000,   0.000000 [a0]

Properties computed using the B3LYP density matrix


 Multipole Moments:

 ------------------------------------------------------------------------------------
     Multipole            Electronic (a.u.)      Nuclear  (a.u.)        Total (a.u.)
 ------------------------------------------------------------------------------------

 L = 1.  Multiply by 2.5417464519 to convert [e a0] to [Debye]
 Dipole X            :          0.0000000            0.0000000            0.0000000
 Dipole Y            :          0.0000000            0.0000000            0.0000000
 Dipole Z            :          0.0000000           -0.0000000           -0.0000000
 Magnitude           :                                                    0.0000000

 L = 2.  Multiply by 1.3450342976 to convert [e a0^2] to [Debye ang]
 Quadrupole XX       :         -7.9739214            0.0000000           -7.9739214
 Quadrupole XY       :          0.0000000            0.0000000            0.0000000
 Quadrupole XZ       :          0.0000000            0.0000000            0.0000000
 Quadrupole YY       :         -7.9739214            0.0000000           -7.9739214
 Quadrupole YZ       :          0.0000000            0.0000000            0.0000000
 Quadrupole ZZ       :        -30.3342932           21.6550098           -8.6792834
 Traceless XX        :          7.4534573           -7.2183366            0.2351207
 Traceless YY        :          7.4534573           -7.2183366            0.2351207
 Traceless ZZ        :        -14.9069145           14.4366732           -0.4702413

 ------------------------------------------------------------------------------------
  ==> Computing MBIS Charges <==

  Electron Count from Grid (Expected Number): 14.00000 (14.00000)
  Difference:  0.00000

  MBIS Charges: (a.u.)
   Center  Symbol  Z      Pop.       Charge
      1       N    7    7.000000   -0.000000
      2       N    7    7.000000   -0.000000

  MBIS Dipoles: [e a0]
   Center  Symbol  Z        X           Y           Z
      1       N    7   -0.000000    0.000000    0.008192
      2       N    7    0.000000   -0.000000   -0.008192

  MBIS Quadrupoles: [e a0^2]
   Center  Symbol  Z      XX        XY        XZ        YY        YZ        ZZ
      1       N    7   -3.9870    0.0000   -0.0000   -3.9870   -0.0000   -4.3193
      2       N    7   -3.9870    0.0000    0.0000   -3.9870    0.0000   -4.3193

  MBIS Octupoles: [e a0^3]
   Center  Symbol  Z      XXX       XXY       XXZ       XYY       XYZ       XZZ       YYY       YYZ       YZZ       ZZZ
      1       N    7    0.0000   -0.0000   -0.0918   -0.0000    0.0000    0.0000   -0.0000   -0.0918   -0.0000   -0.1642
      2       N    7    0.0000   -0.0000    0.0918    0.0000   -0.0000    0.0000   -0.0000    0.0918    0.0000    0.1642

  MBIS Radial Moments:
   Center  Symbol  Z      [a0^2]      [a0^3]      [a0^4]      
      1       N    7   12.293187   25.876187   64.871830
      2       N    7   12.293187   25.876187   64.871830

  MBIS Valence Widths: [a0]
   Center  Symbol  Z     Width
      1       N    7    0.441015
      2       N    7    0.441015

*** tstop() called on Mac.lan at Sun Aug 10 17:07:04 2025
Module time:
	user time   =       7.66 seconds =       0.13 minutes
	system time =       2.83 seconds =       0.05 minutes
	total time  =          1 seconds =       0.02 minutes
Total time:
	user time   =      48.81 seconds =       0.81 minutes
	system time =       6.54 seconds =       0.11 minutes
	total time  =         11 seconds =       0.18 minutes

    Psi4 stopped on: Sunday, 10 August 2025 05:07PM
    Psi4 wall time for execution: 0:00:11.96

*** Psi4 exiting successfully. Buy a developer a beer!
