
    -----------------------------------------------------------------------
          Psi4: An Open-Source Ab Initio Electronic Structure Package
                               Psi4 1.9.1 release

                         Git: Rev {} zzzzzzz 


    D. G. A. Smith, L. A. Burns, A. C. Simmonett, R. M. Parrish,
    M. C. Schieber, R. Galvelis, P. Kraus, H. Kruse, R. Di Remigio,
    A. Alenaizan, A. M. James, S. Lehtola, J. P. Misiewicz, M. Scheurer,
    R. A. Shaw, J. B. Schriber, Y. Xie, Z. L. Glick, D. A. Sirianni,
    J. S. O'Brien, J. M. Waldrop, A. Kumar, E. G. Hohenstein,
    B. P. Pritchard, B. R. Brooks, H. F. Schaefer III, A. Yu. Sokolov,
    K. Patkowski, A. E. DePrince III, U. Bozkaya, R. A. King,
    F. A. Evangelista, J. M. Turney, T. D. Crawford, C. D. Sherrill,
    J. Chem. Phys. 152(18) 184108 (2020). https://doi.org/10.1063/5.0006002

                            Additional Code Authors
    E. T. Seidl, C. L. Janssen, E. F. Valeev, M. L. Leininger,
    J. F. Gonthier, R. M. Richard, H. R. McAlexander, M. Saitow, X. Wang,
    P. Verma, M. H. Lechner, A. Jiang, S. Behnle, A. G. Heide,
    M. F. Herbst, and D. L. Poole

             Previous Authors, Complete List of Code Contributors,
                       and Citations for Specific Modules
    https://github.com/psi4/psi4/blob/master/codemeta.json
    https://github.com/psi4/psi4/graphs/contributors
    http://psicode.org/psi4manual/master/introduction.html#citing-psifour

    -----------------------------------------------------------------------


    Psi4 started on: Sunday, 10 August 2025 05:13PM

    Process ID: 48492
    Host:       Mac.lan
    PSIDATADIR: /Users/joseantoniorodriguesromero/anaconda3/share/psi4
    Memory:     500.0 MiB
    Threads:    1
    
  ==> Input File <==

--------------------------------------------------------------------------
molecule { 
0 2
N           0.000000           0.000000           0.000000
C           0.000000           0.000000           0.975314
}

set { 
basis              cc-pvtz
reference          uks
maxiter            500
DAMPING_PERCENTAGE 1
E_CONVERGENCE      1.0E-8
D_CONVERGENCE      1.0E-8
DIIS_MAX_VECS      400
MBIS_MAXITER       8000
guess              read
}

E, wfn = energy('b3lyp', restart_file='last_wfn', return_wfn=True)
properties('b3lyp','MBIS_CHARGES', wfn=wfn)
wfn.to_file('last_wfn')
--------------------------------------------------------------------------

Scratch directory: /tmp/
 Found user provided orbital data. Setting orbital guess to READ 
 Copying restart file <last_wfn.npy> to </tmp/scan_CN_14.default.48492.180.npy> for internal processing
   => Libint2 <=

    Primary   basis highest AM E, G, H:  6, 6, 3
    Auxiliary basis highest AM E, G, H:  7, 7, 4
    Onebody   basis highest AM E, G, H:  -, -, -
    Solid Harmonics ordering:            Gaussian

*** tstart() called on Mac.lan
*** at Sun Aug 10 17:13:02 2025

   => Loading Basis Set <=

    Name: CC-PVTZ
    Role: ORBITAL
    Keyword: BASIS
    atoms 1 entry N          line   224 file /Users/joseantoniorodriguesromero/anaconda3/share/psi4/basis/cc-pvtz.gbs 
    atoms 2 entry C          line   186 file /Users/joseantoniorodriguesromero/anaconda3/share/psi4/basis/cc-pvtz.gbs 


         ---------------------------------------------------------
                                   SCF
               by Justin Turney, Rob Parrish, Andy Simmonett
                          and Daniel G. A. Smith
                              UKS Reference
                        1 Threads,    500 MiB Core
         ---------------------------------------------------------

  ==> Geometry <==

    Molecular point group: c2v
    Full point group: C_inf_v

    Geometry (in Angstrom), charge = 0, multiplicity = 2:

       Center              X                  Y                   Z               Mass       
    ------------   -----------------  -----------------  -----------------  -----------------
         N            0.000000000000     0.000000000000    -0.450091708311    14.003074004430
         C            0.000000000000     0.000000000000     0.525222291689    12.000000000000

  Running in c2v symmetry.

  Rotational constants: A = ************  B =      2.74238  C =      2.74238 [cm^-1]
  Rotational constants: A = ************  B =  82214.48576  C =  82214.48576 [MHz]
  Nuclear repulsion =   22.787987097632151

  Charge       = 0
  Multiplicity = 2
  Electrons    = 13
  Nalpha       = 7
  Nbeta        = 6

  ==> Algorithm <==

  SCF Algorithm Type is DF.
  DIIS enabled.
  MOM disabled.
  Fractional occupation disabled.
  Guess Type is READ.
  Energy threshold   = 1.00e-08
  Density threshold  = 1.00e-08
  Integral threshold = 1.00e-12

  ==> Primary Basis <==

  Basis Set: CC-PVTZ
    Blend: CC-PVTZ
    Number of shells: 20
    Number of basis functions: 60
    Number of Cartesian functions: 70
    Spherical Harmonics?: true
    Max angular momentum: 3

  ==> DFT Potential <==

   => LibXC <=

    Version 6.2.2
    S. Lehtola, C. Steigemann, M. J.T. Oliveira, and M. A.L. Marques.,  SoftwareX 7, 1–5 (2018) (10.1016/j.softx.2017.11.002)

   => Composite Functional: B3LYP <= 

    B3LYP Hyb-GGA Exchange-Correlation Functional

    P. J. Stephens, F. J. Devlin, C. F. Chabalowski, and M. J. Frisch.,  J. Phys. Chem. 98, 11623 (1994) (10.1021/j100096a001)

    Deriv               =              1
    GGA                 =           TRUE
    Meta                =          FALSE

    Exchange Hybrid     =           TRUE
    MP2 Hybrid          =          FALSE

   => Exchange Functionals <=

    0.0800   Slater exchange
    0.7200         Becke 88

   => Exact (HF) Exchange <=

    0.2000               HF 

   => Correlation Functionals <=

    0.1900   Vosko, Wilk & Nusair (VWN5_RPA)
    0.8100   Lee, Yang & Parr

   => LibXC Density Thresholds  <==

    XC_HYB_GGA_XC_B3LYP:  1.00E-15 

   => Molecular Quadrature <=

    Radial Scheme          =       TREUTLER
    Pruning Scheme         =           NONE
    Nuclear Scheme         =       TREUTLER

    Blocking Scheme        =         OCTREE
    BS radius alpha        =              1
    Pruning alpha          =              1
    Radial Points          =             75
    Spherical Points       =            302
    Total Points           =          43196
    Total Blocks           =            390
    Max Points             =            254
    Max Functions          =             60
    Weights Tolerance      =       1.00E-15

   => Loading Basis Set <=

    Name: (CC-PVTZ AUX)
    Role: JKFIT
    Keyword: DF_BASIS_SCF
    atoms 1 entry N          line   177 file /Users/joseantoniorodriguesromero/anaconda3/share/psi4/basis/cc-pvtz-jkfit.gbs 
    atoms 2 entry C          line   125 file /Users/joseantoniorodriguesromero/anaconda3/share/psi4/basis/cc-pvtz-jkfit.gbs 

   => Loading Basis Set <=

    Name: CC-PVTZ
    Role: ORBITAL
    Keyword: BASIS
    atoms 1 entry N          line   224 file /Users/joseantoniorodriguesromero/anaconda3/share/psi4/basis/cc-pvtz.gbs 
    atoms 2 entry C          line   186 file /Users/joseantoniorodriguesromero/anaconda3/share/psi4/basis/cc-pvtz.gbs 

  Reading orbitals from file /tmp/scan_CN_14.default.48492.180.npy, no projection.

  ==> Integral Setup <==

  DFHelper Memory: AOs need 0.005 GiB; user supplied 0.294 GiB. 
  Using in-core AOs.

  ==> MemDFJK: Density-Fitted J/K Matrices <==

    J tasked:                   Yes
    K tasked:                   Yes
    wK tasked:                   No
    OpenMP threads:               1
    Memory [MiB]:               300
    Algorithm:                 Core
    Schwarz Cutoff:           1E-12
    Mask sparsity (%):       0.0000
    Fitting Condition:        1E-10

   => Auxiliary Basis Set <=

  Basis Set: (CC-PVTZ AUX)
    Blend: CC-PVTZ-JKFIT
    Number of shells: 50
    Number of basis functions: 158
    Number of Cartesian functions: 192
    Spherical Harmonics?: true
    Max angular momentum: 4

  Cached 100.0% of DFT collocation blocks in 0.072 [GiB].

  Minimum eigenvalue in the overlap matrix is 1.4932032380E-03.
  Reciprocal condition number of the overlap matrix is 3.5173009863E-04.
    Using symmetric orthogonalization.

  ==> Pre-Iterations <==

  SCF Guess: Orbitals guess was supplied from a previous computation.

   -------------------------------------------------------
    Irrep   Nso     Nmo     Nalpha   Nbeta   Ndocc  Nsocc
   -------------------------------------------------------
     A1        26      26       5       4       4       1
     A2         6       6       0       0       0       0
     B1        14      14       1       1       1       0
     B2        14      14       1       1       1       0
   -------------------------------------------------------
    Total      60      60       7       6       6       1
   -------------------------------------------------------

  ==> Iterations <==

                           Total Energy        Delta E     RMS |[F,P]|

   @DF-UKS iter   0:   -92.64575078448041   -9.26458e+01   3.45376e-03 
   @DF-UKS iter   1:   -92.63507638219016    1.06744e-02   3.42596e-04 DIIS/ADIIS
   @DF-UKS iter   2:   -92.63493028808868    1.46094e-04   7.26253e-04 DIIS/ADIIS/DAMP=1%
   @DF-UKS iter   3:   -92.63546469306581   -5.34405e-04   7.07638e-05 DIIS/DAMP=1%
   @DF-UKS iter   4:   -92.63521234558326    2.52347e-04   6.15883e-05 DIIS/DAMP=1%
   @DF-UKS iter   5:   -92.63515273253164    5.96131e-05   2.08349e-05 DIIS/DAMP=1%
   @DF-UKS iter   6:   -92.63516762958955   -1.48971e-05   3.30340e-06 DIIS/DAMP=1%
   @DF-UKS iter   7:   -92.63516093826333    6.69133e-06   7.97306e-07 DIIS/DAMP=1%
   @DF-UKS iter   8:   -92.63516258269740   -1.64443e-06   1.67180e-07 DIIS/DAMP=1%
   @DF-UKS iter   9:   -92.63516252243301    6.02644e-08   1.61027e-08 DIIS/DAMP=1%
   @DF-UKS iter  10:   -92.63516243840215    8.40309e-08   2.03279e-09 DIIS/DAMP=1%
   @DF-UKS iter  11:   -92.63516244620428   -7.80213e-09   1.25272e-09 DIIS/DAMP=1%
  Energy and wave function converged.


  ==> Post-Iterations <==

   Electrons on quadrature grid:
      Nalpha   =    6.9999998755 ; deviation = -1.245e-07
      Nbeta    =    5.9999998650 ; deviation = -1.350e-07
      Ntotal   =   12.9999997405 ; deviation = -2.595e-07 

   @Spin Contamination Metric:   5.903912569E-03
   @S^2 Expected:                7.500000000E-01
   @S^2 Observed:                7.559039126E-01
   @S   Expected:                5.000000000E-01
   @S   Observed:                5.000000000E-01

    Orbital Energies [Eh]
    ---------------------

    Alpha Occupied:                                                       

       1A1   -14.322156     2A1   -10.241477     3A1    -1.022668  
       4A1    -0.468526     1B2    -0.443194     1B1    -0.443194  
       5A1    -0.399291  

    Alpha Virtual:                                                        

       2B2     0.058435     2B1     0.058435     6A1     0.173474  
       7A1     0.251953     3B2     0.275167     3B1     0.275167  
       8A1     0.449918     4B2     0.529873     4B1     0.529873  
       9A1     0.616083     1A2     0.616083    10A1     0.766119  
       5B2     0.895911     5B1     0.895911    11A1     0.958725  
      12A1     1.219559     2A2     1.219559    13A1     1.493782  
       6B2     1.572044     6B1     1.572044     7B1     1.898756  
       7B2     1.898756    14A1     1.933431    15A1     2.309602  
       8B1     2.602899     8B2     2.602899    16A1     2.774385  
      17A1     2.785828     3A2     2.785828     9B1     2.846656  
       9B2     2.846656    18A1     2.921322     4A2     2.921322  
      10B1     3.107022    10B2     3.107022    19A1     3.222245  
      11B1     3.529299    11B2     3.529299    12B1     4.011861  
      12B2     4.011861    20A1     4.396053    21A1     4.530132  
       5A2     4.530133    22A1     4.820348     6A2     4.820348  
      13B2     4.924394    13B1     4.924394    23A1     5.329624  
      24A1     5.565945    14B1     6.050950    14B2     6.050950  
      25A1     7.207463    26A1    15.574693  

    Beta Occupied:                                                        

       1A1   -14.319442     2A1   -10.223218     3A1    -1.003137  
       1B2    -0.432648     1B1    -0.432648     4A1    -0.398436  

    Beta Virtual:                                                         

       5A1    -0.244892     2B2     0.081425     2B1     0.081425  
       6A1     0.180410     3B2     0.287352     3B1     0.287352  
       7A1     0.296561     8A1     0.461343     4B2     0.535119  
       4B1     0.535119     9A1     0.628915     1A2     0.628915  
      10A1     0.812853     5B2     0.925311     5B1     0.925311  
      11A1     0.965601    12A1     1.222468     2A2     1.222468  
      13A1     1.540345     6B2     1.582666     6B1     1.582666  
       7B1     1.918680     7B2     1.918680    14A1     1.957617  
      15A1     2.363990     8B1     2.622317     8B2     2.622317  
      16A1     2.795023     3A2     2.795023    17A1     2.814079  
       9B1     2.926317     9B2     2.926317    18A1     2.981337  
       4A2     2.981337    10B1     3.115123    10B2     3.115123  
      19A1     3.309459    11B1     3.562018    11B2     3.562018  
      12B1     4.008719    12B2     4.008719    20A1     4.420908  
      21A1     4.524518     5A2     4.524518    22A1     4.829952  
       6A2     4.829952    13B2     4.936813    13B1     4.936813  
      23A1     5.351697    24A1     5.596821    14B1     6.078664  
      14B2     6.078664    25A1     7.220654    26A1    15.600950  

    Final Occupation by Irrep:
             A1    A2    B1    B2 
    DOCC [     4,    0,    1,    1 ]
    SOCC [     1,    0,    0,    0 ]
    NA   [     5,    0,    1,    1 ]
    NB   [     4,    0,    1,    1 ]

  @DF-UKS Final Energy:   -92.63516244620428

   => Energetics <=

    Nuclear Repulsion Energy =             22.7879870976321506
    One-Electron Energy =                -169.4725697715321928
    Two-Electron Energy =                  64.0894017312809297
    DFT Exchange-Correlation Energy =     -10.0399815035851514
    Empirical Dispersion Energy =           0.0000000000000000
    VV10 Nonlocal Energy =                  0.0000000000000000
    Total Energy =                        -92.6351624462042764

  UHF NO Occupations:
  HONO-2 :    1 B2 1.9988159
  HONO-1 :    1 B1 1.9988159
  HONO-0 :    5 A1 1.0000000
  LUNO+0 :    2 B2 0.0011841
  LUNO+1 :    2 B1 0.0011841
  LUNO+2 :    6 A1 0.0005338
  LUNO+3 :    7 A1 0.0000511


Computation Completed


Properties will be evaluated at   0.000000,   0.000000,   0.000000 [a0]

Properties computed using the SCF density matrix


 Multipole Moments:

 ------------------------------------------------------------------------------------
     Multipole            Electronic (a.u.)      Nuclear  (a.u.)        Total (a.u.)
 ------------------------------------------------------------------------------------

 L = 1.  Multiply by 2.5417464519 to convert [e a0] to [Debye]
 Dipole X            :          0.0000000            0.0000000            0.0000000
 Dipole Y            :          0.0000000            0.0000000            0.0000000
 Dipole Z            :          0.6756016            0.0013073            0.6769089
 Magnitude           :                                                    0.6769089

 ------------------------------------------------------------------------------------

*** tstop() called on Mac.lan at Sun Aug 10 17:13:04 2025
Module time:
	user time   =      16.81 seconds =       0.28 minutes
	system time =       2.40 seconds =       0.04 minutes
	total time  =          2 seconds =       0.03 minutes
Total time:
	user time   =      16.81 seconds =       0.28 minutes
	system time =       2.40 seconds =       0.04 minutes
	total time  =          2 seconds =       0.03 minutes

*** tstart() called on Mac.lan
*** at Sun Aug 10 17:13:04 2025

   => Libint2 <=

    Primary   basis highest AM E, G, H:  6, 6, 3
    Auxiliary basis highest AM E, G, H:  7, 7, 4
    Onebody   basis highest AM E, G, H:  -, -, -
    Solid Harmonics ordering:            Gaussian
   => Loading Basis Set <=

    Name: CC-PVTZ
    Role: ORBITAL
    Keyword: BASIS
    atoms 1 entry N          line   224 file /Users/joseantoniorodriguesromero/anaconda3/share/psi4/basis/cc-pvtz.gbs 
    atoms 2 entry C          line   186 file /Users/joseantoniorodriguesromero/anaconda3/share/psi4/basis/cc-pvtz.gbs 


         ---------------------------------------------------------
                                   SCF
               by Justin Turney, Rob Parrish, Andy Simmonett
                          and Daniel G. A. Smith
                              UKS Reference
                        1 Threads,    500 MiB Core
         ---------------------------------------------------------

  ==> Geometry <==

    Molecular point group: c2v
    Full point group: C_inf_v

    Geometry (in Angstrom), charge = 0, multiplicity = 2:

       Center              X                  Y                   Z               Mass       
    ------------   -----------------  -----------------  -----------------  -----------------
         N            0.000000000000     0.000000000000    -0.450091708311    14.003074004430
         C            0.000000000000     0.000000000000     0.525222291689    12.000000000000

  Running in c2v symmetry.

  Rotational constants: A = ************  B =      2.74238  C =      2.74238 [cm^-1]
  Rotational constants: A = ************  B =  82214.48576  C =  82214.48576 [MHz]
  Nuclear repulsion =   22.787987097632151

  Charge       = 0
  Multiplicity = 2
  Electrons    = 13
  Nalpha       = 7
  Nbeta        = 6

  ==> Algorithm <==

  SCF Algorithm Type is DF.
  DIIS enabled.
  MOM disabled.
  Fractional occupation disabled.
  Guess Type is READ.
  Energy threshold   = 1.00e-08
  Density threshold  = 1.00e-08
  Integral threshold = 1.00e-12

  ==> Primary Basis <==

  Basis Set: CC-PVTZ
    Blend: CC-PVTZ
    Number of shells: 20
    Number of basis functions: 60
    Number of Cartesian functions: 70
    Spherical Harmonics?: true
    Max angular momentum: 3

  ==> DFT Potential <==

   => LibXC <=

    Version 6.2.2
    S. Lehtola, C. Steigemann, M. J.T. Oliveira, and M. A.L. Marques.,  SoftwareX 7, 1–5 (2018) (10.1016/j.softx.2017.11.002)

   => Composite Functional: B3LYP <= 

    B3LYP Hyb-GGA Exchange-Correlation Functional

    P. J. Stephens, F. J. Devlin, C. F. Chabalowski, and M. J. Frisch.,  J. Phys. Chem. 98, 11623 (1994) (10.1021/j100096a001)

    Deriv               =              1
    GGA                 =           TRUE
    Meta                =          FALSE

    Exchange Hybrid     =           TRUE
    MP2 Hybrid          =          FALSE

   => Exchange Functionals <=

    0.0800   Slater exchange
    0.7200         Becke 88

   => Exact (HF) Exchange <=

    0.2000               HF 

   => Correlation Functionals <=

    0.1900   Vosko, Wilk & Nusair (VWN5_RPA)
    0.8100   Lee, Yang & Parr

   => LibXC Density Thresholds  <==

    XC_HYB_GGA_XC_B3LYP:  1.00E-15 

   => Molecular Quadrature <=

    Radial Scheme          =       TREUTLER
    Pruning Scheme         =           NONE
    Nuclear Scheme         =       TREUTLER

    Blocking Scheme        =         OCTREE
    BS radius alpha        =              1
    Pruning alpha          =              1
    Radial Points          =             75
    Spherical Points       =            302
    Total Points           =          43196
    Total Blocks           =            390
    Max Points             =            254
    Max Functions          =             60
    Weights Tolerance      =       1.00E-15

   => Loading Basis Set <=

    Name: (CC-PVTZ AUX)
    Role: JKFIT
    Keyword: DF_BASIS_SCF
    atoms 1 entry N          line   177 file /Users/joseantoniorodriguesromero/anaconda3/share/psi4/basis/cc-pvtz-jkfit.gbs 
    atoms 2 entry C          line   125 file /Users/joseantoniorodriguesromero/anaconda3/share/psi4/basis/cc-pvtz-jkfit.gbs 

   => Loading Basis Set <=

    Name: CC-PVTZ
    Role: ORBITAL
    Keyword: BASIS
    atoms 1 entry N          line   224 file /Users/joseantoniorodriguesromero/anaconda3/share/psi4/basis/cc-pvtz.gbs 
    atoms 2 entry C          line   186 file /Users/joseantoniorodriguesromero/anaconda3/share/psi4/basis/cc-pvtz.gbs 

  Reading orbitals from file /tmp/scan_CN_14.default.48492.180.npy, no projection.

  ==> Integral Setup <==

  DFHelper Memory: AOs need 0.005 GiB; user supplied 0.294 GiB. 
  Using in-core AOs.

  ==> MemDFJK: Density-Fitted J/K Matrices <==

    J tasked:                   Yes
    K tasked:                   Yes
    wK tasked:                   No
    OpenMP threads:               1
    Memory [MiB]:               300
    Algorithm:                 Core
    Schwarz Cutoff:           1E-12
    Mask sparsity (%):       0.0000
    Fitting Condition:        1E-10

   => Auxiliary Basis Set <=

  Basis Set: (CC-PVTZ AUX)
    Blend: CC-PVTZ-JKFIT
    Number of shells: 50
    Number of basis functions: 158
    Number of Cartesian functions: 192
    Spherical Harmonics?: true
    Max angular momentum: 4

  Cached 100.0% of DFT collocation blocks in 0.072 [GiB].

  Minimum eigenvalue in the overlap matrix is 1.4932032380E-03.
  Reciprocal condition number of the overlap matrix is 3.5173009863E-04.
    Using symmetric orthogonalization.

  ==> Pre-Iterations <==

  SCF Guess: Orbitals guess was supplied from a previous computation.

   -------------------------------------------------------
    Irrep   Nso     Nmo     Nalpha   Nbeta   Ndocc  Nsocc
   -------------------------------------------------------
     A1        26      26       5       4       4       1
     A2         6       6       0       0       0       0
     B1        14      14       1       1       1       0
     B2        14      14       1       1       1       0
   -------------------------------------------------------
    Total      60      60       7       6       6       1
   -------------------------------------------------------

  ==> Iterations <==

                           Total Energy        Delta E     RMS |[F,P]|

   @DF-UKS iter   0:   -92.63516244747133   -9.26352e+01   1.23949e-10 
   @DF-UKS iter   1:   -92.63516244747125    8.52651e-14   2.85440e-10 DIIS
  Energy and wave function converged.


  ==> Post-Iterations <==

   Electrons on quadrature grid:
      Nalpha   =    6.9999998755 ; deviation = -1.245e-07
      Nbeta    =    5.9999998650 ; deviation = -1.350e-07
      Ntotal   =   12.9999997405 ; deviation = -2.595e-07 

   @Spin Contamination Metric:   5.903912811E-03
   @S^2 Expected:                7.500000000E-01
   @S^2 Observed:                7.559039128E-01
   @S   Expected:                5.000000000E-01
   @S   Observed:                5.000000000E-01

    Orbital Energies [Eh]
    ---------------------

    Alpha Occupied:                                                       

       1A1   -14.322156     2A1   -10.241477     3A1    -1.022668  
       4A1    -0.468526     1B2    -0.443194     1B1    -0.443194  
       5A1    -0.399291  

    Alpha Virtual:                                                        

       2B2     0.058435     2B1     0.058435     6A1     0.173474  
       7A1     0.251953     3B2     0.275167     3B1     0.275167  
       8A1     0.449918     4B2     0.529873     4B1     0.529873  
       9A1     0.616083     1A2     0.616083    10A1     0.766119  
       5B2     0.895911     5B1     0.895911    11A1     0.958725  
      12A1     1.219559     2A2     1.219559    13A1     1.493782  
       6B2     1.572044     6B1     1.572044     7B1     1.898756  
       7B2     1.898756    14A1     1.933431    15A1     2.309602  
       8B1     2.602899     8B2     2.602899    16A1     2.774385  
      17A1     2.785828     3A2     2.785828     9B1     2.846656  
       9B2     2.846656    18A1     2.921322     4A2     2.921322  
      10B1     3.107022    10B2     3.107022    19A1     3.222245  
      11B1     3.529299    11B2     3.529299    12B1     4.011861  
      12B2     4.011861    20A1     4.396053    21A1     4.530132  
       5A2     4.530133    22A1     4.820348     6A2     4.820348  
      13B2     4.924394    13B1     4.924394    23A1     5.329624  
      24A1     5.565945    14B1     6.050950    14B2     6.050950  
      25A1     7.207463    26A1    15.574693  

    Beta Occupied:                                                        

       1A1   -14.319442     2A1   -10.223218     3A1    -1.003137  
       1B2    -0.432648     1B1    -0.432648     4A1    -0.398436  

    Beta Virtual:                                                         

       5A1    -0.244892     2B2     0.081425     2B1     0.081425  
       6A1     0.180410     3B2     0.287352     3B1     0.287352  
       7A1     0.296561     8A1     0.461343     4B2     0.535119  
       4B1     0.535119     9A1     0.628915     1A2     0.628915  
      10A1     0.812853     5B2     0.925311     5B1     0.925311  
      11A1     0.965601    12A1     1.222468     2A2     1.222468  
      13A1     1.540345     6B2     1.582666     6B1     1.582666  
       7B1     1.918680     7B2     1.918680    14A1     1.957617  
      15A1     2.363990     8B1     2.622317     8B2     2.622317  
      16A1     2.795023     3A2     2.795023    17A1     2.814079  
       9B1     2.926317     9B2     2.926317    18A1     2.981337  
       4A2     2.981337    10B1     3.115123    10B2     3.115123  
      19A1     3.309459    11B1     3.562018    11B2     3.562018  
      12B1     4.008719    12B2     4.008719    20A1     4.420908  
      21A1     4.524518     5A2     4.524518    22A1     4.829952  
       6A2     4.829952    13B2     4.936813    13B1     4.936813  
      23A1     5.351697    24A1     5.596821    14B1     6.078664  
      14B2     6.078664    25A1     7.220654    26A1    15.600950  

    Final Occupation by Irrep:
             A1    A2    B1    B2 
    DOCC [     4,    0,    1,    1 ]
    SOCC [     1,    0,    0,    0 ]
    NA   [     5,    0,    1,    1 ]
    NB   [     4,    0,    1,    1 ]

  @DF-UKS Final Energy:   -92.63516244747125

   => Energetics <=

    Nuclear Repulsion Energy =             22.7879870976321506
    One-Electron Energy =                -169.4725697049848350
    Two-Electron Energy =                  64.0894016565889757
    DFT Exchange-Correlation Energy =     -10.0399814967075240
    Empirical Dispersion Energy =           0.0000000000000000
    VV10 Nonlocal Energy =                  0.0000000000000000
    Total Energy =                        -92.6351624474712452

  UHF NO Occupations:
  HONO-2 :    1 B2 1.9988159
  HONO-1 :    1 B1 1.9988159
  HONO-0 :    5 A1 1.0000000
  LUNO+0 :    2 B2 0.0011841
  LUNO+1 :    2 B1 0.0011841
  LUNO+2 :    6 A1 0.0005338
  LUNO+3 :    7 A1 0.0000511


Computation Completed


Properties will be evaluated at   0.000000,   0.000000,   0.000000 [a0]

Properties computed using the B3LYP density matrix


 Multipole Moments:

 ------------------------------------------------------------------------------------
     Multipole            Electronic (a.u.)      Nuclear  (a.u.)        Total (a.u.)
 ------------------------------------------------------------------------------------

 L = 1.  Multiply by 2.5417464519 to convert [e a0] to [Debye]
 Dipole X            :          0.0000000            0.0000000            0.0000000
 Dipole Y            :          0.0000000            0.0000000            0.0000000
 Dipole Z            :          0.6756016            0.0013073            0.6769089
 Magnitude           :                                                    0.6769089

 L = 2.  Multiply by 1.3450342976 to convert [e a0^2] to [Debye ang]
 Quadrupole XX       :         -7.5870876            0.0000000           -7.5870876
 Quadrupole XY       :          0.0000000            0.0000000            0.0000000
 Quadrupole XZ       :          0.0000000            0.0000000            0.0000000
 Quadrupole YY       :         -7.5870876            0.0000000           -7.5870876
 Quadrupole YZ       :          0.0000000            0.0000000            0.0000000
 Quadrupole ZZ       :        -18.7357805           10.9746984           -7.7610821
 Traceless XX        :          3.7162310           -3.6582328            0.0579982
 Traceless YY        :          3.7162310           -3.6582328            0.0579982
 Traceless ZZ        :         -7.4324620            7.3164656           -0.1159964

 ------------------------------------------------------------------------------------
  ==> Computing MBIS Charges <==

  Electron Count from Grid (Expected Number): 13.00000 (13.00000)
  Difference: -0.00000

  MBIS Charges: (a.u.)
   Center  Symbol  Z      Pop.       Charge
      1       N    7    7.370134   -0.370134
      2       C    6    5.629866    0.370134

  MBIS Dipoles: [e a0]
   Center  Symbol  Z        X           Y           Z
      1       N    7   -0.000000   -0.000000   -0.116361
      2       C    6   -0.000000   -0.000000    0.111083

  MBIS Quadrupoles: [e a0^2]
   Center  Symbol  Z      XX        XY        XZ        YY        YZ        ZZ
      1       N    7   -4.1361    0.0000   -0.0000   -4.1361    0.0000   -4.6076
      2       C    6   -3.4509    0.0000   -0.0000   -3.4509    0.0000   -3.6688

  MBIS Octupoles: [e a0^3]
   Center  Symbol  Z      XXX       XXY       XXZ       XYY       XYZ       XZZ       YYY       YYZ       YZZ       ZZZ
      1       N    7   -0.0000   -0.0000   -0.0927   -0.0000    0.0000   -0.0000   -0.0000   -0.0927    0.0000    0.0860
      2       C    6   -0.0000   -0.0000   -0.0267   -0.0000    0.0000    0.0000    0.0000   -0.0267    0.0000   -0.1546

  MBIS Radial Moments:
   Center  Symbol  Z      [a0^2]      [a0^3]      [a0^4]      
      1       N    7   12.879894   27.029685   67.994280
      2       C    6   10.570665   24.003390   65.469568

  MBIS Valence Widths: [a0]
   Center  Symbol  Z     Width
      1       N    7    0.434670
      2       C    6    0.472131

*** tstop() called on Mac.lan at Sun Aug 10 17:13:05 2025
Module time:
	user time   =       3.84 seconds =       0.06 minutes
	system time =       2.49 seconds =       0.04 minutes
	total time  =          1 seconds =       0.02 minutes
Total time:
	user time   =      20.68 seconds =       0.34 minutes
	system time =       5.08 seconds =       0.08 minutes
	total time  =          3 seconds =       0.05 minutes

    Psi4 stopped on: Sunday, 10 August 2025 05:13PM
    Psi4 wall time for execution: 0:00:02.50

*** Psi4 exiting successfully. Buy a developer a beer!
