
    -----------------------------------------------------------------------
          Psi4: An Open-Source Ab Initio Electronic Structure Package
                               Psi4 1.9.1 release

                         Git: Rev {} zzzzzzz 


    D. G. A. Smith, L. A. Burns, A. C. Simmonett, R. M. Parrish,
    M. C. Schieber, R. Galvelis, P. Kraus, H. Kruse, R. Di Remigio,
    A. Alenaizan, A. M. James, S. Lehtola, J. P. Misiewicz, M. Scheurer,
    R. A. Shaw, J. B. Schriber, Y. Xie, Z. L. Glick, D. A. Sirianni,
    J. S. O'Brien, J. M. Waldrop, A. Kumar, E. G. Hohenstein,
    B. P. Pritchard, B. R. Brooks, H. F. Schaefer III, A. Yu. Sokolov,
    K. Patkowski, A. E. DePrince III, U. Bozkaya, R. A. King,
    F. A. Evangelista, J. M. Turney, T. D. Crawford, C. D. Sherrill,
    J. Chem. Phys. 152(18) 184108 (2020). https://doi.org/10.1063/5.0006002

                            Additional Code Authors
    E. T. Seidl, C. L. Janssen, E. F. Valeev, M. L. Leininger,
    J. F. Gonthier, R. M. Richard, H. R. McAlexander, M. Saitow, X. Wang,
    P. Verma, M. H. Lechner, A. Jiang, S. Behnle, A. G. Heide,
    M. F. Herbst, and D. L. Poole

             Previous Authors, Complete List of Code Contributors,
                       and Citations for Specific Modules
    https://github.com/psi4/psi4/blob/master/codemeta.json
    https://github.com/psi4/psi4/graphs/contributors
    http://psicode.org/psi4manual/master/introduction.html#citing-psifour

    -----------------------------------------------------------------------


    Psi4 started on: Sunday, 10 August 2025 05:19PM

    Process ID: 48645
    Host:       Mac.lan
    PSIDATADIR: /Users/joseantoniorodriguesromero/anaconda3/share/psi4
    Memory:     500.0 MiB
    Threads:    1
    
  ==> Input File <==

--------------------------------------------------------------------------
molecule { 
0 2
O           0.000000           0.000000           0.000000
N           0.000000           0.000000           1.171678
}

set { 
basis              cc-pvtz
reference          uks
maxiter            500
DAMPING_PERCENTAGE 1
E_CONVERGENCE      1.0E-8
D_CONVERGENCE      1.0E-8
DIIS_MAX_VECS      400
MBIS_MAXITER       8000
guess              read
}

E, wfn = energy('b3lyp', restart_file='last_wfn', return_wfn=True)
properties('b3lyp','MBIS_CHARGES', wfn=wfn)
wfn.to_file('last_wfn')
--------------------------------------------------------------------------

Scratch directory: /tmp/
 Found user provided orbital data. Setting orbital guess to READ 
 Copying restart file <last_wfn.npy> to </tmp/scan_NO_24.default.48645.180.npy> for internal processing
   => Libint2 <=

    Primary   basis highest AM E, G, H:  6, 6, 3
    Auxiliary basis highest AM E, G, H:  7, 7, 4
    Onebody   basis highest AM E, G, H:  -, -, -
    Solid Harmonics ordering:            Gaussian

*** tstart() called on Mac.lan
*** at Sun Aug 10 17:19:28 2025

   => Loading Basis Set <=

    Name: CC-PVTZ
    Role: ORBITAL
    Keyword: BASIS
    atoms 1 entry O          line   262 file /Users/joseantoniorodriguesromero/anaconda3/share/psi4/basis/cc-pvtz.gbs 
    atoms 2 entry N          line   224 file /Users/joseantoniorodriguesromero/anaconda3/share/psi4/basis/cc-pvtz.gbs 


         ---------------------------------------------------------
                                   SCF
               by Justin Turney, Rob Parrish, Andy Simmonett
                          and Daniel G. A. Smith
                              UKS Reference
                        1 Threads,    500 MiB Core
         ---------------------------------------------------------

  ==> Geometry <==

    Molecular point group: c2v
    Full point group: C_inf_v

    Geometry (in Angstrom), charge = 0, multiplicity = 2:

       Center              X                  Y                   Z               Mass       
    ------------   -----------------  -----------------  -----------------  -----------------
         O            0.000000000000     0.000000000000    -0.546939794831    15.994914619570
         N            0.000000000000     0.000000000000     0.624738205169    14.003074004430

  Running in c2v symmetry.

  Rotational constants: A = ************  B =      1.64462  C =      1.64462 [cm^-1]
  Rotational constants: A = ************  B =  49304.60392  C =  49304.60392 [MHz]
  Nuclear repulsion =   25.291866705289337

  Charge       = 0
  Multiplicity = 2
  Electrons    = 15
  Nalpha       = 8
  Nbeta        = 7

  ==> Algorithm <==

  SCF Algorithm Type is DF.
  DIIS enabled.
  MOM disabled.
  Fractional occupation disabled.
  Guess Type is READ.
  Energy threshold   = 1.00e-08
  Density threshold  = 1.00e-08
  Integral threshold = 1.00e-12

  ==> Primary Basis <==

  Basis Set: CC-PVTZ
    Blend: CC-PVTZ
    Number of shells: 20
    Number of basis functions: 60
    Number of Cartesian functions: 70
    Spherical Harmonics?: true
    Max angular momentum: 3

  ==> DFT Potential <==

   => LibXC <=

    Version 6.2.2
    S. Lehtola, C. Steigemann, M. J.T. Oliveira, and M. A.L. Marques.,  SoftwareX 7, 1–5 (2018) (10.1016/j.softx.2017.11.002)

   => Composite Functional: B3LYP <= 

    B3LYP Hyb-GGA Exchange-Correlation Functional

    P. J. Stephens, F. J. Devlin, C. F. Chabalowski, and M. J. Frisch.,  J. Phys. Chem. 98, 11623 (1994) (10.1021/j100096a001)

    Deriv               =              1
    GGA                 =           TRUE
    Meta                =          FALSE

    Exchange Hybrid     =           TRUE
    MP2 Hybrid          =          FALSE

   => Exchange Functionals <=

    0.0800   Slater exchange
    0.7200         Becke 88

   => Exact (HF) Exchange <=

    0.2000               HF 

   => Correlation Functionals <=

    0.1900   Vosko, Wilk & Nusair (VWN5_RPA)
    0.8100   Lee, Yang & Parr

   => LibXC Density Thresholds  <==

    XC_HYB_GGA_XC_B3LYP:  1.00E-15 

   => Molecular Quadrature <=

    Radial Scheme          =       TREUTLER
    Pruning Scheme         =           NONE
    Nuclear Scheme         =       TREUTLER

    Blocking Scheme        =         OCTREE
    BS radius alpha        =              1
    Pruning alpha          =              1
    Radial Points          =             75
    Spherical Points       =            302
    Total Points           =          42710
    Total Blocks           =            381
    Max Points             =            255
    Max Functions          =             60
    Weights Tolerance      =       1.00E-15

   => Loading Basis Set <=

    Name: (CC-PVTZ AUX)
    Role: JKFIT
    Keyword: DF_BASIS_SCF
    atoms 1 entry O          line   229 file /Users/joseantoniorodriguesromero/anaconda3/share/psi4/basis/cc-pvtz-jkfit.gbs 
    atoms 2 entry N          line   177 file /Users/joseantoniorodriguesromero/anaconda3/share/psi4/basis/cc-pvtz-jkfit.gbs 

   => Loading Basis Set <=

    Name: CC-PVTZ
    Role: ORBITAL
    Keyword: BASIS
    atoms 1 entry O          line   262 file /Users/joseantoniorodriguesromero/anaconda3/share/psi4/basis/cc-pvtz.gbs 
    atoms 2 entry N          line   224 file /Users/joseantoniorodriguesromero/anaconda3/share/psi4/basis/cc-pvtz.gbs 

  Reading orbitals from file /tmp/scan_NO_24.default.48645.180.npy, no projection.

  ==> Integral Setup <==

  DFHelper Memory: AOs need 0.005 GiB; user supplied 0.295 GiB. 
  Using in-core AOs.

  ==> MemDFJK: Density-Fitted J/K Matrices <==

    J tasked:                   Yes
    K tasked:                   Yes
    wK tasked:                   No
    OpenMP threads:               1
    Memory [MiB]:               302
    Algorithm:                 Core
    Schwarz Cutoff:           1E-12
    Mask sparsity (%):       0.0000
    Fitting Condition:        1E-10

   => Auxiliary Basis Set <=

  Basis Set: (CC-PVTZ AUX)
    Blend: CC-PVTZ-JKFIT
    Number of shells: 50
    Number of basis functions: 158
    Number of Cartesian functions: 192
    Spherical Harmonics?: true
    Max angular momentum: 4

  Cached 100.0% of DFT collocation blocks in 0.071 [GiB].

  Minimum eigenvalue in the overlap matrix is 3.1681739627E-03.
  Reciprocal condition number of the overlap matrix is 8.1435915228E-04.
    Using symmetric orthogonalization.

  ==> Pre-Iterations <==

  SCF Guess: Orbitals guess was supplied from a previous computation.

   -------------------------------------------------------
    Irrep   Nso     Nmo     Nalpha   Nbeta   Ndocc  Nsocc
   -------------------------------------------------------
     A1        26      26       5       5       5       0
     A2         6       6       0       0       0       0
     B1        14      14       2       1       1       1
     B2        14      14       1       1       1       0
   -------------------------------------------------------
    Total      60      60       8       7       7       1
   -------------------------------------------------------

  ==> Iterations <==

                           Total Energy        Delta E     RMS |[F,P]|

   @DF-UKS iter   0:  -129.96341516519050   -1.29963e+02   2.59460e-03 
   @DF-UKS iter   1:  -129.93906090065556    2.43543e-02   7.50716e-04 DIIS/ADIIS
   @DF-UKS iter   2:  -129.93810917778634    9.51723e-04   1.77643e-03 DIIS/ADIIS/DAMP=1%
   @DF-UKS iter   3:  -129.93984060847225   -1.73143e-03   1.93516e-04 DIIS/ADIIS/DAMP=1%
   @DF-UKS iter   4:  -129.93937837713196    4.62231e-04   3.96758e-05 DIIS/DAMP=1%
   @DF-UKS iter   5:  -129.93928458670908    9.37904e-05   4.48764e-06 DIIS/DAMP=1%
   @DF-UKS iter   6:  -129.93929937443139   -1.47877e-05   1.99127e-06 DIIS/DAMP=1%
   @DF-UKS iter   7:  -129.93929426612351    5.10831e-06   7.18684e-07 DIIS/DAMP=1%
   @DF-UKS iter   8:  -129.93929506608907   -7.99966e-07   1.50313e-07 DIIS/DAMP=1%
   @DF-UKS iter   9:  -129.93929502390623    4.21828e-08   4.26700e-08 DIIS/DAMP=1%
   @DF-UKS iter  10:  -129.93929496578298    5.81232e-08   2.79048e-09 DIIS/DAMP=1%
   @DF-UKS iter  11:  -129.93929496896635   -3.18337e-09   4.93612e-10 DIIS/DAMP=1%
  Energy and wave function converged.


  ==> Post-Iterations <==

   Electrons on quadrature grid:
      Nalpha   =    8.0000004834 ; deviation = 4.834e-07
      Nbeta    =    7.0000003731 ; deviation = 3.731e-07
      Ntotal   =   15.0000008565 ; deviation = 8.565e-07 

   @Spin Contamination Metric:   3.210954334E-03
   @S^2 Expected:                7.500000000E-01
   @S^2 Observed:                7.532109543E-01
   @S   Expected:                5.000000000E-01
   @S   Observed:                5.000000000E-01

    Orbital Energies [Eh]
    ---------------------

    Alpha Occupied:                                                       

       1A1   -19.270949     2A1   -14.463628     3A1    -1.234623  
       4A1    -0.696413     1B1    -0.533742     1B2    -0.505816  
       5A1    -0.488408     2B1    -0.228907  

    Alpha Virtual:                                                        

       2B2    -0.117567     6A1     0.230085     3B1     0.411994  
       3B2     0.418756     7A1     0.447200     8A1     0.493241  
       9A1     0.561069     4B1     0.593838     4B2     0.600850  
       1A2     0.923017    10A1     0.924837     5B1     1.111138  
       5B2     1.111644    11A1     1.173582     2A2     1.511637  
      12A1     1.512824    13A1     1.610855     6B1     1.982575  
       6B2     1.984412    14A1     2.188259     7B1     2.801192  
       7B2     2.818191    15A1     3.050551     8B1     3.509148  
       8B2     3.517368     3A2     3.749951    16A1     3.751597  
       9B1     3.778778     9B2     3.779346    17A1     3.925567  
      10B1     4.038450    10B2     4.039180    18A1     4.225887  
       4A2     4.347792    19A1     4.353708    11B1     4.708572  
      11B2     4.712976    20A1     4.721947    12B1     5.045446  
      12B2     5.045565     5A2     5.491985    21A1     5.493081  
       6A2     6.145630    22A1     6.147661    23A1     6.174918  
      13B1     6.332473    13B2     6.335739    14B2     6.857554  
      14B1     6.859284    24A1     6.866385    25A1     7.133823  
      26A1    12.741031  

    Beta Occupied:                                                        

       1A1   -19.260524     2A1   -14.447728     3A1    -1.213359  
       4A1    -0.659314     1B2    -0.496391     5A1    -0.465093  
       1B1    -0.460396  

    Beta Virtual:                                                         

       2B2    -0.101952     2B1    -0.060022     6A1     0.238168  
       3B2     0.424806     3B1     0.447290     7A1     0.463499  
       8A1     0.505585     9A1     0.570375     4B2     0.604459  
       4B1     0.621816     1A2     0.949835    10A1     0.949927  
       5B2     1.114223     5B1     1.141701    11A1     1.182653  
      12A1     1.534133     2A2     1.534359    13A1     1.624809  
       6B2     1.987443     6B1     2.010854    14A1     2.200801  
       7B2     2.831510     7B1     2.871571    15A1     3.064318  
       8B2     3.523665     8B1     3.554413    16A1     3.773880  
       3A2     3.773917     9B2     3.823951     9B1     3.824025  
      17A1     3.943527    10B2     4.044184    10B1     4.076042  
      18A1     4.243513     4A2     4.414187    19A1     4.415198  
      11B2     4.718198    20A1     4.738964    11B1     4.753356  
      12B2     5.069553    12B1     5.069563     5A2     5.511146  
      21A1     5.511254    22A1     6.180471     6A2     6.182832  
      23A1     6.189837    13B2     6.339329    13B1     6.369049  
      14B2     6.860397    24A1     6.881619    14B1     6.888545  
      25A1     7.149457    26A1    12.759882  

    Final Occupation by Irrep:
             A1    A2    B1    B2 
    DOCC [     5,    0,    1,    1 ]
    SOCC [     0,    0,    1,    0 ]
    NA   [     5,    0,    2,    1 ]
    NB   [     5,    0,    1,    1 ]

  @DF-UKS Final Energy:  -129.93929496896635

   => Energetics <=

    Nuclear Repulsion Energy =             25.2918667052893369
    One-Electron Energy =                -227.1197844846088003
    Two-Electron Energy =                  84.2931366428650648
    DFT Exchange-Correlation Energy =     -12.4045138325119417
    Empirical Dispersion Energy =           0.0000000000000000
    VV10 Nonlocal Energy =                  0.0000000000000000
    Total Energy =                       -129.9392949689663510

  UHF NO Occupations:
  HONO-2 :    5 A1 1.9995123
  HONO-1 :    1 B1 1.9991472
  HONO-0 :    2 B1 1.0000000
  LUNO+0 :    3 B1 0.0008528
  LUNO+1 :    6 A1 0.0004877
  LUNO+2 :    2 B2 0.0001574
  LUNO+3 :    7 A1 0.0000932


Computation Completed


Properties will be evaluated at   0.000000,   0.000000,   0.000000 [a0]

Properties computed using the SCF density matrix


 Multipole Moments:

 ------------------------------------------------------------------------------------
     Multipole            Electronic (a.u.)      Nuclear  (a.u.)        Total (a.u.)
 ------------------------------------------------------------------------------------

 L = 1.  Multiply by 2.5417464519 to convert [e a0] to [Debye]
 Dipole X            :          0.0000000            0.0000000            0.0000000
 Dipole Y            :          0.0000000            0.0000000            0.0000000
 Dipole Z            :         -0.0123029           -0.0044426           -0.0167455
 Magnitude           :                                                    0.0167455

 ------------------------------------------------------------------------------------

*** tstop() called on Mac.lan at Sun Aug 10 17:19:30 2025
Module time:
	user time   =      15.27 seconds =       0.25 minutes
	system time =       2.19 seconds =       0.04 minutes
	total time  =          2 seconds =       0.03 minutes
Total time:
	user time   =      15.27 seconds =       0.25 minutes
	system time =       2.19 seconds =       0.04 minutes
	total time  =          2 seconds =       0.03 minutes

*** tstart() called on Mac.lan
*** at Sun Aug 10 17:19:30 2025

   => Libint2 <=

    Primary   basis highest AM E, G, H:  6, 6, 3
    Auxiliary basis highest AM E, G, H:  7, 7, 4
    Onebody   basis highest AM E, G, H:  -, -, -
    Solid Harmonics ordering:            Gaussian
   => Loading Basis Set <=

    Name: CC-PVTZ
    Role: ORBITAL
    Keyword: BASIS
    atoms 1 entry O          line   262 file /Users/joseantoniorodriguesromero/anaconda3/share/psi4/basis/cc-pvtz.gbs 
    atoms 2 entry N          line   224 file /Users/joseantoniorodriguesromero/anaconda3/share/psi4/basis/cc-pvtz.gbs 


         ---------------------------------------------------------
                                   SCF
               by Justin Turney, Rob Parrish, Andy Simmonett
                          and Daniel G. A. Smith
                              UKS Reference
                        1 Threads,    500 MiB Core
         ---------------------------------------------------------

  ==> Geometry <==

    Molecular point group: c2v
    Full point group: C_inf_v

    Geometry (in Angstrom), charge = 0, multiplicity = 2:

       Center              X                  Y                   Z               Mass       
    ------------   -----------------  -----------------  -----------------  -----------------
         O            0.000000000000     0.000000000000    -0.546939794831    15.994914619570
         N            0.000000000000     0.000000000000     0.624738205169    14.003074004430

  Running in c2v symmetry.

  Rotational constants: A = ************  B =      1.64462  C =      1.64462 [cm^-1]
  Rotational constants: A = ************  B =  49304.60392  C =  49304.60392 [MHz]
  Nuclear repulsion =   25.291866705289337

  Charge       = 0
  Multiplicity = 2
  Electrons    = 15
  Nalpha       = 8
  Nbeta        = 7

  ==> Algorithm <==

  SCF Algorithm Type is DF.
  DIIS enabled.
  MOM disabled.
  Fractional occupation disabled.
  Guess Type is READ.
  Energy threshold   = 1.00e-08
  Density threshold  = 1.00e-08
  Integral threshold = 1.00e-12

  ==> Primary Basis <==

  Basis Set: CC-PVTZ
    Blend: CC-PVTZ
    Number of shells: 20
    Number of basis functions: 60
    Number of Cartesian functions: 70
    Spherical Harmonics?: true
    Max angular momentum: 3

  ==> DFT Potential <==

   => LibXC <=

    Version 6.2.2
    S. Lehtola, C. Steigemann, M. J.T. Oliveira, and M. A.L. Marques.,  SoftwareX 7, 1–5 (2018) (10.1016/j.softx.2017.11.002)

   => Composite Functional: B3LYP <= 

    B3LYP Hyb-GGA Exchange-Correlation Functional

    P. J. Stephens, F. J. Devlin, C. F. Chabalowski, and M. J. Frisch.,  J. Phys. Chem. 98, 11623 (1994) (10.1021/j100096a001)

    Deriv               =              1
    GGA                 =           TRUE
    Meta                =          FALSE

    Exchange Hybrid     =           TRUE
    MP2 Hybrid          =          FALSE

   => Exchange Functionals <=

    0.0800   Slater exchange
    0.7200         Becke 88

   => Exact (HF) Exchange <=

    0.2000               HF 

   => Correlation Functionals <=

    0.1900   Vosko, Wilk & Nusair (VWN5_RPA)
    0.8100   Lee, Yang & Parr

   => LibXC Density Thresholds  <==

    XC_HYB_GGA_XC_B3LYP:  1.00E-15 

   => Molecular Quadrature <=

    Radial Scheme          =       TREUTLER
    Pruning Scheme         =           NONE
    Nuclear Scheme         =       TREUTLER

    Blocking Scheme        =         OCTREE
    BS radius alpha        =              1
    Pruning alpha          =              1
    Radial Points          =             75
    Spherical Points       =            302
    Total Points           =          42710
    Total Blocks           =            381
    Max Points             =            255
    Max Functions          =             60
    Weights Tolerance      =       1.00E-15

   => Loading Basis Set <=

    Name: (CC-PVTZ AUX)
    Role: JKFIT
    Keyword: DF_BASIS_SCF
    atoms 1 entry O          line   229 file /Users/joseantoniorodriguesromero/anaconda3/share/psi4/basis/cc-pvtz-jkfit.gbs 
    atoms 2 entry N          line   177 file /Users/joseantoniorodriguesromero/anaconda3/share/psi4/basis/cc-pvtz-jkfit.gbs 

   => Loading Basis Set <=

    Name: CC-PVTZ
    Role: ORBITAL
    Keyword: BASIS
    atoms 1 entry O          line   262 file /Users/joseantoniorodriguesromero/anaconda3/share/psi4/basis/cc-pvtz.gbs 
    atoms 2 entry N          line   224 file /Users/joseantoniorodriguesromero/anaconda3/share/psi4/basis/cc-pvtz.gbs 

  Reading orbitals from file /tmp/scan_NO_24.default.48645.180.npy, no projection.

  ==> Integral Setup <==

  DFHelper Memory: AOs need 0.005 GiB; user supplied 0.295 GiB. 
  Using in-core AOs.

  ==> MemDFJK: Density-Fitted J/K Matrices <==

    J tasked:                   Yes
    K tasked:                   Yes
    wK tasked:                   No
    OpenMP threads:               1
    Memory [MiB]:               302
    Algorithm:                 Core
    Schwarz Cutoff:           1E-12
    Mask sparsity (%):       0.0000
    Fitting Condition:        1E-10

   => Auxiliary Basis Set <=

  Basis Set: (CC-PVTZ AUX)
    Blend: CC-PVTZ-JKFIT
    Number of shells: 50
    Number of basis functions: 158
    Number of Cartesian functions: 192
    Spherical Harmonics?: true
    Max angular momentum: 4

  Cached 100.0% of DFT collocation blocks in 0.071 [GiB].

  Minimum eigenvalue in the overlap matrix is 3.1681739627E-03.
  Reciprocal condition number of the overlap matrix is 8.1435915228E-04.
    Using symmetric orthogonalization.

  ==> Pre-Iterations <==

  SCF Guess: Orbitals guess was supplied from a previous computation.

   -------------------------------------------------------
    Irrep   Nso     Nmo     Nalpha   Nbeta   Ndocc  Nsocc
   -------------------------------------------------------
     A1        26      26       5       5       5       0
     A2         6       6       0       0       0       0
     B1        14      14       2       1       1       1
     B2        14      14       1       1       1       0
   -------------------------------------------------------
    Total      60      60       8       7       7       1
   -------------------------------------------------------

  ==> Iterations <==

                           Total Energy        Delta E     RMS |[F,P]|

   @DF-UKS iter   0:  -129.93929496966740   -1.29939e+02   7.16022e-11 
   @DF-UKS iter   1:  -129.93929496966774   -3.41061e-13   1.68644e-10 DIIS
  Energy and wave function converged.


  ==> Post-Iterations <==

   Electrons on quadrature grid:
      Nalpha   =    8.0000004834 ; deviation = 4.834e-07
      Nbeta    =    7.0000003731 ; deviation = 3.731e-07
      Ntotal   =   15.0000008565 ; deviation = 8.565e-07 

   @Spin Contamination Metric:   3.210954276E-03
   @S^2 Expected:                7.500000000E-01
   @S^2 Observed:                7.532109543E-01
   @S   Expected:                5.000000000E-01
   @S   Observed:                5.000000000E-01

    Orbital Energies [Eh]
    ---------------------

    Alpha Occupied:                                                       

       1A1   -19.270949     2A1   -14.463628     3A1    -1.234623  
       4A1    -0.696413     1B1    -0.533742     1B2    -0.505816  
       5A1    -0.488408     2B1    -0.228907  

    Alpha Virtual:                                                        

       2B2    -0.117567     6A1     0.230085     3B1     0.411994  
       3B2     0.418756     7A1     0.447200     8A1     0.493241  
       9A1     0.561069     4B1     0.593838     4B2     0.600850  
       1A2     0.923017    10A1     0.924837     5B1     1.111138  
       5B2     1.111644    11A1     1.173582     2A2     1.511637  
      12A1     1.512824    13A1     1.610855     6B1     1.982575  
       6B2     1.984412    14A1     2.188259     7B1     2.801192  
       7B2     2.818191    15A1     3.050551     8B1     3.509148  
       8B2     3.517368     3A2     3.749951    16A1     3.751597  
       9B1     3.778778     9B2     3.779346    17A1     3.925567  
      10B1     4.038450    10B2     4.039180    18A1     4.225887  
       4A2     4.347792    19A1     4.353708    11B1     4.708572  
      11B2     4.712976    20A1     4.721947    12B1     5.045446  
      12B2     5.045565     5A2     5.491985    21A1     5.493081  
       6A2     6.145630    22A1     6.147661    23A1     6.174918  
      13B1     6.332473    13B2     6.335739    14B2     6.857554  
      14B1     6.859284    24A1     6.866385    25A1     7.133823  
      26A1    12.741031  

    Beta Occupied:                                                        

       1A1   -19.260524     2A1   -14.447728     3A1    -1.213359  
       4A1    -0.659314     1B2    -0.496391     5A1    -0.465093  
       1B1    -0.460396  

    Beta Virtual:                                                         

       2B2    -0.101952     2B1    -0.060022     6A1     0.238168  
       3B2     0.424806     3B1     0.447290     7A1     0.463499  
       8A1     0.505585     9A1     0.570375     4B2     0.604459  
       4B1     0.621816     1A2     0.949835    10A1     0.949927  
       5B2     1.114223     5B1     1.141701    11A1     1.182653  
      12A1     1.534133     2A2     1.534359    13A1     1.624809  
       6B2     1.987443     6B1     2.010854    14A1     2.200801  
       7B2     2.831510     7B1     2.871571    15A1     3.064318  
       8B2     3.523665     8B1     3.554413    16A1     3.773880  
       3A2     3.773917     9B2     3.823951     9B1     3.824025  
      17A1     3.943527    10B2     4.044184    10B1     4.076042  
      18A1     4.243513     4A2     4.414187    19A1     4.415198  
      11B2     4.718198    20A1     4.738964    11B1     4.753356  
      12B2     5.069553    12B1     5.069563     5A2     5.511146  
      21A1     5.511254    22A1     6.180471     6A2     6.182832  
      23A1     6.189837    13B2     6.339329    13B1     6.369049  
      14B2     6.860397    24A1     6.881619    14B1     6.888545  
      25A1     7.149457    26A1    12.759882  

    Final Occupation by Irrep:
             A1    A2    B1    B2 
    DOCC [     5,    0,    1,    1 ]
    SOCC [     0,    0,    1,    0 ]
    NA   [     5,    0,    2,    1 ]
    NB   [     5,    0,    1,    1 ]

  @DF-UKS Final Energy:  -129.93929496966774

   => Energetics <=

    Nuclear Repulsion Energy =             25.2918667052893369
    One-Electron Energy =                -227.1197844901031431
    Two-Electron Energy =                  84.2931366480914335
    DFT Exchange-Correlation Energy =     -12.4045138329453906
    Empirical Dispersion Energy =           0.0000000000000000
    VV10 Nonlocal Energy =                  0.0000000000000000
    Total Energy =                       -129.9392949696677420

  UHF NO Occupations:
  HONO-2 :    5 A1 1.9995123
  HONO-1 :    1 B1 1.9991472
  HONO-0 :    2 B1 1.0000000
  LUNO+0 :    3 B1 0.0008528
  LUNO+1 :    6 A1 0.0004877
  LUNO+2 :    2 B2 0.0001574
  LUNO+3 :    7 A1 0.0000932


Computation Completed


Properties will be evaluated at   0.000000,   0.000000,   0.000000 [a0]

Properties computed using the B3LYP density matrix


 Multipole Moments:

 ------------------------------------------------------------------------------------
     Multipole            Electronic (a.u.)      Nuclear  (a.u.)        Total (a.u.)
 ------------------------------------------------------------------------------------

 L = 1.  Multiply by 2.5417464519 to convert [e a0] to [Debye]
 Dipole X            :          0.0000000            0.0000000            0.0000000
 Dipole Y            :          0.0000000            0.0000000            0.0000000
 Dipole Z            :         -0.0123028           -0.0044426           -0.0167454
 Magnitude           :                                                    0.0167454

 L = 2.  Multiply by 1.3450342976 to convert [e a0^2] to [Debye ang]
 Quadrupole XX       :         -7.9452362            0.0000000           -7.9452362
 Quadrupole XY       :          0.0000000            0.0000000            0.0000000
 Quadrupole XZ       :          0.0000000            0.0000000            0.0000000
 Quadrupole YY       :         -7.1387354            0.0000000           -7.1387354
 Quadrupole YZ       :          0.0000000            0.0000000            0.0000000
 Quadrupole ZZ       :        -26.6843595           18.3025282           -8.3818313
 Traceless XX        :          5.9775408           -6.1008427           -0.1233019
 Traceless YY        :          6.7840416           -6.1008427            0.6831989
 Traceless ZZ        :        -12.7615825           12.2016855           -0.5598970

 ------------------------------------------------------------------------------------
  ==> Computing MBIS Charges <==

  Electron Count from Grid (Expected Number): 15.00000 (15.00000)
  Difference:  0.00000

  MBIS Charges: (a.u.)
   Center  Symbol  Z      Pop.       Charge
      1       O    8    8.046243   -0.046243
      2       N    7    6.953758    0.046242

  MBIS Dipoles: [e a0]
   Center  Symbol  Z        X           Y           Z
      1       O    8    0.000000    0.000000    0.042396
      2       N    7   -0.000000    0.000000   -0.161529

  MBIS Quadrupoles: [e a0^2]
   Center  Symbol  Z      XX        XY        XZ        YY        YZ        ZZ
      1       O    8   -3.7595   -0.0000   -0.0000   -3.5043    0.0000   -3.7690
      2       N    7   -4.1857    0.0000    0.0000   -3.6344    0.0000   -4.1589

  MBIS Octupoles: [e a0^3]
   Center  Symbol  Z      XXX       XXY       XXZ       XYY       XYZ       XZZ       YYY       YYZ       YZZ       ZZZ
      1       O    8   -0.0000   -0.0000    0.1042    0.0000    0.0000   -0.0000   -0.0000    0.0469   -0.0000   -0.0393
      2       N    7    0.0000   -0.0000   -0.2614    0.0000    0.0000    0.0000    0.0000   -0.0296    0.0000    0.0035

  MBIS Radial Moments:
   Center  Symbol  Z      [a0^2]      [a0^3]      [a0^4]      
      1       O    8   11.032807   20.367555   45.127580
      2       N    7   11.979012   25.092812   62.693579

  MBIS Valence Widths: [a0]
   Center  Symbol  Z     Width
      1       O    8    0.379941
      2       N    7    0.436500

*** tstop() called on Mac.lan at Sun Aug 10 17:19:31 2025
Module time:
	user time   =       3.69 seconds =       0.06 minutes
	system time =       2.00 seconds =       0.03 minutes
	total time  =          1 seconds =       0.02 minutes
Total time:
	user time   =      19.05 seconds =       0.32 minutes
	system time =       4.31 seconds =       0.07 minutes
	total time  =          3 seconds =       0.05 minutes

    Psi4 stopped on: Sunday, 10 August 2025 05:19PM
    Psi4 wall time for execution: 0:00:02.27

*** Psi4 exiting successfully. Buy a developer a beer!
