
    -----------------------------------------------------------------------
          Psi4: An Open-Source Ab Initio Electronic Structure Package
                               Psi4 1.9.1 release

                         Git: Rev {} zzzzzzz 


    D. G. A. Smith, L. A. Burns, A. C. Simmonett, R. M. Parrish,
    M. C. Schieber, R. Galvelis, P. Kraus, H. Kruse, R. Di Remigio,
    A. Alenaizan, A. M. James, S. Lehtola, J. P. Misiewicz, M. Scheurer,
    R. A. Shaw, J. B. Schriber, Y. Xie, Z. L. Glick, D. A. Sirianni,
    J. S. O'Brien, J. M. Waldrop, A. Kumar, E. G. Hohenstein,
    B. P. Pritchard, B. R. Brooks, H. F. Schaefer III, A. Yu. Sokolov,
    K. Patkowski, A. E. DePrince III, U. Bozkaya, R. A. King,
    F. A. Evangelista, J. M. Turney, T. D. Crawford, C. D. Sherrill,
    J. Chem. Phys. 152(18) 184108 (2020). https://doi.org/10.1063/5.0006002

                            Additional Code Authors
    E. T. Seidl, C. L. Janssen, E. F. Valeev, M. L. Leininger,
    J. F. Gonthier, R. M. Richard, H. R. McAlexander, M. Saitow, X. Wang,
    P. Verma, M. H. Lechner, A. Jiang, S. Behnle, A. G. Heide,
    M. F. Herbst, and D. L. Poole

             Previous Authors, Complete List of Code Contributors,
                       and Citations for Specific Modules
    https://github.com/psi4/psi4/blob/master/codemeta.json
    https://github.com/psi4/psi4/graphs/contributors
    http://psicode.org/psi4manual/master/introduction.html#citing-psifour

    -----------------------------------------------------------------------


    Psi4 started on: Sunday, 10 August 2025 05:20PM

    Process ID: 48677
    Host:       Mac.lan
    PSIDATADIR: /Users/joseantoniorodriguesromero/anaconda3/share/psi4
    Memory:     500.0 MiB
    Threads:    1
    
  ==> Input File <==

--------------------------------------------------------------------------
molecule { 
0 2
O           0.000000           0.000000           0.000000
N           0.000000           0.000000           1.297966
}

set { 
basis              cc-pvtz
reference          uks
maxiter            500
DAMPING_PERCENTAGE 1
E_CONVERGENCE      1.0E-8
D_CONVERGENCE      1.0E-8
DIIS_MAX_VECS      400
MBIS_MAXITER       8000
guess              read
}

E, wfn = energy('b3lyp', restart_file='last_wfn', return_wfn=True)
properties('b3lyp','MBIS_CHARGES', wfn=wfn)
wfn.to_file('last_wfn')
--------------------------------------------------------------------------

Scratch directory: /tmp/
 Found user provided orbital data. Setting orbital guess to READ 
 Copying restart file <last_wfn.npy> to </tmp/scan_NO_30.default.48677.180.npy> for internal processing
   => Libint2 <=

    Primary   basis highest AM E, G, H:  6, 6, 3
    Auxiliary basis highest AM E, G, H:  7, 7, 4
    Onebody   basis highest AM E, G, H:  -, -, -
    Solid Harmonics ordering:            Gaussian

*** tstart() called on Mac.lan
*** at Sun Aug 10 17:20:48 2025

   => Loading Basis Set <=

    Name: CC-PVTZ
    Role: ORBITAL
    Keyword: BASIS
    atoms 1 entry O          line   262 file /Users/joseantoniorodriguesromero/anaconda3/share/psi4/basis/cc-pvtz.gbs 
    atoms 2 entry N          line   224 file /Users/joseantoniorodriguesromero/anaconda3/share/psi4/basis/cc-pvtz.gbs 


         ---------------------------------------------------------
                                   SCF
               by Justin Turney, Rob Parrish, Andy Simmonett
                          and Daniel G. A. Smith
                              UKS Reference
                        1 Threads,    500 MiB Core
         ---------------------------------------------------------

  ==> Geometry <==

    Molecular point group: c2v
    Full point group: C_inf_v

    Geometry (in Angstrom), charge = 0, multiplicity = 2:

       Center              X                  Y                   Z               Mass       
    ------------   -----------------  -----------------  -----------------  -----------------
         O            0.000000000000     0.000000000000    -0.605891087601    15.994914619570
         N            0.000000000000     0.000000000000     0.692074912399    14.003074004430

  Running in c2v symmetry.

  Rotational constants: A = ************  B =      1.34016  C =      1.34016 [cm^-1]
  Rotational constants: A = ************  B =  40176.98960  C =  40176.98960 [MHz]
  Nuclear repulsion =   22.831047806737619

  Charge       = 0
  Multiplicity = 2
  Electrons    = 15
  Nalpha       = 8
  Nbeta        = 7

  ==> Algorithm <==

  SCF Algorithm Type is DF.
  DIIS enabled.
  MOM disabled.
  Fractional occupation disabled.
  Guess Type is READ.
  Energy threshold   = 1.00e-08
  Density threshold  = 1.00e-08
  Integral threshold = 1.00e-12

  ==> Primary Basis <==

  Basis Set: CC-PVTZ
    Blend: CC-PVTZ
    Number of shells: 20
    Number of basis functions: 60
    Number of Cartesian functions: 70
    Spherical Harmonics?: true
    Max angular momentum: 3

  ==> DFT Potential <==

   => LibXC <=

    Version 6.2.2
    S. Lehtola, C. Steigemann, M. J.T. Oliveira, and M. A.L. Marques.,  SoftwareX 7, 1–5 (2018) (10.1016/j.softx.2017.11.002)

   => Composite Functional: B3LYP <= 

    B3LYP Hyb-GGA Exchange-Correlation Functional

    P. J. Stephens, F. J. Devlin, C. F. Chabalowski, and M. J. Frisch.,  J. Phys. Chem. 98, 11623 (1994) (10.1021/j100096a001)

    Deriv               =              1
    GGA                 =           TRUE
    Meta                =          FALSE

    Exchange Hybrid     =           TRUE
    MP2 Hybrid          =          FALSE

   => Exchange Functionals <=

    0.0800   Slater exchange
    0.7200         Becke 88

   => Exact (HF) Exchange <=

    0.2000               HF 

   => Correlation Functionals <=

    0.1900   Vosko, Wilk & Nusair (VWN5_RPA)
    0.8100   Lee, Yang & Parr

   => LibXC Density Thresholds  <==

    XC_HYB_GGA_XC_B3LYP:  1.00E-15 

   => Molecular Quadrature <=

    Radial Scheme          =       TREUTLER
    Pruning Scheme         =           NONE
    Nuclear Scheme         =       TREUTLER

    Blocking Scheme        =         OCTREE
    BS radius alpha        =              1
    Pruning alpha          =              1
    Radial Points          =             75
    Spherical Points       =            302
    Total Points           =          42733
    Total Blocks           =            381
    Max Points             =            256
    Max Functions          =             60
    Weights Tolerance      =       1.00E-15

   => Loading Basis Set <=

    Name: (CC-PVTZ AUX)
    Role: JKFIT
    Keyword: DF_BASIS_SCF
    atoms 1 entry O          line   229 file /Users/joseantoniorodriguesromero/anaconda3/share/psi4/basis/cc-pvtz-jkfit.gbs 
    atoms 2 entry N          line   177 file /Users/joseantoniorodriguesromero/anaconda3/share/psi4/basis/cc-pvtz-jkfit.gbs 

   => Loading Basis Set <=

    Name: CC-PVTZ
    Role: ORBITAL
    Keyword: BASIS
    atoms 1 entry O          line   262 file /Users/joseantoniorodriguesromero/anaconda3/share/psi4/basis/cc-pvtz.gbs 
    atoms 2 entry N          line   224 file /Users/joseantoniorodriguesromero/anaconda3/share/psi4/basis/cc-pvtz.gbs 

  Reading orbitals from file /tmp/scan_NO_30.default.48677.180.npy, no projection.

  ==> Integral Setup <==

  DFHelper Memory: AOs need 0.005 GiB; user supplied 0.295 GiB. 
  Using in-core AOs.

  ==> MemDFJK: Density-Fitted J/K Matrices <==

    J tasked:                   Yes
    K tasked:                   Yes
    wK tasked:                   No
    OpenMP threads:               1
    Memory [MiB]:               302
    Algorithm:                 Core
    Schwarz Cutoff:           1E-12
    Mask sparsity (%):       0.0000
    Fitting Condition:        1E-10

   => Auxiliary Basis Set <=

  Basis Set: (CC-PVTZ AUX)
    Blend: CC-PVTZ-JKFIT
    Number of shells: 50
    Number of basis functions: 158
    Number of Cartesian functions: 192
    Spherical Harmonics?: true
    Max angular momentum: 4

  Cached 100.0% of DFT collocation blocks in 0.071 [GiB].

  Minimum eigenvalue in the overlap matrix is 4.9832404742E-03.
  Reciprocal condition number of the overlap matrix is 1.3307343266E-03.
    Using symmetric orthogonalization.

  ==> Pre-Iterations <==

  SCF Guess: Orbitals guess was supplied from a previous computation.

   -------------------------------------------------------
    Irrep   Nso     Nmo     Nalpha   Nbeta   Ndocc  Nsocc
   -------------------------------------------------------
     A1        26      26       5       5       5       0
     A2         6       6       0       0       0       0
     B1        14      14       2       1       1       1
     B2        14      14       1       1       1       0
   -------------------------------------------------------
    Total      60      60       8       7       7       1
   -------------------------------------------------------

  ==> Iterations <==

                           Total Energy        Delta E     RMS |[F,P]|

   @DF-UKS iter   0:  -129.88711928295206   -1.29887e+02   1.96801e-03 
   @DF-UKS iter   1:  -129.90823652687746   -2.11172e-02   7.60595e-04 ADIIS/DIIS
   @DF-UKS iter   2:  -129.90641327006358    1.82326e-03   2.29207e-03 ADIIS/DIIS/DAMP=1%
   @DF-UKS iter   3:  -129.90773561830801   -1.32235e-03   2.97747e-04 ADIIS/DIIS/DAMP=1%
   @DF-UKS iter   4:  -129.90839948382910   -6.63866e-04   4.32603e-05 DIIS/DAMP=1%
   @DF-UKS iter   5:  -129.90848862695137   -8.91431e-05   7.10393e-06 DIIS/DAMP=1%
   @DF-UKS iter   6:  -129.90847706569193    1.15613e-05   5.44443e-06 DIIS/DAMP=1%
   @DF-UKS iter   7:  -129.90848405487355   -6.98918e-06   2.97371e-06 DIIS/DAMP=1%
   @DF-UKS iter   8:  -129.90848167575314    2.37912e-06   6.81607e-07 DIIS/DAMP=1%
   @DF-UKS iter   9:  -129.90848211063400   -4.34881e-07   1.00123e-07 DIIS/DAMP=1%
   @DF-UKS iter  10:  -129.90848236858568   -2.57952e-07   1.32810e-08 DIIS/DAMP=1%
   @DF-UKS iter  11:  -129.90848233303029    3.55554e-08   4.57075e-09 DIIS/DAMP=1%
   @DF-UKS iter  12:  -129.90848232936278    3.66751e-09   5.50344e-10 DIIS/DAMP=1%
  Energy and wave function converged.


  ==> Post-Iterations <==

   Electrons on quadrature grid:
      Nalpha   =    8.0000001767 ; deviation = 1.767e-07
      Nbeta    =    7.0000000466 ; deviation = 4.655e-08
      Ntotal   =   15.0000002233 ; deviation = 2.233e-07 

   @Spin Contamination Metric:   5.202765546E-03
   @S^2 Expected:                7.500000000E-01
   @S^2 Observed:                7.552027655E-01
   @S   Expected:                5.000000000E-01
   @S   Observed:                5.000000000E-01

    Orbital Energies [Eh]
    ---------------------

    Alpha Occupied:                                                       

       1A1   -19.273507     2A1   -14.492533     3A1    -1.150766  
       4A1    -0.721329     1B1    -0.495091     5A1    -0.478524  
       1B2    -0.463778     2B1    -0.270376  

    Alpha Virtual:                                                        

       2B2    -0.159715     6A1     0.158496     7A1     0.407321  
       3B1     0.416627     3B2     0.424857     8A1     0.464986  
       9A1     0.557232     4B1     0.594850     4B2     0.601016  
       1A2     0.933457    10A1     0.935321     5B2     1.050522  
       5B1     1.050917    11A1     1.168928     2A2     1.484792  
      12A1     1.485882    13A1     1.540829     6B1     1.914583  
       6B2     1.915479    14A1     2.102693     7B1     2.771434  
       7B2     2.789668    15A1     3.030841     8B1     3.451421  
       8B2     3.459490     3A2     3.742220    16A1     3.744063  
       9B1     3.784088     9B2     3.784667    17A1     3.930794  
      10B1     3.999392    10B2     4.000305    18A1     4.222729  
       4A2     4.325377    19A1     4.331024    20A1     4.537180  
      11B1     4.622033    11B2     4.629950    12B1     5.045446  
      12B2     5.045564     5A2     5.307700    21A1     5.308706  
      22A1     5.669217    13B1     6.007616    13B2     6.008341  
       6A2     6.136743    23A1     6.138921    24A1     6.519563  
      14B1     6.668150    14B2     6.668944    25A1     7.292935  
      26A1    10.296113  

    Beta Occupied:                                                        

       1A1   -19.264503     2A1   -14.475296     3A1    -1.128917  
       4A1    -0.680373     5A1    -0.459162     1B2    -0.455992  
       1B1    -0.420920  

    Beta Virtual:                                                         

       2B2    -0.143039     2B1    -0.100289     6A1     0.174585  
       7A1     0.417133     3B2     0.432751     3B1     0.455882  
       8A1     0.478809     9A1     0.563095     4B2     0.602711  
       4B1     0.619636     1A2     0.963600    10A1     0.963646  
       5B2     1.053365     5B1     1.079398    11A1     1.177774  
      12A1     1.503873     2A2     1.504003    13A1     1.554772  
       6B2     1.917593     6B1     1.940856    14A1     2.113593  
       7B2     2.805746     7B1     2.845926    15A1     3.043876  
       8B2     3.463329     8B1     3.493241    16A1     3.769510  
       3A2     3.770271     9B2     3.833690     9B1     3.833783  
      17A1     3.952142    10B2     4.005831    10B1     4.037103  
      18A1     4.235987    19A1     4.395816     4A2     4.397182  
      20A1     4.561700    11B2     4.637955    11B1     4.674981  
      12B2     5.066047    12B1     5.066056    21A1     5.323629  
       5A2     5.323708    22A1     5.682954    13B2     6.009810  
      13B1     6.038241    23A1     6.169344     6A2     6.169474  
      24A1     6.529902    14B2     6.669589    14B1     6.697185  
      25A1     7.309388    26A1    10.313666  

    Final Occupation by Irrep:
             A1    A2    B1    B2 
    DOCC [     5,    0,    1,    1 ]
    SOCC [     0,    0,    1,    0 ]
    NA   [     5,    0,    2,    1 ]
    NB   [     5,    0,    1,    1 ]

  @DF-UKS Final Energy:  -129.90848232936278

   => Energetics <=

    Nuclear Repulsion Energy =             22.8310478067376188
    One-Electron Energy =                -222.3869970458939349
    Two-Electron Energy =                  81.9683748005253392
    DFT Exchange-Correlation Energy =     -12.3209078907317959
    Empirical Dispersion Energy =           0.0000000000000000
    VV10 Nonlocal Energy =                  0.0000000000000000
    Total Energy =                       -129.9084823293627835

  UHF NO Occupations:
  HONO-2 :    1 B2 1.9990961
  HONO-1 :    1 B1 1.9989664
  HONO-0 :    2 B1 1.0000000
  LUNO+0 :    3 B1 0.0010336
  LUNO+1 :    2 B2 0.0009039
  LUNO+2 :    6 A1 0.0005478
  LUNO+3 :    7 A1 0.0000909


Computation Completed


Properties will be evaluated at   0.000000,   0.000000,   0.000000 [a0]

Properties computed using the SCF density matrix


 Multipole Moments:

 ------------------------------------------------------------------------------------
     Multipole            Electronic (a.u.)      Nuclear  (a.u.)        Total (a.u.)
 ------------------------------------------------------------------------------------

 L = 1.  Multiply by 2.5417464519 to convert [e a0] to [Debye]
 Dipole X            :          0.0000000            0.0000000            0.0000000
 Dipole Y            :          0.0000000            0.0000000            0.0000000
 Dipole Z            :          0.1110934           -0.0049214            0.1061719
 Magnitude           :                                                    0.1061719

 ------------------------------------------------------------------------------------

*** tstop() called on Mac.lan at Sun Aug 10 17:20:50 2025
Module time:
	user time   =      15.01 seconds =       0.25 minutes
	system time =       2.32 seconds =       0.04 minutes
	total time  =          2 seconds =       0.03 minutes
Total time:
	user time   =      15.01 seconds =       0.25 minutes
	system time =       2.32 seconds =       0.04 minutes
	total time  =          2 seconds =       0.03 minutes

*** tstart() called on Mac.lan
*** at Sun Aug 10 17:20:50 2025

   => Libint2 <=

    Primary   basis highest AM E, G, H:  6, 6, 3
    Auxiliary basis highest AM E, G, H:  7, 7, 4
    Onebody   basis highest AM E, G, H:  -, -, -
    Solid Harmonics ordering:            Gaussian
   => Loading Basis Set <=

    Name: CC-PVTZ
    Role: ORBITAL
    Keyword: BASIS
    atoms 1 entry O          line   262 file /Users/joseantoniorodriguesromero/anaconda3/share/psi4/basis/cc-pvtz.gbs 
    atoms 2 entry N          line   224 file /Users/joseantoniorodriguesromero/anaconda3/share/psi4/basis/cc-pvtz.gbs 


         ---------------------------------------------------------
                                   SCF
               by Justin Turney, Rob Parrish, Andy Simmonett
                          and Daniel G. A. Smith
                              UKS Reference
                        1 Threads,    500 MiB Core
         ---------------------------------------------------------

  ==> Geometry <==

    Molecular point group: c2v
    Full point group: C_inf_v

    Geometry (in Angstrom), charge = 0, multiplicity = 2:

       Center              X                  Y                   Z               Mass       
    ------------   -----------------  -----------------  -----------------  -----------------
         O            0.000000000000     0.000000000000    -0.605891087601    15.994914619570
         N            0.000000000000     0.000000000000     0.692074912399    14.003074004430

  Running in c2v symmetry.

  Rotational constants: A = ************  B =      1.34016  C =      1.34016 [cm^-1]
  Rotational constants: A = ************  B =  40176.98960  C =  40176.98960 [MHz]
  Nuclear repulsion =   22.831047806737619

  Charge       = 0
  Multiplicity = 2
  Electrons    = 15
  Nalpha       = 8
  Nbeta        = 7

  ==> Algorithm <==

  SCF Algorithm Type is DF.
  DIIS enabled.
  MOM disabled.
  Fractional occupation disabled.
  Guess Type is READ.
  Energy threshold   = 1.00e-08
  Density threshold  = 1.00e-08
  Integral threshold = 1.00e-12

  ==> Primary Basis <==

  Basis Set: CC-PVTZ
    Blend: CC-PVTZ
    Number of shells: 20
    Number of basis functions: 60
    Number of Cartesian functions: 70
    Spherical Harmonics?: true
    Max angular momentum: 3

  ==> DFT Potential <==

   => LibXC <=

    Version 6.2.2
    S. Lehtola, C. Steigemann, M. J.T. Oliveira, and M. A.L. Marques.,  SoftwareX 7, 1–5 (2018) (10.1016/j.softx.2017.11.002)

   => Composite Functional: B3LYP <= 

    B3LYP Hyb-GGA Exchange-Correlation Functional

    P. J. Stephens, F. J. Devlin, C. F. Chabalowski, and M. J. Frisch.,  J. Phys. Chem. 98, 11623 (1994) (10.1021/j100096a001)

    Deriv               =              1
    GGA                 =           TRUE
    Meta                =          FALSE

    Exchange Hybrid     =           TRUE
    MP2 Hybrid          =          FALSE

   => Exchange Functionals <=

    0.0800   Slater exchange
    0.7200         Becke 88

   => Exact (HF) Exchange <=

    0.2000               HF 

   => Correlation Functionals <=

    0.1900   Vosko, Wilk & Nusair (VWN5_RPA)
    0.8100   Lee, Yang & Parr

   => LibXC Density Thresholds  <==

    XC_HYB_GGA_XC_B3LYP:  1.00E-15 

   => Molecular Quadrature <=

    Radial Scheme          =       TREUTLER
    Pruning Scheme         =           NONE
    Nuclear Scheme         =       TREUTLER

    Blocking Scheme        =         OCTREE
    BS radius alpha        =              1
    Pruning alpha          =              1
    Radial Points          =             75
    Spherical Points       =            302
    Total Points           =          42733
    Total Blocks           =            381
    Max Points             =            256
    Max Functions          =             60
    Weights Tolerance      =       1.00E-15

   => Loading Basis Set <=

    Name: (CC-PVTZ AUX)
    Role: JKFIT
    Keyword: DF_BASIS_SCF
    atoms 1 entry O          line   229 file /Users/joseantoniorodriguesromero/anaconda3/share/psi4/basis/cc-pvtz-jkfit.gbs 
    atoms 2 entry N          line   177 file /Users/joseantoniorodriguesromero/anaconda3/share/psi4/basis/cc-pvtz-jkfit.gbs 

   => Loading Basis Set <=

    Name: CC-PVTZ
    Role: ORBITAL
    Keyword: BASIS
    atoms 1 entry O          line   262 file /Users/joseantoniorodriguesromero/anaconda3/share/psi4/basis/cc-pvtz.gbs 
    atoms 2 entry N          line   224 file /Users/joseantoniorodriguesromero/anaconda3/share/psi4/basis/cc-pvtz.gbs 

  Reading orbitals from file /tmp/scan_NO_30.default.48677.180.npy, no projection.

  ==> Integral Setup <==

  DFHelper Memory: AOs need 0.005 GiB; user supplied 0.295 GiB. 
  Using in-core AOs.

  ==> MemDFJK: Density-Fitted J/K Matrices <==

    J tasked:                   Yes
    K tasked:                   Yes
    wK tasked:                   No
    OpenMP threads:               1
    Memory [MiB]:               302
    Algorithm:                 Core
    Schwarz Cutoff:           1E-12
    Mask sparsity (%):       0.0000
    Fitting Condition:        1E-10

   => Auxiliary Basis Set <=

  Basis Set: (CC-PVTZ AUX)
    Blend: CC-PVTZ-JKFIT
    Number of shells: 50
    Number of basis functions: 158
    Number of Cartesian functions: 192
    Spherical Harmonics?: true
    Max angular momentum: 4

  Cached 100.0% of DFT collocation blocks in 0.071 [GiB].

  Minimum eigenvalue in the overlap matrix is 4.9832404742E-03.
  Reciprocal condition number of the overlap matrix is 1.3307343266E-03.
    Using symmetric orthogonalization.

  ==> Pre-Iterations <==

  SCF Guess: Orbitals guess was supplied from a previous computation.

   -------------------------------------------------------
    Irrep   Nso     Nmo     Nalpha   Nbeta   Ndocc  Nsocc
   -------------------------------------------------------
     A1        26      26       5       5       5       0
     A2         6       6       0       0       0       0
     B1        14      14       2       1       1       1
     B2        14      14       1       1       1       0
   -------------------------------------------------------
    Total      60      60       8       7       7       1
   -------------------------------------------------------

  ==> Iterations <==

                           Total Energy        Delta E     RMS |[F,P]|

   @DF-UKS iter   0:  -129.90848232811024   -1.29908e+02   7.38763e-11 
   @DF-UKS iter   1:  -129.90848232811013    1.13687e-13   1.70104e-10 DIIS
  Energy and wave function converged.


  ==> Post-Iterations <==

   Electrons on quadrature grid:
      Nalpha   =    8.0000001767 ; deviation = 1.767e-07
      Nbeta    =    7.0000000466 ; deviation = 4.655e-08
      Ntotal   =   15.0000002233 ; deviation = 2.233e-07 

   @Spin Contamination Metric:   5.202765913E-03
   @S^2 Expected:                7.500000000E-01
   @S^2 Observed:                7.552027659E-01
   @S   Expected:                5.000000000E-01
   @S   Observed:                5.000000000E-01

    Orbital Energies [Eh]
    ---------------------

    Alpha Occupied:                                                       

       1A1   -19.273507     2A1   -14.492533     3A1    -1.150766  
       4A1    -0.721329     1B1    -0.495091     5A1    -0.478524  
       1B2    -0.463778     2B1    -0.270376  

    Alpha Virtual:                                                        

       2B2    -0.159715     6A1     0.158496     7A1     0.407321  
       3B1     0.416627     3B2     0.424857     8A1     0.464986  
       9A1     0.557232     4B1     0.594850     4B2     0.601016  
       1A2     0.933457    10A1     0.935321     5B2     1.050522  
       5B1     1.050917    11A1     1.168928     2A2     1.484792  
      12A1     1.485882    13A1     1.540829     6B1     1.914583  
       6B2     1.915479    14A1     2.102693     7B1     2.771434  
       7B2     2.789668    15A1     3.030841     8B1     3.451421  
       8B2     3.459490     3A2     3.742220    16A1     3.744063  
       9B1     3.784089     9B2     3.784667    17A1     3.930794  
      10B1     3.999392    10B2     4.000305    18A1     4.222729  
       4A2     4.325377    19A1     4.331024    20A1     4.537180  
      11B1     4.622033    11B2     4.629950    12B1     5.045446  
      12B2     5.045564     5A2     5.307700    21A1     5.308706  
      22A1     5.669217    13B1     6.007616    13B2     6.008341  
       6A2     6.136743    23A1     6.138921    24A1     6.519563  
      14B1     6.668150    14B2     6.668944    25A1     7.292935  
      26A1    10.296113  

    Beta Occupied:                                                        

       1A1   -19.264503     2A1   -14.475296     3A1    -1.128917  
       4A1    -0.680373     5A1    -0.459162     1B2    -0.455992  
       1B1    -0.420920  

    Beta Virtual:                                                         

       2B2    -0.143039     2B1    -0.100289     6A1     0.174585  
       7A1     0.417133     3B2     0.432751     3B1     0.455882  
       8A1     0.478809     9A1     0.563095     4B2     0.602711  
       4B1     0.619636     1A2     0.963600    10A1     0.963646  
       5B2     1.053365     5B1     1.079398    11A1     1.177774  
      12A1     1.503873     2A2     1.504003    13A1     1.554772  
       6B2     1.917593     6B1     1.940856    14A1     2.113593  
       7B2     2.805746     7B1     2.845926    15A1     3.043876  
       8B2     3.463329     8B1     3.493241    16A1     3.769510  
       3A2     3.770271     9B2     3.833690     9B1     3.833783  
      17A1     3.952142    10B2     4.005831    10B1     4.037103  
      18A1     4.235987    19A1     4.395816     4A2     4.397182  
      20A1     4.561700    11B2     4.637955    11B1     4.674981  
      12B2     5.066047    12B1     5.066056    21A1     5.323629  
       5A2     5.323708    22A1     5.682954    13B2     6.009810  
      13B1     6.038241    23A1     6.169344     6A2     6.169474  
      24A1     6.529902    14B2     6.669589    14B1     6.697185  
      25A1     7.309388    26A1    10.313666  

    Final Occupation by Irrep:
             A1    A2    B1    B2 
    DOCC [     5,    0,    1,    1 ]
    SOCC [     0,    0,    1,    0 ]
    NA   [     5,    0,    2,    1 ]
    NB   [     5,    0,    1,    1 ]

  @DF-UKS Final Energy:  -129.90848232811013

   => Energetics <=

    Nuclear Repulsion Energy =             22.8310478067376188
    One-Electron Energy =                -222.3869970682283110
    Two-Electron Energy =                  81.9683748264885850
    DFT Exchange-Correlation Energy =     -12.3209078931080125
    Empirical Dispersion Energy =           0.0000000000000000
    VV10 Nonlocal Energy =                  0.0000000000000000
    Total Energy =                       -129.9084823281101251

  UHF NO Occupations:
  HONO-2 :    1 B2 1.9990961
  HONO-1 :    1 B1 1.9989664
  HONO-0 :    2 B1 1.0000000
  LUNO+0 :    3 B1 0.0010336
  LUNO+1 :    2 B2 0.0009039
  LUNO+2 :    6 A1 0.0005478
  LUNO+3 :    7 A1 0.0000909


Computation Completed


Properties will be evaluated at   0.000000,   0.000000,   0.000000 [a0]

Properties computed using the B3LYP density matrix


 Multipole Moments:

 ------------------------------------------------------------------------------------
     Multipole            Electronic (a.u.)      Nuclear  (a.u.)        Total (a.u.)
 ------------------------------------------------------------------------------------

 L = 1.  Multiply by 2.5417464519 to convert [e a0] to [Debye]
 Dipole X            :          0.0000000            0.0000000            0.0000000
 Dipole Y            :          0.0000000            0.0000000            0.0000000
 Dipole Z            :          0.1110934           -0.0049214            0.1061720
 Magnitude           :                                                    0.1061720

 L = 2.  Multiply by 1.3450342976 to convert [e a0^2] to [Debye ang]
 Quadrupole XX       :         -8.0933162            0.0000000           -8.0933162
 Quadrupole XY       :          0.0000000            0.0000000            0.0000000
 Quadrupole XZ       :          0.0000000            0.0000000            0.0000000
 Quadrupole YY       :         -7.3212898            0.0000000           -7.3212898
 Quadrupole YZ       :          0.0000000            0.0000000            0.0000000
 Quadrupole ZZ       :        -30.6965820           22.4605903           -8.2359917
 Traceless XX        :          7.2770798           -7.4868634           -0.2097836
 Traceless YY        :          8.0491062           -7.4868634            0.5622428
 Traceless ZZ        :        -15.3261860           14.9737269           -0.3524591

 ------------------------------------------------------------------------------------
  ==> Computing MBIS Charges <==

  Electron Count from Grid (Expected Number): 15.00000 (15.00000)
  Difference:  0.00000

  MBIS Charges: (a.u.)
   Center  Symbol  Z      Pop.       Charge
      1       O    8    8.092866   -0.092866
      2       N    7    6.907135    0.092865

  MBIS Dipoles: [e a0]
   Center  Symbol  Z        X           Y           Z
      1       O    8   -0.000000   -0.000000    0.003067
      2       N    7   -0.000000   -0.000000   -0.124675

  MBIS Quadrupoles: [e a0^2]
   Center  Symbol  Z      XX        XY        XZ        YY        YZ        ZZ
      1       O    8   -3.9179    0.0000   -0.0000   -3.6611   -0.0000   -3.8352
      2       N    7   -4.1754    0.0000    0.0000   -3.6602    0.0000   -4.1047

  MBIS Octupoles: [e a0^3]
   Center  Symbol  Z      XXX       XXY       XXZ       XYY       XYZ       XZZ       YYY       YYZ       YZZ       ZZZ
      1       O    8   -0.0000   -0.0000    0.0467   -0.0000    0.0000   -0.0000   -0.0000   -0.0124   -0.0000   -0.1764
      2       N    7   -0.0000   -0.0000   -0.1459   -0.0000    0.0000    0.0000   -0.0000    0.0425   -0.0000    0.1337

  MBIS Radial Moments:
   Center  Symbol  Z      [a0^2]      [a0^3]      [a0^4]      
      1       O    8   11.414184   21.370421   47.949156
      2       N    7   11.940380   25.050144   62.646580

  MBIS Valence Widths: [a0]
   Center  Symbol  Z     Width
      1       O    8    0.385347
      2       N    7    0.438127

*** tstop() called on Mac.lan at Sun Aug 10 17:20:50 2025
Module time:
	user time   =       4.10 seconds =       0.07 minutes
	system time =       2.12 seconds =       0.04 minutes
	total time  =          0 seconds =       0.00 minutes
Total time:
	user time   =      19.13 seconds =       0.32 minutes
	system time =       4.56 seconds =       0.08 minutes
	total time  =          2 seconds =       0.03 minutes

    Psi4 stopped on: Sunday, 10 August 2025 05:20PM
    Psi4 wall time for execution: 0:00:02.28

*** Psi4 exiting successfully. Buy a developer a beer!
