
    -----------------------------------------------------------------------
          Psi4: An Open-Source Ab Initio Electronic Structure Package
                               Psi4 1.9.1 release

                         Git: Rev {} zzzzzzz 


    D. G. A. Smith, L. A. Burns, A. C. Simmonett, R. M. Parrish,
    M. C. Schieber, R. Galvelis, P. Kraus, H. Kruse, R. Di Remigio,
    A. Alenaizan, A. M. James, S. Lehtola, J. P. Misiewicz, M. Scheurer,
    R. A. Shaw, J. B. Schriber, Y. Xie, Z. L. Glick, D. A. Sirianni,
    J. S. O'Brien, J. M. Waldrop, A. Kumar, E. G. Hohenstein,
    B. P. Pritchard, B. R. Brooks, H. F. Schaefer III, A. Yu. Sokolov,
    K. Patkowski, A. E. DePrince III, U. Bozkaya, R. A. King,
    F. A. Evangelista, J. M. Turney, T. D. Crawford, C. D. Sherrill,
    J. Chem. Phys. 152(18) 184108 (2020). https://doi.org/10.1063/5.0006002

                            Additional Code Authors
    E. T. Seidl, C. L. Janssen, E. F. Valeev, M. L. Leininger,
    J. F. Gonthier, R. M. Richard, H. R. McAlexander, M. Saitow, X. Wang,
    P. Verma, M. H. Lechner, A. Jiang, S. Behnle, A. G. Heide,
    M. F. Herbst, and D. L. Poole

             Previous Authors, Complete List of Code Contributors,
                       and Citations for Specific Modules
    https://github.com/psi4/psi4/blob/master/codemeta.json
    https://github.com/psi4/psi4/graphs/contributors
    http://psicode.org/psi4manual/master/introduction.html#citing-psifour

    -----------------------------------------------------------------------


    Psi4 started on: Sunday, 10 August 2025 05:06PM

    Process ID: 48246
    Host:       Mac.lan
    PSIDATADIR: /Users/joseantoniorodriguesromero/anaconda3/share/psi4
    Memory:     500.0 MiB
    Threads:    1
    
  ==> Input File <==

--------------------------------------------------------------------------
molecule { 
0 1
N           0.000000           0.000000           0.000000
N           0.000000           0.000000           0.694886
}

set { 
basis              cc-pvtz
reference          uks
maxiter            500
DAMPING_PERCENTAGE 1
E_CONVERGENCE      1.0E-8
D_CONVERGENCE      1.0E-8
DIIS_MAX_VECS      400
MBIS_MAXITER       8000
guess              read
}

E, wfn = energy('b3lyp', restart_file='last_wfn', return_wfn=True)
properties('b3lyp','MBIS_CHARGES', wfn=wfn)
wfn.to_file('last_wfn')
--------------------------------------------------------------------------

Scratch directory: /tmp/
 Found user provided orbital data. Setting orbital guess to READ 
 Copying restart file <last_wfn.npy> to </tmp/scan_NN_3.default.48246.180.npy> for internal processing
   => Libint2 <=

    Primary   basis highest AM E, G, H:  6, 6, 3
    Auxiliary basis highest AM E, G, H:  7, 7, 4
    Onebody   basis highest AM E, G, H:  -, -, -
    Solid Harmonics ordering:            Gaussian

*** tstart() called on Mac.lan
*** at Sun Aug 10 17:06:19 2025

   => Loading Basis Set <=

    Name: CC-PVTZ
    Role: ORBITAL
    Keyword: BASIS
    atoms 1-2 entry N          line   224 file /Users/joseantoniorodriguesromero/anaconda3/share/psi4/basis/cc-pvtz.gbs 


         ---------------------------------------------------------
                                   SCF
               by Justin Turney, Rob Parrish, Andy Simmonett
                          and Daniel G. A. Smith
                              UKS Reference
                        1 Threads,    500 MiB Core
         ---------------------------------------------------------

  ==> Geometry <==

    Molecular point group: d2h
    Full point group: D_inf_h

    Geometry (in Angstrom), charge = 0, multiplicity = 1:

       Center              X                  Y                   Z               Mass       
    ------------   -----------------  -----------------  -----------------  -----------------
         N            0.000000000000     0.000000000000    -0.347443000000    14.003074004430
         N            0.000000000000     0.000000000000     0.347443000000    14.003074004430

  Running in d2h symmetry.

  Rotational constants: A = ************  B =      4.98627  C =      4.98627 [cm^-1]
  Rotational constants: A = ************  B = 149484.68034  C = 149484.68034 [MHz]
  Nuclear repulsion =   37.315017604081817

  Charge       = 0
  Multiplicity = 1
  Electrons    = 14
  Nalpha       = 7
  Nbeta        = 7

  ==> Algorithm <==

  SCF Algorithm Type is DF.
  DIIS enabled.
  MOM disabled.
  Fractional occupation disabled.
  Guess Type is READ.
  Energy threshold   = 1.00e-08
  Density threshold  = 1.00e-08
  Integral threshold = 1.00e-12

  ==> Primary Basis <==

  Basis Set: CC-PVTZ
    Blend: CC-PVTZ
    Number of shells: 20
    Number of basis functions: 60
    Number of Cartesian functions: 70
    Spherical Harmonics?: true
    Max angular momentum: 3

  ==> DFT Potential <==

   => LibXC <=

    Version 6.2.2
    S. Lehtola, C. Steigemann, M. J.T. Oliveira, and M. A.L. Marques.,  SoftwareX 7, 1–5 (2018) (10.1016/j.softx.2017.11.002)

   => Composite Functional: B3LYP <= 

    B3LYP Hyb-GGA Exchange-Correlation Functional

    P. J. Stephens, F. J. Devlin, C. F. Chabalowski, and M. J. Frisch.,  J. Phys. Chem. 98, 11623 (1994) (10.1021/j100096a001)

    Deriv               =              1
    GGA                 =           TRUE
    Meta                =          FALSE

    Exchange Hybrid     =           TRUE
    MP2 Hybrid          =          FALSE

   => Exchange Functionals <=

    0.0800   Slater exchange
    0.7200         Becke 88

   => Exact (HF) Exchange <=

    0.2000               HF 

   => Correlation Functionals <=

    0.1900   Vosko, Wilk & Nusair (VWN5_RPA)
    0.8100   Lee, Yang & Parr

   => LibXC Density Thresholds  <==

    XC_HYB_GGA_XC_B3LYP:  1.00E-15 

   => Molecular Quadrature <=

    Radial Scheme          =       TREUTLER
    Pruning Scheme         =           NONE
    Nuclear Scheme         =       TREUTLER

    Blocking Scheme        =         OCTREE
    BS radius alpha        =              1
    Pruning alpha          =              1
    Radial Points          =             75
    Spherical Points       =            302
    Total Points           =          42374
    Total Blocks           =            378
    Max Points             =            256
    Max Functions          =             60
    Weights Tolerance      =       1.00E-15

   => Loading Basis Set <=

    Name: (CC-PVTZ AUX)
    Role: JKFIT
    Keyword: DF_BASIS_SCF
    atoms 1-2 entry N          line   177 file /Users/joseantoniorodriguesromero/anaconda3/share/psi4/basis/cc-pvtz-jkfit.gbs 

   => Loading Basis Set <=

    Name: CC-PVTZ
    Role: ORBITAL
    Keyword: BASIS
    atoms 1-2 entry N          line   224 file /Users/joseantoniorodriguesromero/anaconda3/share/psi4/basis/cc-pvtz.gbs 

  Reading orbitals from file /tmp/scan_NN_3.default.48246.180.npy, no projection.

  ==> Integral Setup <==

  DFHelper Memory: AOs need 0.005 GiB; user supplied 0.295 GiB. 
  Using in-core AOs.

  ==> MemDFJK: Density-Fitted J/K Matrices <==

    J tasked:                   Yes
    K tasked:                   Yes
    wK tasked:                   No
    OpenMP threads:               1
    Memory [MiB]:               301
    Algorithm:                 Core
    Schwarz Cutoff:           1E-12
    Mask sparsity (%):       0.0000
    Fitting Condition:        1E-10

   => Auxiliary Basis Set <=

  Basis Set: (CC-PVTZ AUX)
    Blend: CC-PVTZ-JKFIT
    Number of shells: 50
    Number of basis functions: 158
    Number of Cartesian functions: 192
    Spherical Harmonics?: true
    Max angular momentum: 4

  Cached 100.0% of DFT collocation blocks in 0.072 [GiB].

  Minimum eigenvalue in the overlap matrix is 8.5277161559E-04.
  Reciprocal condition number of the overlap matrix is 2.0881293478E-04.
    Using symmetric orthogonalization.

  ==> Pre-Iterations <==

  SCF Guess: Orbitals guess was supplied from a previous computation.

   -------------------------------------------------------
    Irrep   Nso     Nmo     Nalpha   Nbeta   Ndocc  Nsocc
   -------------------------------------------------------
     Ag        13      13       3       3       3       0
     B1g        3       3       0       0       0       0
     B2g        7       7       0       0       0       0
     B3g        7       7       0       0       0       0
     Au         3       3       0       0       0       0
     B1u       13      13       2       2       2       0
     B2u        7       7       1       1       1       0
     B3u        7       7       1       1       1       0
   -------------------------------------------------------
    Total      60      60       7       7       7       0
   -------------------------------------------------------

  ==> Iterations <==

                           Total Energy        Delta E     RMS |[F,P]|

   @DF-UKS iter   0:  -108.25588728319151   -1.08256e+02   1.01696e-02 
   @DF-UKS iter   1:  -108.26240369949255   -6.51642e-03   1.34330e-03 ADIIS/DIIS
   @DF-UKS iter   2:  -108.26249143539064   -8.77359e-05   8.81407e-04 ADIIS/DIIS/DAMP=1%
   @DF-UKS iter   3:  -108.26198162986869    5.09806e-04   7.54056e-05 DIIS/DAMP=1%
   @DF-UKS iter   4:  -108.26267143837246   -6.89809e-04   2.29168e-06 DIIS/DAMP=1%
   @DF-UKS iter   5:  -108.26261917613921    5.22622e-05   3.56047e-07 DIIS/DAMP=1%
   @DF-UKS iter   6:  -108.26262067208398   -1.49594e-06   8.13393e-08 DIIS/DAMP=1%
   @DF-UKS iter   7:  -108.26262057488290    9.72011e-08   4.38609e-09 DIIS/DAMP=1%
   @DF-UKS iter   8:  -108.26262052398107    5.09018e-08   4.83197e-10 DIIS/DAMP=1%
   @DF-UKS iter   9:  -108.26262052151114    2.46993e-09   1.01384e-11 DIIS/DAMP=1%
  Energy and wave function converged.


  ==> Post-Iterations <==

   Electrons on quadrature grid:
      Nalpha   =    7.0000001155 ; deviation = 1.155e-07
      Nbeta    =    7.0000001155 ; deviation = 1.155e-07
      Ntotal   =   14.0000002309 ; deviation = 2.309e-07 

   @Spin Contamination Metric:  -2.753353101E-14
   @S^2 Expected:                0.000000000E+00
   @S^2 Observed:               -2.753353101E-14
   @S   Expected:                0.000000000E+00
   @S   Observed:                0.000000000E+00

    Orbital Energies [Eh]
    ---------------------

    Alpha Occupied:                                                       

       1Ag   -14.376490     1B1u  -14.283004     2Ag    -1.243135  
       1B2u   -0.676444     1B3u   -0.676444     3Ag    -0.451236  
       2B1u   -0.425436  

    Alpha Virtual:                                                        

       1B3g    0.203453     1B2g    0.203453     3B1u    0.306840  
       2B2u    0.322209     2B3u    0.322209     4Ag     0.370235  
       5Ag     0.542405     2B3g    0.656758     2B2g    0.656758  
       1B1g    0.838612     6Ag     0.838612     4B1u    0.889207  
       3B2u    1.357647     3B3u    1.357647     1Au     1.413505  
       5B1u    1.413505     6B1u    1.439035     7Ag     1.518627  
       3B3g    1.730937     3B2g    1.730937     4B3u    2.488021  
       4B2u    2.488021     7B1u    3.222230     8Ag     3.226679  
       5B3u    3.462912     5B2u    3.462912     4B2g    3.517286  
       4B3g    3.517286     2B1g    3.611671     9Ag     3.611671  
       8B1u    3.750397     6B2u    4.077550     6B3u    4.077550  
      10Ag     4.281204     2Au     4.286183     9B1u    4.286183  
       5B2g    4.488980     5B3g    4.488980     6B3g    4.522736  
       6B2g    4.522736     3B1g    4.569903    11Ag     4.569903  
      12Ag     4.774789    10B1u    5.373013     7B2u    5.960280  
       7B3u    5.960280     3Au     6.292795    11B1u    6.292795  
       7B2g    8.128996     7B3g    8.128996    12B1u    8.466499  
      13Ag     8.793080    13B1u   28.684985  

    Beta Occupied:                                                        

       1Ag   -14.376490     1B1u  -14.283004     2Ag    -1.243135  
       1B2u   -0.676444     1B3u   -0.676444     3Ag    -0.451236  
       2B1u   -0.425436  

    Beta Virtual:                                                         

       1B3g    0.203453     1B2g    0.203453     3B1u    0.306840  
       2B2u    0.322209     2B3u    0.322209     4Ag     0.370235  
       5Ag     0.542405     2B3g    0.656758     2B2g    0.656758  
       1B1g    0.838612     6Ag     0.838612     4B1u    0.889207  
       3B2u    1.357647     3B3u    1.357647     1Au     1.413505  
       5B1u    1.413505     6B1u    1.439035     7Ag     1.518627  
       3B3g    1.730937     3B2g    1.730937     4B3u    2.488021  
       4B2u    2.488021     7B1u    3.222230     8Ag     3.226679  
       5B3u    3.462912     5B2u    3.462912     4B2g    3.517286  
       4B3g    3.517286     2B1g    3.611671     9Ag     3.611671  
       8B1u    3.750397     6B2u    4.077550     6B3u    4.077550  
      10Ag     4.281204     2Au     4.286183     9B1u    4.286183  
       5B2g    4.488980     5B3g    4.488980     6B3g    4.522736  
       6B2g    4.522736     3B1g    4.569903    11Ag     4.569903  
      12Ag     4.774789    10B1u    5.373013     7B2u    5.960280  
       7B3u    5.960280     3Au     6.292795    11B1u    6.292795  
       7B2g    8.128996     7B3g    8.128996    12B1u    8.466499  
      13Ag     8.793080    13B1u   28.684985  

    Final Occupation by Irrep:
             Ag   B1g   B2g   B3g    Au   B1u   B2u   B3u 
    DOCC [     3,    0,    0,    0,    0,    2,    1,    1 ]
    SOCC [     0,    0,    0,    0,    0,    0,    0,    0 ]
    NA   [     3,    0,    0,    0,    0,    2,    1,    1 ]
    NB   [     3,    0,    0,    0,    0,    2,    1,    1 ]

  @DF-UKS Final Energy:  -108.26262052151114

   => Energetics <=

    Nuclear Repulsion Energy =             37.3150176040818167
    One-Electron Energy =                -218.4479262481414708
    Two-Electron Energy =                  84.6345958020672242
    DFT Exchange-Correlation Energy =     -11.7643076795187156
    Empirical Dispersion Energy =           0.0000000000000000
    VV10 Nonlocal Energy =                  0.0000000000000000
    Total Energy =                       -108.2626205215111383

  UHF NO Occupations:
  HONO-2 :    1B2u 2.0000000
  HONO-1 :    3 Ag 2.0000000
  HONO-0 :    1B3u 2.0000000
  LUNO+0 :    4 Ag 0.0000000
  LUNO+1 :    3B1u 0.0000000
  LUNO+2 :    5 Ag 0.0000000
  LUNO+3 :    6 Ag 0.0000000


Computation Completed


Properties will be evaluated at   0.000000,   0.000000,   0.000000 [a0]

Properties computed using the SCF density matrix


 Multipole Moments:

 ------------------------------------------------------------------------------------
     Multipole            Electronic (a.u.)      Nuclear  (a.u.)        Total (a.u.)
 ------------------------------------------------------------------------------------

 L = 1.  Multiply by 2.5417464519 to convert [e a0] to [Debye]
 Dipole X            :          0.0000000            0.0000000            0.0000000
 Dipole Y            :          0.0000000            0.0000000            0.0000000
 Dipole Z            :          0.0000000           -0.0000000           -0.0000000
 Magnitude           :                                                    0.0000000

 ------------------------------------------------------------------------------------

*** tstop() called on Mac.lan at Sun Aug 10 17:06:21 2025
Module time:
	user time   =      11.80 seconds =       0.20 minutes
	system time =       1.75 seconds =       0.03 minutes
	total time  =          2 seconds =       0.03 minutes
Total time:
	user time   =      11.80 seconds =       0.20 minutes
	system time =       1.75 seconds =       0.03 minutes
	total time  =          2 seconds =       0.03 minutes

*** tstart() called on Mac.lan
*** at Sun Aug 10 17:06:21 2025

   => Libint2 <=

    Primary   basis highest AM E, G, H:  6, 6, 3
    Auxiliary basis highest AM E, G, H:  7, 7, 4
    Onebody   basis highest AM E, G, H:  -, -, -
    Solid Harmonics ordering:            Gaussian
   => Loading Basis Set <=

    Name: CC-PVTZ
    Role: ORBITAL
    Keyword: BASIS
    atoms 1-2 entry N          line   224 file /Users/joseantoniorodriguesromero/anaconda3/share/psi4/basis/cc-pvtz.gbs 


         ---------------------------------------------------------
                                   SCF
               by Justin Turney, Rob Parrish, Andy Simmonett
                          and Daniel G. A. Smith
                              UKS Reference
                        1 Threads,    500 MiB Core
         ---------------------------------------------------------

  ==> Geometry <==

    Molecular point group: d2h
    Full point group: D_inf_h

    Geometry (in Angstrom), charge = 0, multiplicity = 1:

       Center              X                  Y                   Z               Mass       
    ------------   -----------------  -----------------  -----------------  -----------------
         N            0.000000000000     0.000000000000    -0.347443000000    14.003074004430
         N            0.000000000000     0.000000000000     0.347443000000    14.003074004430

  Running in d2h symmetry.

  Rotational constants: A = ************  B =      4.98627  C =      4.98627 [cm^-1]
  Rotational constants: A = ************  B = 149484.68034  C = 149484.68034 [MHz]
  Nuclear repulsion =   37.315017604081817

  Charge       = 0
  Multiplicity = 1
  Electrons    = 14
  Nalpha       = 7
  Nbeta        = 7

  ==> Algorithm <==

  SCF Algorithm Type is DF.
  DIIS enabled.
  MOM disabled.
  Fractional occupation disabled.
  Guess Type is READ.
  Energy threshold   = 1.00e-08
  Density threshold  = 1.00e-08
  Integral threshold = 1.00e-12

  ==> Primary Basis <==

  Basis Set: CC-PVTZ
    Blend: CC-PVTZ
    Number of shells: 20
    Number of basis functions: 60
    Number of Cartesian functions: 70
    Spherical Harmonics?: true
    Max angular momentum: 3

  ==> DFT Potential <==

   => LibXC <=

    Version 6.2.2
    S. Lehtola, C. Steigemann, M. J.T. Oliveira, and M. A.L. Marques.,  SoftwareX 7, 1–5 (2018) (10.1016/j.softx.2017.11.002)

   => Composite Functional: B3LYP <= 

    B3LYP Hyb-GGA Exchange-Correlation Functional

    P. J. Stephens, F. J. Devlin, C. F. Chabalowski, and M. J. Frisch.,  J. Phys. Chem. 98, 11623 (1994) (10.1021/j100096a001)

    Deriv               =              1
    GGA                 =           TRUE
    Meta                =          FALSE

    Exchange Hybrid     =           TRUE
    MP2 Hybrid          =          FALSE

   => Exchange Functionals <=

    0.0800   Slater exchange
    0.7200         Becke 88

   => Exact (HF) Exchange <=

    0.2000               HF 

   => Correlation Functionals <=

    0.1900   Vosko, Wilk & Nusair (VWN5_RPA)
    0.8100   Lee, Yang & Parr

   => LibXC Density Thresholds  <==

    XC_HYB_GGA_XC_B3LYP:  1.00E-15 

   => Molecular Quadrature <=

    Radial Scheme          =       TREUTLER
    Pruning Scheme         =           NONE
    Nuclear Scheme         =       TREUTLER

    Blocking Scheme        =         OCTREE
    BS radius alpha        =              1
    Pruning alpha          =              1
    Radial Points          =             75
    Spherical Points       =            302
    Total Points           =          42374
    Total Blocks           =            378
    Max Points             =            256
    Max Functions          =             60
    Weights Tolerance      =       1.00E-15

   => Loading Basis Set <=

    Name: (CC-PVTZ AUX)
    Role: JKFIT
    Keyword: DF_BASIS_SCF
    atoms 1-2 entry N          line   177 file /Users/joseantoniorodriguesromero/anaconda3/share/psi4/basis/cc-pvtz-jkfit.gbs 

   => Loading Basis Set <=

    Name: CC-PVTZ
    Role: ORBITAL
    Keyword: BASIS
    atoms 1-2 entry N          line   224 file /Users/joseantoniorodriguesromero/anaconda3/share/psi4/basis/cc-pvtz.gbs 

  Reading orbitals from file /tmp/scan_NN_3.default.48246.180.npy, no projection.

  ==> Integral Setup <==

  DFHelper Memory: AOs need 0.005 GiB; user supplied 0.295 GiB. 
  Using in-core AOs.

  ==> MemDFJK: Density-Fitted J/K Matrices <==

    J tasked:                   Yes
    K tasked:                   Yes
    wK tasked:                   No
    OpenMP threads:               1
    Memory [MiB]:               301
    Algorithm:                 Core
    Schwarz Cutoff:           1E-12
    Mask sparsity (%):       0.0000
    Fitting Condition:        1E-10

   => Auxiliary Basis Set <=

  Basis Set: (CC-PVTZ AUX)
    Blend: CC-PVTZ-JKFIT
    Number of shells: 50
    Number of basis functions: 158
    Number of Cartesian functions: 192
    Spherical Harmonics?: true
    Max angular momentum: 4

  Cached 100.0% of DFT collocation blocks in 0.072 [GiB].

  Minimum eigenvalue in the overlap matrix is 8.5277161559E-04.
  Reciprocal condition number of the overlap matrix is 2.0881293478E-04.
    Using symmetric orthogonalization.

  ==> Pre-Iterations <==

  SCF Guess: Orbitals guess was supplied from a previous computation.

   -------------------------------------------------------
    Irrep   Nso     Nmo     Nalpha   Nbeta   Ndocc  Nsocc
   -------------------------------------------------------
     Ag        13      13       3       3       3       0
     B1g        3       3       0       0       0       0
     B2g        7       7       0       0       0       0
     B3g        7       7       0       0       0       0
     Au         3       3       0       0       0       0
     B1u       13      13       2       2       2       0
     B2u        7       7       1       1       1       0
     B3u        7       7       1       1       1       0
   -------------------------------------------------------
    Total      60      60       7       7       7       0
   -------------------------------------------------------

  ==> Iterations <==

                           Total Energy        Delta E     RMS |[F,P]|

   @DF-UKS iter   0:  -108.26262052117082   -1.08263e+02   1.51473e-12 
   @DF-UKS iter   1:  -108.26262052117063    1.84741e-13   1.24611e-12 DIIS
  Energy and wave function converged.


  ==> Post-Iterations <==

   Electrons on quadrature grid:
      Nalpha   =    7.0000001155 ; deviation = 1.155e-07
      Nbeta    =    7.0000001155 ; deviation = 1.155e-07
      Ntotal   =   14.0000002309 ; deviation = 2.309e-07 

   @Spin Contamination Metric:  -2.131628207E-14
   @S^2 Expected:                0.000000000E+00
   @S^2 Observed:               -2.131628207E-14
   @S   Expected:                0.000000000E+00
   @S   Observed:                0.000000000E+00

    Orbital Energies [Eh]
    ---------------------

    Alpha Occupied:                                                       

       1Ag   -14.376490     1B1u  -14.283004     2Ag    -1.243135  
       1B2u   -0.676444     1B3u   -0.676444     3Ag    -0.451236  
       2B1u   -0.425436  

    Alpha Virtual:                                                        

       1B3g    0.203453     1B2g    0.203453     3B1u    0.306840  
       2B2u    0.322209     2B3u    0.322209     4Ag     0.370235  
       5Ag     0.542405     2B3g    0.656758     2B2g    0.656758  
       1B1g    0.838612     6Ag     0.838612     4B1u    0.889207  
       3B2u    1.357647     3B3u    1.357647     1Au     1.413505  
       5B1u    1.413505     6B1u    1.439035     7Ag     1.518627  
       3B3g    1.730937     3B2g    1.730937     4B3u    2.488021  
       4B2u    2.488021     7B1u    3.222230     8Ag     3.226679  
       5B3u    3.462912     5B2u    3.462912     4B2g    3.517286  
       4B3g    3.517286     2B1g    3.611671     9Ag     3.611671  
       8B1u    3.750397     6B2u    4.077550     6B3u    4.077550  
      10Ag     4.281204     2Au     4.286183     9B1u    4.286183  
       5B2g    4.488980     5B3g    4.488980     6B3g    4.522736  
       6B2g    4.522736     3B1g    4.569903    11Ag     4.569903  
      12Ag     4.774789    10B1u    5.373013     7B2u    5.960280  
       7B3u    5.960280     3Au     6.292795    11B1u    6.292795  
       7B2g    8.128996     7B3g    8.128996    12B1u    8.466499  
      13Ag     8.793080    13B1u   28.684985  

    Beta Occupied:                                                        

       1Ag   -14.376490     1B1u  -14.283004     2Ag    -1.243135  
       1B2u   -0.676444     1B3u   -0.676444     3Ag    -0.451236  
       2B1u   -0.425436  

    Beta Virtual:                                                         

       1B3g    0.203453     1B2g    0.203453     3B1u    0.306840  
       2B2u    0.322209     2B3u    0.322209     4Ag     0.370235  
       5Ag     0.542405     2B3g    0.656758     2B2g    0.656758  
       1B1g    0.838612     6Ag     0.838612     4B1u    0.889207  
       3B2u    1.357647     3B3u    1.357647     1Au     1.413505  
       5B1u    1.413505     6B1u    1.439035     7Ag     1.518627  
       3B3g    1.730937     3B2g    1.730937     4B3u    2.488021  
       4B2u    2.488021     7B1u    3.222230     8Ag     3.226679  
       5B3u    3.462912     5B2u    3.462912     4B2g    3.517286  
       4B3g    3.517286     2B1g    3.611671     9Ag     3.611671  
       8B1u    3.750397     6B2u    4.077550     6B3u    4.077550  
      10Ag     4.281204     2Au     4.286183     9B1u    4.286183  
       5B2g    4.488980     5B3g    4.488980     6B3g    4.522736  
       6B2g    4.522736     3B1g    4.569903    11Ag     4.569903  
      12Ag     4.774789    10B1u    5.373013     7B2u    5.960280  
       7B3u    5.960280     3Au     6.292795    11B1u    6.292795  
       7B2g    8.128996     7B3g    8.128996    12B1u    8.466499  
      13Ag     8.793080    13B1u   28.684985  

    Final Occupation by Irrep:
             Ag   B1g   B2g   B3g    Au   B1u   B2u   B3u 
    DOCC [     3,    0,    0,    0,    0,    2,    1,    1 ]
    SOCC [     0,    0,    0,    0,    0,    0,    0,    0 ]
    NA   [     3,    0,    0,    0,    0,    2,    1,    1 ]
    NB   [     3,    0,    0,    0,    0,    2,    1,    1 ]

  @DF-UKS Final Energy:  -108.26262052117063

   => Energetics <=

    Nuclear Repulsion Energy =             37.3150176040818167
    One-Electron Energy =                -218.4479262463768237
    Two-Electron Energy =                  84.6345958004684746
    DFT Exchange-Correlation Energy =     -11.7643076793440962
    Empirical Dispersion Energy =           0.0000000000000000
    VV10 Nonlocal Energy =                  0.0000000000000000
    Total Energy =                       -108.2626205211706321

  UHF NO Occupations:
  HONO-2 :    3 Ag 2.0000000
  HONO-1 :    1B3u 2.0000000
  HONO-0 :    2B1u 2.0000000
  LUNO+0 :    3B1u 0.0000000
  LUNO+1 :    4 Ag 0.0000000
  LUNO+2 :    4B1u 0.0000000
  LUNO+3 :    5B1u 0.0000000


Computation Completed


Properties will be evaluated at   0.000000,   0.000000,   0.000000 [a0]

Properties computed using the B3LYP density matrix


 Multipole Moments:

 ------------------------------------------------------------------------------------
     Multipole            Electronic (a.u.)      Nuclear  (a.u.)        Total (a.u.)
 ------------------------------------------------------------------------------------

 L = 1.  Multiply by 2.5417464519 to convert [e a0] to [Debye]
 Dipole X            :          0.0000000            0.0000000            0.0000000
 Dipole Y            :          0.0000000            0.0000000            0.0000000
 Dipole Z            :          0.0000000           -0.0000000           -0.0000000
 Magnitude           :                                                    0.0000000

 L = 2.  Multiply by 1.3450342976 to convert [e a0^2] to [Debye ang]
 Quadrupole XX       :         -6.3802230            0.0000000           -6.3802230
 Quadrupole XY       :          0.0000000            0.0000000            0.0000000
 Quadrupole XZ       :          0.0000000            0.0000000            0.0000000
 Quadrupole YY       :         -6.3802230            0.0000000           -6.3802230
 Quadrupole YZ       :          0.0000000            0.0000000            0.0000000
 Quadrupole ZZ       :        -14.3631231            6.0352172           -8.3279059
 Traceless XX        :          2.6609667           -2.0117391            0.6492276
 Traceless YY        :          2.6609667           -2.0117391            0.6492276
 Traceless ZZ        :         -5.3219334            4.0234781           -1.2984553

 ------------------------------------------------------------------------------------
  ==> Computing MBIS Charges <==

  Electron Count from Grid (Expected Number): 14.00000 (14.00000)
  Difference: -0.00000

  MBIS Charges: (a.u.)
   Center  Symbol  Z      Pop.       Charge
      1       N    7    6.999999    0.000001
      2       N    7    6.999999    0.000001

  MBIS Dipoles: [e a0]
   Center  Symbol  Z        X           Y           Z
      1       N    7    0.000000   -0.000000    0.153727
      2       N    7    0.000000    0.000000   -0.153727

  MBIS Quadrupoles: [e a0^2]
   Center  Symbol  Z      XX        XY        XZ        YY        YZ        ZZ
      1       N    7   -3.1901   -0.0000   -0.0000   -3.1901   -0.0000   -3.9621
      2       N    7   -3.1901   -0.0000    0.0000   -3.1901    0.0000   -3.9621

  MBIS Octupoles: [e a0^3]
   Center  Symbol  Z      XXX       XXY       XXZ       XYY       XYZ       XZZ       YYY       YYZ       YZZ       ZZZ
      1       N    7    0.0000   -0.0000    0.2659   -0.0000   -0.0000    0.0000   -0.0000    0.2659    0.0000    0.8513
      2       N    7    0.0000   -0.0000   -0.2659   -0.0000    0.0000    0.0000    0.0000   -0.2659   -0.0000   -0.8513

  MBIS Radial Moments:
   Center  Symbol  Z      [a0^2]      [a0^3]      [a0^4]      
      1       N    7   10.342310   20.393371   48.548928
      2       N    7   10.342310   20.393371   48.548928

  MBIS Valence Widths: [a0]
   Center  Symbol  Z     Width
      1       N    7    0.399011
      2       N    7    0.399011

*** tstop() called on Mac.lan at Sun Aug 10 17:06:21 2025
Module time:
	user time   =       4.01 seconds =       0.07 minutes
	system time =       2.57 seconds =       0.04 minutes
	total time  =          0 seconds =       0.00 minutes
Total time:
	user time   =      15.90 seconds =       0.26 minutes
	system time =       4.44 seconds =       0.07 minutes
	total time  =          2 seconds =       0.03 minutes

    Psi4 stopped on: Sunday, 10 August 2025 05:06PM
    Psi4 wall time for execution: 0:00:01.97

*** Psi4 exiting successfully. Buy a developer a beer!
