
    -----------------------------------------------------------------------
          Psi4: An Open-Source Ab Initio Electronic Structure Package
                               Psi4 1.9.1 release

                         Git: Rev {} zzzzzzz 


    D. G. A. Smith, L. A. Burns, A. C. Simmonett, R. M. Parrish,
    M. C. Schieber, R. Galvelis, P. Kraus, H. Kruse, R. Di Remigio,
    A. Alenaizan, A. M. James, S. Lehtola, J. P. Misiewicz, M. Scheurer,
    R. A. Shaw, J. B. Schriber, Y. Xie, Z. L. Glick, D. A. Sirianni,
    J. S. O'Brien, J. M. Waldrop, A. Kumar, E. G. Hohenstein,
    B. P. Pritchard, B. R. Brooks, H. F. Schaefer III, A. Yu. Sokolov,
    K. Patkowski, A. E. DePrince III, U. Bozkaya, R. A. King,
    F. A. Evangelista, J. M. Turney, T. D. Crawford, C. D. Sherrill,
    J. Chem. Phys. 152(18) 184108 (2020). https://doi.org/10.1063/5.0006002

                            Additional Code Authors
    E. T. Seidl, C. L. Janssen, E. F. Valeev, M. L. Leininger,
    J. F. Gonthier, R. M. Richard, H. R. McAlexander, M. Saitow, X. Wang,
    P. Verma, M. H. Lechner, A. Jiang, S. Behnle, A. G. Heide,
    M. F. Herbst, and D. L. Poole

             Previous Authors, Complete List of Code Contributors,
                       and Citations for Specific Modules
    https://github.com/psi4/psi4/blob/master/codemeta.json
    https://github.com/psi4/psi4/graphs/contributors
    http://psicode.org/psi4manual/master/introduction.html#citing-psifour

    -----------------------------------------------------------------------


    Psi4 started on: Sunday, 10 August 2025 05:27PM

    Process ID: 48847
    Host:       Mac.lan
    PSIDATADIR: /Users/joseantoniorodriguesromero/anaconda3/share/psi4
    Memory:     500.0 MiB
    Threads:    1
    
  ==> Input File <==

--------------------------------------------------------------------------
molecule { 
-1 2
O           0.000000           0.000000           0.000000
O           0.000000           0.000000           0.885939
}

set { 
basis              cc-pvtz
reference          uks
maxiter            500
DAMPING_PERCENTAGE 1
E_CONVERGENCE      1.0E-8
D_CONVERGENCE      1.0E-8
DIIS_MAX_VECS      400
MBIS_MAXITER       8000
guess              read
}

E, wfn = energy('b3lyp', restart_file='last_wfn', return_wfn=True)
properties('b3lyp','MBIS_CHARGES', wfn=wfn)
wfn.to_file('last_wfn')
--------------------------------------------------------------------------

Scratch directory: /tmp/
 Found user provided orbital data. Setting orbital guess to READ 
 Copying restart file <last_wfn.npy> to </tmp/scan_OO_14.default.48847.180.npy> for internal processing
   => Libint2 <=

    Primary   basis highest AM E, G, H:  6, 6, 3
    Auxiliary basis highest AM E, G, H:  7, 7, 4
    Onebody   basis highest AM E, G, H:  -, -, -
    Solid Harmonics ordering:            Gaussian

*** tstart() called on Mac.lan
*** at Sun Aug 10 17:27:28 2025

   => Loading Basis Set <=

    Name: CC-PVTZ
    Role: ORBITAL
    Keyword: BASIS
    atoms 1-2 entry O          line   262 file /Users/joseantoniorodriguesromero/anaconda3/share/psi4/basis/cc-pvtz.gbs 


         ---------------------------------------------------------
                                   SCF
               by Justin Turney, Rob Parrish, Andy Simmonett
                          and Daniel G. A. Smith
                              UKS Reference
                        1 Threads,    500 MiB Core
         ---------------------------------------------------------

  ==> Geometry <==

    Molecular point group: d2h
    Full point group: D_inf_h

    Geometry (in Angstrom), charge = -1, multiplicity = 2:

       Center              X                  Y                   Z               Mass       
    ------------   -----------------  -----------------  -----------------  -----------------
         O            0.000000000000     0.000000000000    -0.442969500000    15.994914619570
         O            0.000000000000     0.000000000000     0.442969500000    15.994914619570

  Running in d2h symmetry.

  Rotational constants: A = ************  B =      2.68557  C =      2.68557 [cm^-1]
  Rotational constants: A = ************  B =  80511.44631  C =  80511.44631 [MHz]
  Nuclear repulsion =   38.227622311332944

  Charge       = -1
  Multiplicity = 2
  Electrons    = 17
  Nalpha       = 9
  Nbeta        = 8

  ==> Algorithm <==

  SCF Algorithm Type is DF.
  DIIS enabled.
  MOM disabled.
  Fractional occupation disabled.
  Guess Type is READ.
  Energy threshold   = 1.00e-08
  Density threshold  = 1.00e-08
  Integral threshold = 1.00e-12

  ==> Primary Basis <==

  Basis Set: CC-PVTZ
    Blend: CC-PVTZ
    Number of shells: 20
    Number of basis functions: 60
    Number of Cartesian functions: 70
    Spherical Harmonics?: true
    Max angular momentum: 3

  ==> DFT Potential <==

   => LibXC <=

    Version 6.2.2
    S. Lehtola, C. Steigemann, M. J.T. Oliveira, and M. A.L. Marques.,  SoftwareX 7, 1–5 (2018) (10.1016/j.softx.2017.11.002)

   => Composite Functional: B3LYP <= 

    B3LYP Hyb-GGA Exchange-Correlation Functional

    P. J. Stephens, F. J. Devlin, C. F. Chabalowski, and M. J. Frisch.,  J. Phys. Chem. 98, 11623 (1994) (10.1021/j100096a001)

    Deriv               =              1
    GGA                 =           TRUE
    Meta                =          FALSE

    Exchange Hybrid     =           TRUE
    MP2 Hybrid          =          FALSE

   => Exchange Functionals <=

    0.0800   Slater exchange
    0.7200         Becke 88

   => Exact (HF) Exchange <=

    0.2000               HF 

   => Correlation Functionals <=

    0.1900   Vosko, Wilk & Nusair (VWN5_RPA)
    0.8100   Lee, Yang & Parr

   => LibXC Density Thresholds  <==

    XC_HYB_GGA_XC_B3LYP:  1.00E-15 

   => Molecular Quadrature <=

    Radial Scheme          =       TREUTLER
    Pruning Scheme         =           NONE
    Nuclear Scheme         =       TREUTLER

    Blocking Scheme        =         OCTREE
    BS radius alpha        =              1
    Pruning alpha          =              1
    Radial Points          =             75
    Spherical Points       =            302
    Total Points           =          42366
    Total Blocks           =            378
    Max Points             =            254
    Max Functions          =             60
    Weights Tolerance      =       1.00E-15

   => Loading Basis Set <=

    Name: (CC-PVTZ AUX)
    Role: JKFIT
    Keyword: DF_BASIS_SCF
    atoms 1-2 entry O          line   229 file /Users/joseantoniorodriguesromero/anaconda3/share/psi4/basis/cc-pvtz-jkfit.gbs 

   => Loading Basis Set <=

    Name: CC-PVTZ
    Role: ORBITAL
    Keyword: BASIS
    atoms 1-2 entry O          line   262 file /Users/joseantoniorodriguesromero/anaconda3/share/psi4/basis/cc-pvtz.gbs 

  Reading orbitals from file /tmp/scan_OO_14.default.48847.180.npy, no projection.

  ==> Integral Setup <==

  DFHelper Memory: AOs need 0.005 GiB; user supplied 0.296 GiB. 
  Using in-core AOs.

  ==> MemDFJK: Density-Fitted J/K Matrices <==

    J tasked:                   Yes
    K tasked:                   Yes
    wK tasked:                   No
    OpenMP threads:               1
    Memory [MiB]:               302
    Algorithm:                 Core
    Schwarz Cutoff:           1E-12
    Mask sparsity (%):       0.0000
    Fitting Condition:        1E-10

   => Auxiliary Basis Set <=

  Basis Set: (CC-PVTZ AUX)
    Blend: CC-PVTZ-JKFIT
    Number of shells: 50
    Number of basis functions: 158
    Number of Cartesian functions: 192
    Spherical Harmonics?: true
    Max angular momentum: 4

  Cached 100.0% of DFT collocation blocks in 0.070 [GiB].

  Minimum eigenvalue in the overlap matrix is 2.1160593779E-03.
  Reciprocal condition number of the overlap matrix is 5.5714214220E-04.
    Using symmetric orthogonalization.

  ==> Pre-Iterations <==

  SCF Guess: Orbitals guess was supplied from a previous computation.

   -------------------------------------------------------
    Irrep   Nso     Nmo     Nalpha   Nbeta   Ndocc  Nsocc
   -------------------------------------------------------
     Ag        13      13       3       3       3       0
     B1g        3       3       0       0       0       0
     B2g        7       7       1       1       1       0
     B3g        7       7       1       0       0       1
     Au         3       3       0       0       0       0
     B1u       13      13       2       2       2       0
     B2u        7       7       1       1       1       0
     B3u        7       7       1       1       1       0
   -------------------------------------------------------
    Total      60      60       9       8       8       1
   -------------------------------------------------------

  ==> Iterations <==

                           Total Energy        Delta E     RMS |[F,P]|

   @DF-UKS iter   0:  -149.90362714627844   -1.49904e+02   1.16006e-02 
   @DF-UKS iter   1:  -149.85914699008742    4.44802e-02   1.84324e-03 ADIIS/DIIS
   @DF-UKS iter   2:  -149.85885909626455    2.87894e-04   2.27818e-03 ADIIS/DIIS/DAMP=1%
   @DF-UKS iter   3:  -149.85776395248692    1.09514e-03   1.26632e-04 ADIIS/DIIS/DAMP=1%
   @DF-UKS iter   4:  -149.85980952964309   -2.04558e-03   1.75922e-05 DIIS/DAMP=1%
   @DF-UKS iter   5:  -149.85974615712328    6.33725e-05   1.40432e-06 DIIS/DAMP=1%
   @DF-UKS iter   6:  -149.85976010917892   -1.39521e-05   2.64059e-07 DIIS/DAMP=1%
   @DF-UKS iter   7:  -149.85975932545773    7.83721e-07   2.94028e-08 DIIS/DAMP=1%
   @DF-UKS iter   8:  -149.85975950099436   -1.75537e-07   2.47746e-09 DIIS/DAMP=1%
   @DF-UKS iter   9:  -149.85975949029714    1.06972e-08   3.34815e-10 DIIS/DAMP=1%
   @DF-UKS iter  10:  -149.85975948852553    1.77161e-09   1.41273e-11 DIIS/DAMP=1%
  Energy and wave function converged.


  ==> Post-Iterations <==

   Electrons on quadrature grid:
      Nalpha   =    8.9999996629 ; deviation = -3.371e-07
      Nbeta    =    7.9999997211 ; deviation = -2.789e-07
      Ntotal   =   16.9999993840 ; deviation = -6.160e-07 

   @Spin Contamination Metric:   1.580838968E-03
   @S^2 Expected:                7.500000000E-01
   @S^2 Observed:                7.515808390E-01
   @S   Expected:                5.000000000E-01
   @S   Observed:                5.000000000E-01

    Orbital Energies [Eh]
    ---------------------

    Alpha Occupied:                                                       

       1Ag   -18.782124     1B1u  -18.777721     2Ag    -1.192372  
       1B2u   -0.309387     2B1u   -0.304064     1B3u   -0.270475  
       3Ag    -0.186440     1B3g    0.260517     1B2g    0.299392  

    Alpha Virtual:                                                        

       3B1u    0.631346     2B2u    0.771508     2B3u    0.792158  
       4Ag     0.811433     2B3g    0.965194     2B2g    0.988029  
       5Ag     1.029320     4B1u    1.406532     1B1g    1.531448  
       6Ag     1.531783     5B1u    1.585726     3B2u    1.931264  
       3B3u    1.961032     1Au     2.151033     6B1u    2.151373  
       7Ag     2.516707     3B3g    2.634992     3B2g    2.660737  
       7B1u    3.079074     4B2u    3.799813     4B3u    3.833988  
       8Ag     4.272150     4B3g    4.398316     4B2g    4.434556  
       8B1u    4.791725     2B1g    5.001476     9Ag     5.001915  
       5B2u    5.056149     5B3u    5.056168     6B2u    5.335819  
       6B3u    5.365468     5B3g    5.832762     5B2g    5.832776  
      10Ag     5.903010     6B3g    6.330557     6B2g    6.359745  
      11Ag     6.447327     3B1g    6.447361     9B1u    6.614767  
       2Au     6.615782    10B1u    6.784588    12Ag     6.956516  
       3Au     7.096683    11B1u    7.097526     7B2u    7.296503  
       7B3u    7.328994    12B1u    8.439571     7B3g    9.342189  
       7B2g    9.374315    13Ag     9.752711    13B1u   25.663950  

    Beta Occupied:                                                        

       1Ag   -18.769597     1B1u  -18.765069     2Ag    -1.174553  
       2B1u   -0.264317     1B3u   -0.259894     1B2u   -0.238739  
       3Ag    -0.162700     1B2g    0.313132  

    Beta Virtual:                                                         

       1B3g    0.418902     3B1u    0.638796     2B2u    0.795862  
       2B3u    0.796034     4Ag     0.816674     2B2g    0.995805  
       2B3g    1.016309     5Ag     1.042402     4B1u    1.424690  
       1B1g    1.549702     6Ag     1.550781     5B1u    1.607962  
       3B3u    1.964498     3B2u    1.967464     1Au     2.183131  
       6B1u    2.184770     7Ag     2.526707     3B2g    2.665701  
       3B3g    2.671368     7B1u    3.093646     4B3u    3.843561  
       4B2u    3.852472     8Ag     4.284104     4B2g    4.445112  
       4B3g    4.453757     8B1u    4.814441     2B1g    5.016673  
       9Ag     5.017622     5B3u    5.083584     5B2u    5.083737  
       6B2u    5.367971     6B3u    5.369559     5B2g    5.867455  
       5B3g    5.867660    10Ag     5.916561     6B2g    6.364186  
       6B3g    6.370166     3B1g    6.491612    11Ag     6.494242  
       2Au     6.660888     9B1u    6.663582    10B1u    6.801809  
      12Ag     6.976135     3Au     7.121598    11B1u    7.122900  
       7B3u    7.333516     7B2u    7.334374    12B1u    8.454677  
       7B2g    9.379954     7B3g    9.381422    13Ag     9.770730  
      13B1u   25.681128  

    Final Occupation by Irrep:
             Ag   B1g   B2g   B3g    Au   B1u   B2u   B3u 
    DOCC [     3,    0,    1,    0,    0,    2,    1,    1 ]
    SOCC [     0,    0,    0,    1,    0,    0,    0,    0 ]
    NA   [     3,    0,    1,    1,    0,    2,    1,    1 ]
    NB   [     3,    0,    1,    0,    0,    2,    1,    1 ]

  @DF-UKS Final Energy:  -149.85975948852553

   => Energetics <=

    Nuclear Repulsion Energy =             38.2276223113329436
    One-Electron Energy =                -287.2390115029878643
    Two-Electron Energy =                 113.5888451473430365
    DFT Exchange-Correlation Energy =     -14.4372154442136349
    Empirical Dispersion Energy =           0.0000000000000000
    VV10 Nonlocal Energy =                  0.0000000000000000
    Total Energy =                       -149.8597594885255262

  UHF NO Occupations:
  HONO-2 :    2B1u 1.9997862
  HONO-1 :    1B2u 1.9996168
  HONO-0 :    1B3g 1.0000000
  LUNO+0 :    2B2u 0.0003832
  LUNO+1 :    3B1u 0.0002138
  LUNO+2 :    4 Ag 0.0001148
  LUNO+3 :    2B2g 0.0000577


Computation Completed


Properties will be evaluated at   0.000000,   0.000000,   0.000000 [a0]

Properties computed using the SCF density matrix


 Multipole Moments:

 ------------------------------------------------------------------------------------
     Multipole            Electronic (a.u.)      Nuclear  (a.u.)        Total (a.u.)
 ------------------------------------------------------------------------------------

 L = 1.  Multiply by 2.5417464519 to convert [e a0] to [Debye]
 Dipole X            :          0.0000000            0.0000000            0.0000000
 Dipole Y            :          0.0000000            0.0000000            0.0000000
 Dipole Z            :          0.0000000            0.0000000            0.0000000
 Magnitude           :                                                    0.0000000

 ------------------------------------------------------------------------------------

*** tstop() called on Mac.lan at Sun Aug 10 17:27:30 2025
Module time:
	user time   =      13.04 seconds =       0.22 minutes
	system time =       2.17 seconds =       0.04 minutes
	total time  =          2 seconds =       0.03 minutes
Total time:
	user time   =      13.04 seconds =       0.22 minutes
	system time =       2.17 seconds =       0.04 minutes
	total time  =          2 seconds =       0.03 minutes

*** tstart() called on Mac.lan
*** at Sun Aug 10 17:27:30 2025

   => Libint2 <=

    Primary   basis highest AM E, G, H:  6, 6, 3
    Auxiliary basis highest AM E, G, H:  7, 7, 4
    Onebody   basis highest AM E, G, H:  -, -, -
    Solid Harmonics ordering:            Gaussian
   => Loading Basis Set <=

    Name: CC-PVTZ
    Role: ORBITAL
    Keyword: BASIS
    atoms 1-2 entry O          line   262 file /Users/joseantoniorodriguesromero/anaconda3/share/psi4/basis/cc-pvtz.gbs 


         ---------------------------------------------------------
                                   SCF
               by Justin Turney, Rob Parrish, Andy Simmonett
                          and Daniel G. A. Smith
                              UKS Reference
                        1 Threads,    500 MiB Core
         ---------------------------------------------------------

  ==> Geometry <==

    Molecular point group: d2h
    Full point group: D_inf_h

    Geometry (in Angstrom), charge = -1, multiplicity = 2:

       Center              X                  Y                   Z               Mass       
    ------------   -----------------  -----------------  -----------------  -----------------
         O            0.000000000000     0.000000000000    -0.442969500000    15.994914619570
         O            0.000000000000     0.000000000000     0.442969500000    15.994914619570

  Running in d2h symmetry.

  Rotational constants: A = ************  B =      2.68557  C =      2.68557 [cm^-1]
  Rotational constants: A = ************  B =  80511.44631  C =  80511.44631 [MHz]
  Nuclear repulsion =   38.227622311332944

  Charge       = -1
  Multiplicity = 2
  Electrons    = 17
  Nalpha       = 9
  Nbeta        = 8

  ==> Algorithm <==

  SCF Algorithm Type is DF.
  DIIS enabled.
  MOM disabled.
  Fractional occupation disabled.
  Guess Type is READ.
  Energy threshold   = 1.00e-08
  Density threshold  = 1.00e-08
  Integral threshold = 1.00e-12

  ==> Primary Basis <==

  Basis Set: CC-PVTZ
    Blend: CC-PVTZ
    Number of shells: 20
    Number of basis functions: 60
    Number of Cartesian functions: 70
    Spherical Harmonics?: true
    Max angular momentum: 3

  ==> DFT Potential <==

   => LibXC <=

    Version 6.2.2
    S. Lehtola, C. Steigemann, M. J.T. Oliveira, and M. A.L. Marques.,  SoftwareX 7, 1–5 (2018) (10.1016/j.softx.2017.11.002)

   => Composite Functional: B3LYP <= 

    B3LYP Hyb-GGA Exchange-Correlation Functional

    P. J. Stephens, F. J. Devlin, C. F. Chabalowski, and M. J. Frisch.,  J. Phys. Chem. 98, 11623 (1994) (10.1021/j100096a001)

    Deriv               =              1
    GGA                 =           TRUE
    Meta                =          FALSE

    Exchange Hybrid     =           TRUE
    MP2 Hybrid          =          FALSE

   => Exchange Functionals <=

    0.0800   Slater exchange
    0.7200         Becke 88

   => Exact (HF) Exchange <=

    0.2000               HF 

   => Correlation Functionals <=

    0.1900   Vosko, Wilk & Nusair (VWN5_RPA)
    0.8100   Lee, Yang & Parr

   => LibXC Density Thresholds  <==

    XC_HYB_GGA_XC_B3LYP:  1.00E-15 

   => Molecular Quadrature <=

    Radial Scheme          =       TREUTLER
    Pruning Scheme         =           NONE
    Nuclear Scheme         =       TREUTLER

    Blocking Scheme        =         OCTREE
    BS radius alpha        =              1
    Pruning alpha          =              1
    Radial Points          =             75
    Spherical Points       =            302
    Total Points           =          42366
    Total Blocks           =            378
    Max Points             =            254
    Max Functions          =             60
    Weights Tolerance      =       1.00E-15

   => Loading Basis Set <=

    Name: (CC-PVTZ AUX)
    Role: JKFIT
    Keyword: DF_BASIS_SCF
    atoms 1-2 entry O          line   229 file /Users/joseantoniorodriguesromero/anaconda3/share/psi4/basis/cc-pvtz-jkfit.gbs 

   => Loading Basis Set <=

    Name: CC-PVTZ
    Role: ORBITAL
    Keyword: BASIS
    atoms 1-2 entry O          line   262 file /Users/joseantoniorodriguesromero/anaconda3/share/psi4/basis/cc-pvtz.gbs 

  Reading orbitals from file /tmp/scan_OO_14.default.48847.180.npy, no projection.

  ==> Integral Setup <==

  DFHelper Memory: AOs need 0.005 GiB; user supplied 0.296 GiB. 
  Using in-core AOs.

  ==> MemDFJK: Density-Fitted J/K Matrices <==

    J tasked:                   Yes
    K tasked:                   Yes
    wK tasked:                   No
    OpenMP threads:               1
    Memory [MiB]:               302
    Algorithm:                 Core
    Schwarz Cutoff:           1E-12
    Mask sparsity (%):       0.0000
    Fitting Condition:        1E-10

   => Auxiliary Basis Set <=

  Basis Set: (CC-PVTZ AUX)
    Blend: CC-PVTZ-JKFIT
    Number of shells: 50
    Number of basis functions: 158
    Number of Cartesian functions: 192
    Spherical Harmonics?: true
    Max angular momentum: 4

  Cached 100.0% of DFT collocation blocks in 0.070 [GiB].

  Minimum eigenvalue in the overlap matrix is 2.1160593779E-03.
  Reciprocal condition number of the overlap matrix is 5.5714214220E-04.
    Using symmetric orthogonalization.

  ==> Pre-Iterations <==

  SCF Guess: Orbitals guess was supplied from a previous computation.

   -------------------------------------------------------
    Irrep   Nso     Nmo     Nalpha   Nbeta   Ndocc  Nsocc
   -------------------------------------------------------
     Ag        13      13       3       3       3       0
     B1g        3       3       0       0       0       0
     B2g        7       7       1       1       1       0
     B3g        7       7       1       0       0       1
     Au         3       3       0       0       0       0
     B1u       13      13       2       2       2       0
     B2u        7       7       1       1       1       0
     B3u        7       7       1       1       1       0
   -------------------------------------------------------
    Total      60      60       9       8       8       1
   -------------------------------------------------------

  ==> Iterations <==

                           Total Energy        Delta E     RMS |[F,P]|

   @DF-UKS iter   0:  -149.85975948875927   -1.49860e+02   1.10657e-12 
   @DF-UKS iter   1:  -149.85975948875927    0.00000e+00   9.96146e-13 DIIS
  Energy and wave function converged.


  ==> Post-Iterations <==

   Electrons on quadrature grid:
      Nalpha   =    8.9999996629 ; deviation = -3.371e-07
      Nbeta    =    7.9999997211 ; deviation = -2.789e-07
      Ntotal   =   16.9999993840 ; deviation = -6.160e-07 

   @Spin Contamination Metric:   1.580838967E-03
   @S^2 Expected:                7.500000000E-01
   @S^2 Observed:                7.515808390E-01
   @S   Expected:                5.000000000E-01
   @S   Observed:                5.000000000E-01

    Orbital Energies [Eh]
    ---------------------

    Alpha Occupied:                                                       

       1Ag   -18.782124     1B1u  -18.777721     2Ag    -1.192372  
       1B2u   -0.309387     2B1u   -0.304064     1B3u   -0.270475  
       3Ag    -0.186440     1B3g    0.260517     1B2g    0.299392  

    Alpha Virtual:                                                        

       3B1u    0.631346     2B2u    0.771508     2B3u    0.792158  
       4Ag     0.811433     2B3g    0.965194     2B2g    0.988029  
       5Ag     1.029320     4B1u    1.406532     1B1g    1.531448  
       6Ag     1.531783     5B1u    1.585726     3B2u    1.931264  
       3B3u    1.961032     1Au     2.151033     6B1u    2.151373  
       7Ag     2.516707     3B3g    2.634992     3B2g    2.660737  
       7B1u    3.079074     4B2u    3.799813     4B3u    3.833988  
       8Ag     4.272150     4B3g    4.398316     4B2g    4.434556  
       8B1u    4.791725     2B1g    5.001476     9Ag     5.001915  
       5B2u    5.056149     5B3u    5.056168     6B2u    5.335819  
       6B3u    5.365468     5B3g    5.832762     5B2g    5.832776  
      10Ag     5.903010     6B3g    6.330557     6B2g    6.359745  
      11Ag     6.447327     3B1g    6.447361     9B1u    6.614767  
       2Au     6.615782    10B1u    6.784588    12Ag     6.956516  
       3Au     7.096683    11B1u    7.097526     7B2u    7.296503  
       7B3u    7.328994    12B1u    8.439571     7B3g    9.342189  
       7B2g    9.374315    13Ag     9.752711    13B1u   25.663950  

    Beta Occupied:                                                        

       1Ag   -18.769597     1B1u  -18.765069     2Ag    -1.174553  
       2B1u   -0.264317     1B3u   -0.259894     1B2u   -0.238739  
       3Ag    -0.162700     1B2g    0.313132  

    Beta Virtual:                                                         

       1B3g    0.418902     3B1u    0.638796     2B2u    0.795862  
       2B3u    0.796034     4Ag     0.816674     2B2g    0.995805  
       2B3g    1.016309     5Ag     1.042402     4B1u    1.424690  
       1B1g    1.549702     6Ag     1.550781     5B1u    1.607962  
       3B3u    1.964498     3B2u    1.967464     1Au     2.183131  
       6B1u    2.184770     7Ag     2.526707     3B2g    2.665701  
       3B3g    2.671368     7B1u    3.093646     4B3u    3.843561  
       4B2u    3.852472     8Ag     4.284104     4B2g    4.445112  
       4B3g    4.453757     8B1u    4.814441     2B1g    5.016673  
       9Ag     5.017622     5B3u    5.083584     5B2u    5.083737  
       6B2u    5.367971     6B3u    5.369559     5B2g    5.867455  
       5B3g    5.867660    10Ag     5.916561     6B2g    6.364186  
       6B3g    6.370166     3B1g    6.491612    11Ag     6.494242  
       2Au     6.660888     9B1u    6.663582    10B1u    6.801809  
      12Ag     6.976135     3Au     7.121598    11B1u    7.122900  
       7B3u    7.333516     7B2u    7.334374    12B1u    8.454677  
       7B2g    9.379954     7B3g    9.381422    13Ag     9.770730  
      13B1u   25.681128  

    Final Occupation by Irrep:
             Ag   B1g   B2g   B3g    Au   B1u   B2u   B3u 
    DOCC [     3,    0,    1,    0,    0,    2,    1,    1 ]
    SOCC [     0,    0,    0,    1,    0,    0,    0,    0 ]
    NA   [     3,    0,    1,    1,    0,    2,    1,    1 ]
    NB   [     3,    0,    1,    0,    0,    2,    1,    1 ]

  @DF-UKS Final Energy:  -149.85975948875927

   => Energetics <=

    Nuclear Repulsion Energy =             38.2276223113329436
    One-Electron Energy =                -287.2390115023272301
    Two-Electron Energy =                 113.5888451463984836
    DFT Exchange-Correlation Energy =     -14.4372154441634475
    Empirical Dispersion Energy =           0.0000000000000000
    VV10 Nonlocal Energy =                  0.0000000000000000
    Total Energy =                       -149.8597594887592663

  UHF NO Occupations:
  HONO-2 :    2B1u 1.9997862
  HONO-1 :    1B2u 1.9996168
  HONO-0 :    1B3g 1.0000000
  LUNO+0 :    2B2u 0.0003832
  LUNO+1 :    3B1u 0.0002138
  LUNO+2 :    4 Ag 0.0001148
  LUNO+3 :    2B2g 0.0000577


Computation Completed


Properties will be evaluated at   0.000000,   0.000000,   0.000000 [a0]

Properties computed using the B3LYP density matrix


 Multipole Moments:

 ------------------------------------------------------------------------------------
     Multipole            Electronic (a.u.)      Nuclear  (a.u.)        Total (a.u.)
 ------------------------------------------------------------------------------------

 L = 1.  Multiply by 2.5417464519 to convert [e a0] to [Debye]
 Dipole X            :          0.0000000            0.0000000            0.0000000
 Dipole Y            :          0.0000000            0.0000000            0.0000000
 Dipole Z            :          0.0000000            0.0000000            0.0000000
 Magnitude           :                                                    0.0000000

 L = 2.  Multiply by 1.3450342976 to convert [e a0^2] to [Debye ang]
 Quadrupole XX       :         -9.2261610            0.0000000           -9.2261610
 Quadrupole XY       :          0.0000000            0.0000000            0.0000000
 Quadrupole XZ       :          0.0000000            0.0000000            0.0000000
 Quadrupole YY       :         -8.2058422            0.0000000           -8.2058422
 Quadrupole YZ       :          0.0000000            0.0000000            0.0000000
 Quadrupole ZZ       :        -22.5803332           11.2115425          -11.3687907
 Traceless XX        :          4.1112845           -3.7371808            0.3741036
 Traceless YY        :          5.1316032           -3.7371808            1.3944224
 Traceless ZZ        :         -9.2428877            7.4743616           -1.7685261

 ------------------------------------------------------------------------------------
  ==> Computing MBIS Charges <==

  Electron Count from Grid (Expected Number): 17.00000 (17.00000)
  Difference: -0.00000

  MBIS Charges: (a.u.)
   Center  Symbol  Z      Pop.       Charge
      1       O    8    8.500000   -0.500000
      2       O    8    8.500000   -0.500000

  MBIS Dipoles: [e a0]
   Center  Symbol  Z        X           Y           Z
      1       O    8   -0.000000   -0.000000    0.382183
      2       O    8   -0.000000    0.000000   -0.382183

  MBIS Quadrupoles: [e a0^2]
   Center  Symbol  Z      XX        XY        XZ        YY        YZ        ZZ
      1       O    8   -4.6131   -0.0000   -0.0000   -4.1029   -0.0000   -4.6942
      2       O    8   -4.6131   -0.0000   -0.0000   -4.1029    0.0000   -4.6942

  MBIS Octupoles: [e a0^3]
   Center  Symbol  Z      XXX       XXY       XXZ       XYY       XYZ       XZZ       YYY       YYZ       YZZ       ZZZ
      1       O    8   -0.0000   -0.0000    0.8390    0.0000   -0.0000    0.0000    0.0000    0.5872    0.0000    0.3402
      2       O    8   -0.0000   -0.0000   -0.8390    0.0000    0.0000    0.0000    0.0000   -0.5872   -0.0000   -0.3402

  MBIS Radial Moments:
   Center  Symbol  Z      [a0^2]      [a0^3]      [a0^4]      
      1       O    8   13.410192   27.161840   66.116076
      2       O    8   13.410192   27.161840   66.116076

  MBIS Valence Widths: [a0]
   Center  Symbol  Z     Width
      1       O    8    0.402687
      2       O    8    0.402687

*** tstop() called on Mac.lan at Sun Aug 10 17:27:30 2025
Module time:
	user time   =       3.67 seconds =       0.06 minutes
	system time =       1.90 seconds =       0.03 minutes
	total time  =          0 seconds =       0.00 minutes
Total time:
	user time   =      16.74 seconds =       0.28 minutes
	system time =       4.28 seconds =       0.07 minutes
	total time  =          2 seconds =       0.03 minutes

    Psi4 stopped on: Sunday, 10 August 2025 05:27PM
    Psi4 wall time for execution: 0:00:02.04

*** Psi4 exiting successfully. Buy a developer a beer!
