
    -----------------------------------------------------------------------
          Psi4: An Open-Source Ab Initio Electronic Structure Package
                               Psi4 1.9.1 release

                         Git: Rev {} zzzzzzz 


    D. G. A. Smith, L. A. Burns, A. C. Simmonett, R. M. Parrish,
    M. C. Schieber, R. Galvelis, P. Kraus, H. Kruse, R. Di Remigio,
    A. Alenaizan, A. M. James, S. Lehtola, J. P. Misiewicz, M. Scheurer,
    R. A. Shaw, J. B. Schriber, Y. Xie, Z. L. Glick, D. A. Sirianni,
    J. S. O'Brien, J. M. Waldrop, A. Kumar, E. G. Hohenstein,
    B. P. Pritchard, B. R. Brooks, H. F. Schaefer III, A. Yu. Sokolov,
    K. Patkowski, A. E. DePrince III, U. Bozkaya, R. A. King,
    F. A. Evangelista, J. M. Turney, T. D. Crawford, C. D. Sherrill,
    J. Chem. Phys. 152(18) 184108 (2020). https://doi.org/10.1063/5.0006002

                            Additional Code Authors
    E. T. Seidl, C. L. Janssen, E. F. Valeev, M. L. Leininger,
    J. F. Gonthier, R. M. Richard, H. R. McAlexander, M. Saitow, X. Wang,
    P. Verma, M. H. Lechner, A. Jiang, S. Behnle, A. G. Heide,
    M. F. Herbst, and D. L. Poole

             Previous Authors, Complete List of Code Contributors,
                       and Citations for Specific Modules
    https://github.com/psi4/psi4/blob/master/codemeta.json
    https://github.com/psi4/psi4/graphs/contributors
    http://psicode.org/psi4manual/master/introduction.html#citing-psifour

    -----------------------------------------------------------------------


    Psi4 started on: Sunday, 10 August 2025 05:26PM

    Process ID: 48811
    Host:       Mac.lan
    PSIDATADIR: /Users/joseantoniorodriguesromero/anaconda3/share/psi4
    Memory:     500.0 MiB
    Threads:    1
    
  ==> Input File <==

--------------------------------------------------------------------------
molecule { 
-1 2
H           0.000000           0.000000           0.000000
H           0.000000           0.000000           1.718231
}

set { 
basis              cc-pvtz
reference          uks
maxiter            500
DAMPING_PERCENTAGE 1
E_CONVERGENCE      1.0E-8
D_CONVERGENCE      1.0E-8
DIIS_MAX_VECS      400
MBIS_MAXITER       8000
guess              read
}

E, wfn = energy('b3lyp', restart_file='last_wfn', return_wfn=True)
properties('b3lyp','MBIS_CHARGES', wfn=wfn)
wfn.to_file('last_wfn')
--------------------------------------------------------------------------

Scratch directory: /tmp/
 Found user provided orbital data. Setting orbital guess to READ 
 Copying restart file <last_wfn.npy> to </tmp/scan_HH_49.default.48811.180.npy> for internal processing
   => Libint2 <=

    Primary   basis highest AM E, G, H:  6, 6, 3
    Auxiliary basis highest AM E, G, H:  7, 7, 4
    Onebody   basis highest AM E, G, H:  -, -, -
    Solid Harmonics ordering:            Gaussian

*** tstart() called on Mac.lan
*** at Sun Aug 10 17:26:38 2025

   => Loading Basis Set <=

    Name: CC-PVTZ
    Role: ORBITAL
    Keyword: BASIS
    atoms 1-2 entry H          line    23 file /Users/joseantoniorodriguesromero/anaconda3/share/psi4/basis/cc-pvtz.gbs 


         ---------------------------------------------------------
                                   SCF
               by Justin Turney, Rob Parrish, Andy Simmonett
                          and Daniel G. A. Smith
                              UKS Reference
                        1 Threads,    500 MiB Core
         ---------------------------------------------------------

  ==> Geometry <==

    Molecular point group: d2h
    Full point group: D_inf_h

    Geometry (in Angstrom), charge = -1, multiplicity = 2:

       Center              X                  Y                   Z               Mass       
    ------------   -----------------  -----------------  -----------------  -----------------
         H            0.000000000000     0.000000000000    -0.859115500000     1.007825032230
         H            0.000000000000     0.000000000000     0.859115500000     1.007825032230

  Running in d2h symmetry.

  Rotational constants: A = ************  B =     11.33126  C =     11.33126 [cm^-1]
  Rotational constants: A = ************  B = 339702.66459  C = 339702.66459 [MHz]
  Nuclear repulsion =    0.307977920704492

  Charge       = -1
  Multiplicity = 2
  Electrons    = 3
  Nalpha       = 2
  Nbeta        = 1

  ==> Algorithm <==

  SCF Algorithm Type is DF.
  DIIS enabled.
  MOM disabled.
  Fractional occupation disabled.
  Guess Type is READ.
  Energy threshold   = 1.00e-08
  Density threshold  = 1.00e-08
  Integral threshold = 1.00e-12

  ==> Primary Basis <==

  Basis Set: CC-PVTZ
    Blend: CC-PVTZ
    Number of shells: 12
    Number of basis functions: 28
    Number of Cartesian functions: 30
    Spherical Harmonics?: true
    Max angular momentum: 2

  ==> DFT Potential <==

   => LibXC <=

    Version 6.2.2
    S. Lehtola, C. Steigemann, M. J.T. Oliveira, and M. A.L. Marques.,  SoftwareX 7, 1–5 (2018) (10.1016/j.softx.2017.11.002)

   => Composite Functional: B3LYP <= 

    B3LYP Hyb-GGA Exchange-Correlation Functional

    P. J. Stephens, F. J. Devlin, C. F. Chabalowski, and M. J. Frisch.,  J. Phys. Chem. 98, 11623 (1994) (10.1021/j100096a001)

    Deriv               =              1
    GGA                 =           TRUE
    Meta                =          FALSE

    Exchange Hybrid     =           TRUE
    MP2 Hybrid          =          FALSE

   => Exchange Functionals <=

    0.0800   Slater exchange
    0.7200         Becke 88

   => Exact (HF) Exchange <=

    0.2000               HF 

   => Correlation Functionals <=

    0.1900   Vosko, Wilk & Nusair (VWN5_RPA)
    0.8100   Lee, Yang & Parr

   => LibXC Density Thresholds  <==

    XC_HYB_GGA_XC_B3LYP:  1.00E-15 

   => Molecular Quadrature <=

    Radial Scheme          =       TREUTLER
    Pruning Scheme         =           NONE
    Nuclear Scheme         =       TREUTLER

    Blocking Scheme        =         OCTREE
    BS radius alpha        =              1
    Pruning alpha          =              1
    Radial Points          =             75
    Spherical Points       =            302
    Total Points           =          44666
    Total Blocks           =            392
    Max Points             =            255
    Max Functions          =             28
    Weights Tolerance      =       1.00E-15

   => Loading Basis Set <=

    Name: (CC-PVTZ AUX)
    Role: JKFIT
    Keyword: DF_BASIS_SCF
    atoms 1-2 entry H          line    51 file /Users/joseantoniorodriguesromero/anaconda3/share/psi4/basis/cc-pvtz-jkfit.gbs 

   => Loading Basis Set <=

    Name: CC-PVTZ
    Role: ORBITAL
    Keyword: BASIS
    atoms 1-2 entry H          line    23 file /Users/joseantoniorodriguesromero/anaconda3/share/psi4/basis/cc-pvtz.gbs 

  Reading orbitals from file /tmp/scan_HH_49.default.48811.180.npy, no projection.

  ==> Integral Setup <==

  DFHelper Memory: AOs need 0.001 GiB; user supplied 0.330 GiB. 
  Using in-core AOs.

  ==> MemDFJK: Density-Fitted J/K Matrices <==

    J tasked:                   Yes
    K tasked:                   Yes
    wK tasked:                   No
    OpenMP threads:               1
    Memory [MiB]:               337
    Algorithm:                 Core
    Schwarz Cutoff:           1E-12
    Mask sparsity (%):       0.0000
    Fitting Condition:        1E-10

   => Auxiliary Basis Set <=

  Basis Set: (CC-PVTZ AUX)
    Blend: CC-PVTZ-JKFIT
    Number of shells: 20
    Number of basis functions: 60
    Number of Cartesian functions: 70
    Spherical Harmonics?: true
    Max angular momentum: 3

  Cached 100.0% of DFT collocation blocks in 0.036 [GiB].

  Minimum eigenvalue in the overlap matrix is 9.1684838187E-02.
  Reciprocal condition number of the overlap matrix is 3.8133444404E-02.
    Using symmetric orthogonalization.

  ==> Pre-Iterations <==

  SCF Guess: Orbitals guess was supplied from a previous computation.

   -------------------------------------------------------
    Irrep   Nso     Nmo     Nalpha   Nbeta   Ndocc  Nsocc
   -------------------------------------------------------
     Ag         7       7       1       1       1       0
     B1g        1       1       0       0       0       0
     B2g        3       3       0       0       0       0
     B3g        3       3       0       0       0       0
     Au         1       1       0       0       0       0
     B1u        7       7       1       0       0       1
     B2u        3       3       0       0       0       0
     B3u        3       3       0       0       0       0
   -------------------------------------------------------
    Total      28      28       2       1       1       1
   -------------------------------------------------------

  ==> Iterations <==

                           Total Energy        Delta E     RMS |[F,P]|

   @DF-UKS iter   0:    -1.05426781065037   -1.05427e+00   4.10455e-04 
   @DF-UKS iter   1:    -1.05596185352064   -1.69404e-03   5.60402e-05 DIIS
   @DF-UKS iter   2:    -1.05596248430137   -6.30781e-07   1.43095e-05 DIIS/DAMP=1%
   @DF-UKS iter   3:    -1.05596335351018   -8.69209e-07   4.18770e-06 DIIS/DAMP=1%
   @DF-UKS iter   4:    -1.05596231595102    1.03756e-06   7.10076e-07 DIIS/DAMP=1%
   @DF-UKS iter   5:    -1.05596254144735   -2.25496e-07   6.98642e-08 DIIS/DAMP=1%
   @DF-UKS iter   6:    -1.05596252657118    1.48762e-08   7.79040e-09 DIIS/DAMP=1%
   @DF-UKS iter   7:    -1.05596252993729   -3.36610e-09   5.38298e-10 DIIS/DAMP=1%
  Energy and wave function converged.


  ==> Post-Iterations <==

   Electrons on quadrature grid:
      Nalpha   =    1.9999999711 ; deviation = -2.886e-08
      Nbeta    =    0.9999999884 ; deviation = -1.162e-08
      Ntotal   =    2.9999999595 ; deviation = -4.048e-08 

   @Spin Contamination Metric:   5.983458420E-03
   @S^2 Expected:                7.500000000E-01
   @S^2 Observed:                7.559834584E-01
   @S   Expected:                5.000000000E-01
   @S   Observed:                5.000000000E-01

    Orbital Energies [Eh]
    ---------------------

    Alpha Occupied:                                                       

       1Ag    -0.030190     1B1u    0.089579  

    Alpha Virtual:                                                        

       2Ag     0.508725     2B1u    0.527984     1B3u    0.812649  
       1B2u    0.812649     3Ag     0.862299     1B2g    0.999839  
       1B3g    0.999839     3B1u    1.347729     4Ag     2.451451  
       4B1u    2.641340     5Ag     3.271057     2B3u    3.335969  
       2B2u    3.335969     6Ag     3.481159     1B1g    3.481162  
       5B1u    3.524313     1Au     3.524315     2B3g    3.663849  
       2B2g    3.663849     6B1u    3.840704     3B2u    3.871353  
       3B3u    3.871353     3B2g    4.013231     3B3g    4.013231  
       7Ag     4.095082     7B1u    4.708204  

    Beta Occupied:                                                        

       1Ag     0.028534  

    Beta Virtual:                                                         

       1B1u    0.204503     2Ag     0.536921     2B1u    0.576911  
       1B3u    0.841758     1B2u    0.841758     3Ag     0.898574  
       1B2g    1.042424     1B3g    1.042424     3B1u    1.391430  
       4Ag     2.528536     4B1u    2.716363     5Ag     3.313036  
       2B3u    3.383547     2B2u    3.383547     6Ag     3.530625  
       1B1g    3.530627     5B1u    3.574371     1Au     3.574374  
       2B3g    3.707917     2B2g    3.707917     6B1u    3.892868  
       3B2u    3.935908     3B3u    3.935908     3B2g    4.082971  
       3B3g    4.082971     7Ag     4.157742     7B1u    4.765294  

    Final Occupation by Irrep:
             Ag   B1g   B2g   B3g    Au   B1u   B2u   B3u 
    DOCC [     1,    0,    0,    0,    0,    0,    0,    0 ]
    SOCC [     0,    0,    0,    0,    0,    1,    0,    0 ]
    NA   [     1,    0,    0,    0,    0,    1,    0,    0 ]
    NB   [     1,    0,    0,    0,    0,    0,    0,    0 ]

  @DF-UKS Final Energy:    -1.05596252993729

   => Energetics <=

    Nuclear Repulsion Energy =              0.3079779207044922
    One-Electron Energy =                  -2.3337622250236256
    Two-Electron Energy =                   1.6328935386501477
    DFT Exchange-Correlation Energy =      -0.6630717642682999
    Empirical Dispersion Energy =           0.0000000000000000
    VV10 Nonlocal Energy =                  0.0000000000000000
    Total Energy =                         -1.0559625299372855

  UHF NO Occupations:
  HONO-1 :    1 Ag 1.9970038
  HONO-0 :    1B1u 1.0000000
  LUNO+0 :    2 Ag 0.0029962
  LUNO+1 :    3 Ag 0.0000000
  LUNO+2 :    2B1u 0.0000000
  LUNO+3 :    3B1u 0.0000000


Computation Completed


Properties will be evaluated at   0.000000,   0.000000,   0.000000 [a0]

Properties computed using the SCF density matrix


 Multipole Moments:

 ------------------------------------------------------------------------------------
     Multipole            Electronic (a.u.)      Nuclear  (a.u.)        Total (a.u.)
 ------------------------------------------------------------------------------------

 L = 1.  Multiply by 2.5417464519 to convert [e a0] to [Debye]
 Dipole X            :          0.0000000            0.0000000            0.0000000
 Dipole Y            :          0.0000000            0.0000000            0.0000000
 Dipole Z            :          0.0000000            0.0000000            0.0000000
 Magnitude           :                                                    0.0000000

 ------------------------------------------------------------------------------------

*** tstop() called on Mac.lan at Sun Aug 10 17:26:39 2025
Module time:
	user time   =       0.83 seconds =       0.01 minutes
	system time =       2.09 seconds =       0.03 minutes
	total time  =          1 seconds =       0.02 minutes
Total time:
	user time   =       0.83 seconds =       0.01 minutes
	system time =       2.09 seconds =       0.03 minutes
	total time  =          1 seconds =       0.02 minutes

*** tstart() called on Mac.lan
*** at Sun Aug 10 17:26:39 2025

   => Libint2 <=

    Primary   basis highest AM E, G, H:  6, 6, 3
    Auxiliary basis highest AM E, G, H:  7, 7, 4
    Onebody   basis highest AM E, G, H:  -, -, -
    Solid Harmonics ordering:            Gaussian
   => Loading Basis Set <=

    Name: CC-PVTZ
    Role: ORBITAL
    Keyword: BASIS
    atoms 1-2 entry H          line    23 file /Users/joseantoniorodriguesromero/anaconda3/share/psi4/basis/cc-pvtz.gbs 


         ---------------------------------------------------------
                                   SCF
               by Justin Turney, Rob Parrish, Andy Simmonett
                          and Daniel G. A. Smith
                              UKS Reference
                        1 Threads,    500 MiB Core
         ---------------------------------------------------------

  ==> Geometry <==

    Molecular point group: d2h
    Full point group: D_inf_h

    Geometry (in Angstrom), charge = -1, multiplicity = 2:

       Center              X                  Y                   Z               Mass       
    ------------   -----------------  -----------------  -----------------  -----------------
         H            0.000000000000     0.000000000000    -0.859115500000     1.007825032230
         H            0.000000000000     0.000000000000     0.859115500000     1.007825032230

  Running in d2h symmetry.

  Rotational constants: A = ************  B =     11.33126  C =     11.33126 [cm^-1]
  Rotational constants: A = ************  B = 339702.66459  C = 339702.66459 [MHz]
  Nuclear repulsion =    0.307977920704492

  Charge       = -1
  Multiplicity = 2
  Electrons    = 3
  Nalpha       = 2
  Nbeta        = 1

  ==> Algorithm <==

  SCF Algorithm Type is DF.
  DIIS enabled.
  MOM disabled.
  Fractional occupation disabled.
  Guess Type is READ.
  Energy threshold   = 1.00e-08
  Density threshold  = 1.00e-08
  Integral threshold = 1.00e-12

  ==> Primary Basis <==

  Basis Set: CC-PVTZ
    Blend: CC-PVTZ
    Number of shells: 12
    Number of basis functions: 28
    Number of Cartesian functions: 30
    Spherical Harmonics?: true
    Max angular momentum: 2

  ==> DFT Potential <==

   => LibXC <=

    Version 6.2.2
    S. Lehtola, C. Steigemann, M. J.T. Oliveira, and M. A.L. Marques.,  SoftwareX 7, 1–5 (2018) (10.1016/j.softx.2017.11.002)

   => Composite Functional: B3LYP <= 

    B3LYP Hyb-GGA Exchange-Correlation Functional

    P. J. Stephens, F. J. Devlin, C. F. Chabalowski, and M. J. Frisch.,  J. Phys. Chem. 98, 11623 (1994) (10.1021/j100096a001)

    Deriv               =              1
    GGA                 =           TRUE
    Meta                =          FALSE

    Exchange Hybrid     =           TRUE
    MP2 Hybrid          =          FALSE

   => Exchange Functionals <=

    0.0800   Slater exchange
    0.7200         Becke 88

   => Exact (HF) Exchange <=

    0.2000               HF 

   => Correlation Functionals <=

    0.1900   Vosko, Wilk & Nusair (VWN5_RPA)
    0.8100   Lee, Yang & Parr

   => LibXC Density Thresholds  <==

    XC_HYB_GGA_XC_B3LYP:  1.00E-15 

   => Molecular Quadrature <=

    Radial Scheme          =       TREUTLER
    Pruning Scheme         =           NONE
    Nuclear Scheme         =       TREUTLER

    Blocking Scheme        =         OCTREE
    BS radius alpha        =              1
    Pruning alpha          =              1
    Radial Points          =             75
    Spherical Points       =            302
    Total Points           =          44666
    Total Blocks           =            392
    Max Points             =            255
    Max Functions          =             28
    Weights Tolerance      =       1.00E-15

   => Loading Basis Set <=

    Name: (CC-PVTZ AUX)
    Role: JKFIT
    Keyword: DF_BASIS_SCF
    atoms 1-2 entry H          line    51 file /Users/joseantoniorodriguesromero/anaconda3/share/psi4/basis/cc-pvtz-jkfit.gbs 

   => Loading Basis Set <=

    Name: CC-PVTZ
    Role: ORBITAL
    Keyword: BASIS
    atoms 1-2 entry H          line    23 file /Users/joseantoniorodriguesromero/anaconda3/share/psi4/basis/cc-pvtz.gbs 

  Reading orbitals from file /tmp/scan_HH_49.default.48811.180.npy, no projection.

  ==> Integral Setup <==

  DFHelper Memory: AOs need 0.001 GiB; user supplied 0.330 GiB. 
  Using in-core AOs.

  ==> MemDFJK: Density-Fitted J/K Matrices <==

    J tasked:                   Yes
    K tasked:                   Yes
    wK tasked:                   No
    OpenMP threads:               1
    Memory [MiB]:               337
    Algorithm:                 Core
    Schwarz Cutoff:           1E-12
    Mask sparsity (%):       0.0000
    Fitting Condition:        1E-10

   => Auxiliary Basis Set <=

  Basis Set: (CC-PVTZ AUX)
    Blend: CC-PVTZ-JKFIT
    Number of shells: 20
    Number of basis functions: 60
    Number of Cartesian functions: 70
    Spherical Harmonics?: true
    Max angular momentum: 3

  Cached 100.0% of DFT collocation blocks in 0.036 [GiB].

  Minimum eigenvalue in the overlap matrix is 9.1684838187E-02.
  Reciprocal condition number of the overlap matrix is 3.8133444404E-02.
    Using symmetric orthogonalization.

  ==> Pre-Iterations <==

  SCF Guess: Orbitals guess was supplied from a previous computation.

   -------------------------------------------------------
    Irrep   Nso     Nmo     Nalpha   Nbeta   Ndocc  Nsocc
   -------------------------------------------------------
     Ag         7       7       1       1       1       0
     B1g        1       1       0       0       0       0
     B2g        3       3       0       0       0       0
     B3g        3       3       0       0       0       0
     Au         1       1       0       0       0       0
     B1u        7       7       1       0       0       1
     B2u        3       3       0       0       0       0
     B3u        3       3       0       0       0       0
   -------------------------------------------------------
    Total      28      28       2       1       1       1
   -------------------------------------------------------

  ==> Iterations <==

                           Total Energy        Delta E     RMS |[F,P]|

   @DF-UKS iter   0:    -1.05596252965397   -1.05596e+00   5.04270e-11 
   @DF-UKS iter   1:    -1.05596252965397   -4.44089e-16   1.53496e-11 DIIS
  Energy and wave function converged.


  ==> Post-Iterations <==

   Electrons on quadrature grid:
      Nalpha   =    1.9999999711 ; deviation = -2.886e-08
      Nbeta    =    0.9999999884 ; deviation = -1.162e-08
      Ntotal   =    2.9999999595 ; deviation = -4.048e-08 

   @Spin Contamination Metric:   5.983458418E-03
   @S^2 Expected:                7.500000000E-01
   @S^2 Observed:                7.559834584E-01
   @S   Expected:                5.000000000E-01
   @S   Observed:                5.000000000E-01

    Orbital Energies [Eh]
    ---------------------

    Alpha Occupied:                                                       

       1Ag    -0.030190     1B1u    0.089579  

    Alpha Virtual:                                                        

       2Ag     0.508725     2B1u    0.527984     1B2u    0.812649  
       1B3u    0.812649     3Ag     0.862299     1B3g    0.999839  
       1B2g    0.999839     3B1u    1.347729     4Ag     2.451451  
       4B1u    2.641340     5Ag     3.271057     2B3u    3.335969  
       2B2u    3.335969     6Ag     3.481159     1B1g    3.481162  
       5B1u    3.524313     1Au     3.524315     2B3g    3.663849  
       2B2g    3.663849     6B1u    3.840704     3B2u    3.871353  
       3B3u    3.871353     3B2g    4.013231     3B3g    4.013231  
       7Ag     4.095082     7B1u    4.708204  

    Beta Occupied:                                                        

       1Ag     0.028534  

    Beta Virtual:                                                         

       1B1u    0.204503     2Ag     0.536921     2B1u    0.576911  
       1B2u    0.841758     1B3u    0.841758     3Ag     0.898574  
       1B2g    1.042424     1B3g    1.042424     3B1u    1.391430  
       4Ag     2.528536     4B1u    2.716363     5Ag     3.313036  
       2B3u    3.383547     2B2u    3.383547     6Ag     3.530625  
       1B1g    3.530628     5B1u    3.574371     1Au     3.574374  
       2B3g    3.707917     2B2g    3.707917     6B1u    3.892868  
       3B2u    3.935908     3B3u    3.935908     3B2g    4.082971  
       3B3g    4.082971     7Ag     4.157742     7B1u    4.765294  

    Final Occupation by Irrep:
             Ag   B1g   B2g   B3g    Au   B1u   B2u   B3u 
    DOCC [     1,    0,    0,    0,    0,    0,    0,    0 ]
    SOCC [     0,    0,    0,    0,    0,    1,    0,    0 ]
    NA   [     1,    0,    0,    0,    0,    1,    0,    0 ]
    NB   [     1,    0,    0,    0,    0,    0,    0,    0 ]

  @DF-UKS Final Energy:    -1.05596252965397

   => Energetics <=

    Nuclear Repulsion Energy =              0.3079779207044922
    One-Electron Energy =                  -2.3337622279874104
    Two-Electron Energy =                   1.6328935448143991
    DFT Exchange-Correlation Energy =      -0.6630717671854481
    Empirical Dispersion Energy =           0.0000000000000000
    VV10 Nonlocal Energy =                  0.0000000000000000
    Total Energy =                         -1.0559625296539670

  UHF NO Occupations:
  HONO-1 :    1 Ag 1.9970038
  HONO-0 :    1B1u 1.0000000
  LUNO+0 :    2 Ag 0.0029962
  LUNO+1 :    3 Ag 0.0000000
  LUNO+2 :    2B1u 0.0000000
  LUNO+3 :    4 Ag 0.0000000


Computation Completed


Properties will be evaluated at   0.000000,   0.000000,   0.000000 [a0]

Properties computed using the B3LYP density matrix


 Multipole Moments:

 ------------------------------------------------------------------------------------
     Multipole            Electronic (a.u.)      Nuclear  (a.u.)        Total (a.u.)
 ------------------------------------------------------------------------------------

 L = 1.  Multiply by 2.5417464519 to convert [e a0] to [Debye]
 Dipole X            :          0.0000000            0.0000000            0.0000000
 Dipole Y            :          0.0000000            0.0000000            0.0000000
 Dipole Z            :          0.0000000            0.0000000            0.0000000
 Magnitude           :                                                    0.0000000

 L = 2.  Multiply by 1.3450342976 to convert [e a0^2] to [Debye ang]
 Quadrupole XX       :         -4.3998334            0.0000000           -4.3998334
 Quadrupole XY       :          0.0000000            0.0000000            0.0000000
 Quadrupole XZ       :          0.0000000            0.0000000            0.0000000
 Quadrupole YY       :         -4.3998334            0.0000000           -4.3998334
 Quadrupole YZ       :          0.0000000            0.0000000            0.0000000
 Quadrupole ZZ       :        -13.2481981            5.2714591           -7.9767391
 Traceless XX        :          2.9494549           -1.7571530            1.1923019
 Traceless YY        :          2.9494549           -1.7571530            1.1923019
 Traceless ZZ        :         -5.8989098            3.5143061           -2.3846038

 ------------------------------------------------------------------------------------
  ==> Computing MBIS Charges <==

  Electron Count from Grid (Expected Number):  3.00000 ( 3.00000)
  Difference: -0.00000

  MBIS Charges: (a.u.)
   Center  Symbol  Z      Pop.       Charge
      1       H    1    1.500000   -0.500000
      2       H    1    1.500000   -0.500000

  MBIS Dipoles: [e a0]
   Center  Symbol  Z        X           Y           Z
      1       H    1   -0.000000    0.000000    0.114371
      2       H    1    0.000000   -0.000000   -0.114371

  MBIS Quadrupoles: [e a0^2]
   Center  Symbol  Z      XX        XY        XZ        YY        YZ        ZZ
      1       H    1   -2.1999   -0.0000    0.0000   -2.1999    0.0000   -2.2991
      2       H    1   -2.1999   -0.0000   -0.0000   -2.1999    0.0000   -2.2991

  MBIS Octupoles: [e a0^3]
   Center  Symbol  Z      XXX       XXY       XXZ       XYY       XYZ       XZZ       YYY       YYZ       YZZ       ZZZ
      1       H    1   -0.0000   -0.0000    0.1833   -0.0000    0.0000   -0.0000   -0.0000    0.1833    0.0000    0.3181
      2       H    1   -0.0000   -0.0000   -0.1833    0.0000   -0.0000   -0.0000   -0.0000   -0.1833   -0.0000   -0.3181

  MBIS Radial Moments:
   Center  Symbol  Z      [a0^2]      [a0^3]      [a0^4]      
      1       H    1    6.698977   19.964458   69.177866
      2       H    1    6.698977   19.964458   69.177866

  MBIS Valence Widths: [a0]
   Center  Symbol  Z     Width
      1       H    1    0.610733
      2       H    1    0.610733

*** tstop() called on Mac.lan at Sun Aug 10 17:26:39 2025
Module time:
	user time   =       0.58 seconds =       0.01 minutes
	system time =       1.21 seconds =       0.02 minutes
	total time  =          0 seconds =       0.00 minutes
Total time:
	user time   =       1.43 seconds =       0.02 minutes
	system time =       3.30 seconds =       0.06 minutes
	total time  =          1 seconds =       0.02 minutes

    Psi4 stopped on: Sunday, 10 August 2025 05:26PM
    Psi4 wall time for execution: 0:00:00.67

*** Psi4 exiting successfully. Buy a developer a beer!
