
    -----------------------------------------------------------------------
          Psi4: An Open-Source Ab Initio Electronic Structure Package
                               Psi4 1.9.1 release

                         Git: Rev {} zzzzzzz 


    D. G. A. Smith, L. A. Burns, A. C. Simmonett, R. M. Parrish,
    M. C. Schieber, R. Galvelis, P. Kraus, H. Kruse, R. Di Remigio,
    A. Alenaizan, A. M. James, S. Lehtola, J. P. Misiewicz, M. Scheurer,
    R. A. Shaw, J. B. Schriber, Y. Xie, Z. L. Glick, D. A. Sirianni,
    J. S. O'Brien, J. M. Waldrop, A. Kumar, E. G. Hohenstein,
    B. P. Pritchard, B. R. Brooks, H. F. Schaefer III, A. Yu. Sokolov,
    K. Patkowski, A. E. DePrince III, U. Bozkaya, R. A. King,
    F. A. Evangelista, J. M. Turney, T. D. Crawford, C. D. Sherrill,
    J. Chem. Phys. 152(18) 184108 (2020). https://doi.org/10.1063/5.0006002

                            Additional Code Authors
    E. T. Seidl, C. L. Janssen, E. F. Valeev, M. L. Leininger,
    J. F. Gonthier, R. M. Richard, H. R. McAlexander, M. Saitow, X. Wang,
    P. Verma, M. H. Lechner, A. Jiang, S. Behnle, A. G. Heide,
    M. F. Herbst, and D. L. Poole

             Previous Authors, Complete List of Code Contributors,
                       and Citations for Specific Modules
    https://github.com/psi4/psi4/blob/master/codemeta.json
    https://github.com/psi4/psi4/graphs/contributors
    http://psicode.org/psi4manual/master/introduction.html#citing-psifour

    -----------------------------------------------------------------------


    Psi4 started on: Sunday, 10 August 2025 05:43PM

    Process ID: 49356
    Host:       Mac.lan
    PSIDATADIR: /Users/joseantoniorodriguesromero/anaconda3/share/psi4
    Memory:     500.0 MiB
    Threads:    1
    
  ==> Input File <==

--------------------------------------------------------------------------
molecule { 
-1 2
O           0.000000           0.000000           0.000000
C           0.000000           0.000000           1.719050
}

set { 
basis              cc-pvtz
reference          uks
maxiter            500
DAMPING_PERCENTAGE 1
E_CONVERGENCE      1.0E-8
D_CONVERGENCE      1.0E-8
DIIS_MAX_VECS      400
MBIS_MAXITER       8000
guess              read
}

E, wfn = energy('b3lyp', restart_file='last_wfn', return_wfn=True)
properties('b3lyp','MBIS_CHARGES', wfn=wfn)
wfn.to_file('last_wfn')
--------------------------------------------------------------------------

Scratch directory: /tmp/
 Found user provided orbital data. Setting orbital guess to READ 
 Copying restart file <last_wfn.npy> to </tmp/scan_CO_46.default.49356.180.npy> for internal processing
   => Libint2 <=

    Primary   basis highest AM E, G, H:  6, 6, 3
    Auxiliary basis highest AM E, G, H:  7, 7, 4
    Onebody   basis highest AM E, G, H:  -, -, -
    Solid Harmonics ordering:            Gaussian

*** tstart() called on Mac.lan
*** at Sun Aug 10 17:43:50 2025

   => Loading Basis Set <=

    Name: CC-PVTZ
    Role: ORBITAL
    Keyword: BASIS
    atoms 1 entry O          line   262 file /Users/joseantoniorodriguesromero/anaconda3/share/psi4/basis/cc-pvtz.gbs 
    atoms 2 entry C          line   186 file /Users/joseantoniorodriguesromero/anaconda3/share/psi4/basis/cc-pvtz.gbs 


         ---------------------------------------------------------
                                   SCF
               by Justin Turney, Rob Parrish, Andy Simmonett
                          and Daniel G. A. Smith
                              UKS Reference
                        1 Threads,    500 MiB Core
         ---------------------------------------------------------

  ==> Geometry <==

    Molecular point group: c2v
    Full point group: C_inf_v

    Geometry (in Angstrom), charge = -1, multiplicity = 2:

       Center              X                  Y                   Z               Mass       
    ------------   -----------------  -----------------  -----------------  -----------------
         O            0.000000000000     0.000000000000    -0.736869545070    15.994914619570
         C            0.000000000000     0.000000000000     0.982180454930    12.000000000000

  Running in c2v symmetry.

  Rotational constants: A = ************  B =      0.83202  C =      0.83202 [cm^-1]
  Rotational constants: A = ************  B =  24943.42905  C =  24943.42905 [MHz]
  Nuclear repulsion =   14.775897217742358

  Charge       = -1
  Multiplicity = 2
  Electrons    = 15
  Nalpha       = 8
  Nbeta        = 7

  ==> Algorithm <==

  SCF Algorithm Type is DF.
  DIIS enabled.
  MOM disabled.
  Fractional occupation disabled.
  Guess Type is READ.
  Energy threshold   = 1.00e-08
  Density threshold  = 1.00e-08
  Integral threshold = 1.00e-12

  ==> Primary Basis <==

  Basis Set: CC-PVTZ
    Blend: CC-PVTZ
    Number of shells: 20
    Number of basis functions: 60
    Number of Cartesian functions: 70
    Spherical Harmonics?: true
    Max angular momentum: 3

  ==> DFT Potential <==

   => LibXC <=

    Version 6.2.2
    S. Lehtola, C. Steigemann, M. J.T. Oliveira, and M. A.L. Marques.,  SoftwareX 7, 1–5 (2018) (10.1016/j.softx.2017.11.002)

   => Composite Functional: B3LYP <= 

    B3LYP Hyb-GGA Exchange-Correlation Functional

    P. J. Stephens, F. J. Devlin, C. F. Chabalowski, and M. J. Frisch.,  J. Phys. Chem. 98, 11623 (1994) (10.1021/j100096a001)

    Deriv               =              1
    GGA                 =           TRUE
    Meta                =          FALSE

    Exchange Hybrid     =           TRUE
    MP2 Hybrid          =          FALSE

   => Exchange Functionals <=

    0.0800   Slater exchange
    0.7200         Becke 88

   => Exact (HF) Exchange <=

    0.2000               HF 

   => Correlation Functionals <=

    0.1900   Vosko, Wilk & Nusair (VWN5_RPA)
    0.8100   Lee, Yang & Parr

   => LibXC Density Thresholds  <==

    XC_HYB_GGA_XC_B3LYP:  1.00E-15 

   => Molecular Quadrature <=

    Radial Scheme          =       TREUTLER
    Pruning Scheme         =           NONE
    Nuclear Scheme         =       TREUTLER

    Blocking Scheme        =         OCTREE
    BS radius alpha        =              1
    Pruning alpha          =              1
    Radial Points          =             75
    Spherical Points       =            302
    Total Points           =          43346
    Total Blocks           =            392
    Max Points             =            256
    Max Functions          =             60
    Weights Tolerance      =       1.00E-15

   => Loading Basis Set <=

    Name: (CC-PVTZ AUX)
    Role: JKFIT
    Keyword: DF_BASIS_SCF
    atoms 1 entry O          line   229 file /Users/joseantoniorodriguesromero/anaconda3/share/psi4/basis/cc-pvtz-jkfit.gbs 
    atoms 2 entry C          line   125 file /Users/joseantoniorodriguesromero/anaconda3/share/psi4/basis/cc-pvtz-jkfit.gbs 

   => Loading Basis Set <=

    Name: CC-PVTZ
    Role: ORBITAL
    Keyword: BASIS
    atoms 1 entry O          line   262 file /Users/joseantoniorodriguesromero/anaconda3/share/psi4/basis/cc-pvtz.gbs 
    atoms 2 entry C          line   186 file /Users/joseantoniorodriguesromero/anaconda3/share/psi4/basis/cc-pvtz.gbs 

  Reading orbitals from file /tmp/scan_CO_46.default.49356.180.npy, no projection.

  ==> Integral Setup <==

  DFHelper Memory: AOs need 0.005 GiB; user supplied 0.295 GiB. 
  Using in-core AOs.

  ==> MemDFJK: Density-Fitted J/K Matrices <==

    J tasked:                   Yes
    K tasked:                   Yes
    wK tasked:                   No
    OpenMP threads:               1
    Memory [MiB]:               302
    Algorithm:                 Core
    Schwarz Cutoff:           1E-12
    Mask sparsity (%):       0.0000
    Fitting Condition:        1E-10

   => Auxiliary Basis Set <=

  Basis Set: (CC-PVTZ AUX)
    Blend: CC-PVTZ-JKFIT
    Number of shells: 50
    Number of basis functions: 158
    Number of Cartesian functions: 192
    Spherical Harmonics?: true
    Max angular momentum: 4

  Cached 100.0% of DFT collocation blocks in 0.071 [GiB].

  Minimum eigenvalue in the overlap matrix is 1.2506787872E-02.
  Reciprocal condition number of the overlap matrix is 3.6758883958E-03.
    Using symmetric orthogonalization.

  ==> Pre-Iterations <==

  SCF Guess: Orbitals guess was supplied from a previous computation.

   -------------------------------------------------------
    Irrep   Nso     Nmo     Nalpha   Nbeta   Ndocc  Nsocc
   -------------------------------------------------------
     A1        26      26       5       5       5       0
     A2         6       6       0       0       0       0
     B1        14      14       2       1       1       1
     B2        14      14       1       1       1       0
   -------------------------------------------------------
    Total      60      60       8       7       7       1
   -------------------------------------------------------

  ==> Iterations <==

                           Total Energy        Delta E     RMS |[F,P]|

   @DF-UKS iter   0:  -113.15534561469978   -1.13155e+02   1.09669e-03 
   @DF-UKS iter   1:  -113.16223391617856   -6.88830e-03   9.26264e-04 DIIS/ADIIS
   @DF-UKS iter   2:  -113.15427058553655    7.96333e-03   4.26033e-03 DIIS/ADIIS/DAMP=1%
   @DF-UKS iter   3:  -113.16029656316364   -6.02598e-03   1.99764e-04 DIIS/ADIIS/DAMP=1%
   @DF-UKS iter   4:  -113.16252639534930   -2.22983e-03   1.07454e-04 DIIS/ADIIS/DAMP=1%
   @DF-UKS iter   5:  -113.16264450200396   -1.18107e-04   2.80348e-05 DIIS/DAMP=1%
   @DF-UKS iter   6:  -113.16266765260627   -2.31506e-05   1.94854e-05 DIIS/DAMP=1%
   @DF-UKS iter   7:  -113.16270981736331   -4.21648e-05   2.69240e-05 DIIS/DAMP=1%
   @DF-UKS iter   8:  -113.16269412756708    1.56898e-05   1.46512e-05 DIIS/DAMP=1%
   @DF-UKS iter   9:  -113.16269019881720    3.92875e-06   3.12359e-06 DIIS/DAMP=1%
   @DF-UKS iter  10:  -113.16269946150045   -9.26268e-06   9.06753e-07 DIIS/DAMP=1%
   @DF-UKS iter  11:  -113.16269921761599    2.43884e-07   3.23439e-07 DIIS/DAMP=1%
   @DF-UKS iter  12:  -113.16269854358679    6.74029e-07   7.72817e-08 DIIS/DAMP=1%
   @DF-UKS iter  13:  -113.16269860916910   -6.55823e-08   3.76492e-08 DIIS/DAMP=1%
   @DF-UKS iter  14:  -113.16269860383102    5.33808e-09   5.60182e-09 DIIS/DAMP=1%
  Energy and wave function converged.


  ==> Post-Iterations <==

   Electrons on quadrature grid:
      Nalpha   =    7.9999998206 ; deviation = -1.794e-07
      Nbeta    =    6.9999997455 ; deviation = -2.545e-07
      Ntotal   =   14.9999995661 ; deviation = -4.339e-07 

   @Spin Contamination Metric:   4.460121556E-02
   @S^2 Expected:                7.500000000E-01
   @S^2 Observed:                7.946012156E-01
   @S   Expected:                5.000000000E-01
   @S   Observed:                5.000000000E-01

    Orbital Energies [Eh]
    ---------------------

    Alpha Occupied:                                                       

       1A1   -18.847969     2A1   -10.010842     3A1    -0.597521  
       4A1    -0.272407     5A1    -0.040522     1B1    -0.038728  
       1B2    -0.010310     2B1     0.067507  

    Alpha Virtual:                                                        

       2B2     0.156484     6A1     0.298666     3B1     0.538307  
       7A1     0.541479     3B2     0.551029     8A1     0.606185  
       9A1     0.833810     4B1     0.883908     4B2     0.889711  
       1A2     0.921734    10A1     0.923993     5B1     1.026544  
       5B2     1.026647    11A1     1.228529    12A1     1.510940  
       2A2     1.791193    13A1     1.791810     6B1     1.911185  
       6B2     1.912846    14A1     2.037661     7B1     2.237497  
       7B2     2.251537    15A1     2.620902     8B1     2.929972  
       8B2     2.930649     3A2     2.955959    16A1     2.958207  
       9B1     3.081112     9B2     3.084517    17A1     3.111331  
       4A2     3.191713    18A1     3.197112    10B1     3.357176  
      10B2     3.365241    19A1     3.471049    11B1     3.962470  
      11B2     3.970914    20A1     4.020240    21A1     4.764353  
      12B1     5.449447    12B2     5.449518     5A2     5.464489  
      22A1     5.465057    13B2     5.616105    13B1     5.617965  
      23A1     5.872396     6A2     6.519175    24A1     6.520668  
      14B1     6.741610    14B2     6.747138    25A1     7.163063  
      26A1     8.443833  

    Beta Occupied:                                                        

       1A1   -18.848218     2A1    -9.995540     3A1    -0.597713  
       4A1    -0.225080     5A1    -0.032622     1B2    -0.024732  
       1B1     0.001736  

    Beta Virtual:                                                         

       2B2     0.174810     2B1     0.207996     6A1     0.311966  
       7A1     0.549980     3B2     0.568412     3B1     0.591580  
       8A1     0.627542     9A1     0.836502     4B2     0.881615  
       4B1     0.899278     1A2     0.963083    10A1     0.963197  
       5B2     1.031966     5B1     1.050924    11A1     1.239963  
      12A1     1.512011     2A2     1.791202    13A1     1.791296  
       6B2     1.909362     6B1     1.928393    14A1     2.043726  
       7B2     2.272572     7B1     2.304642    15A1     2.638739  
       8B2     2.986260     8B1     2.986424    16A1     2.993013  
       3A2     2.993497     9B2     3.098014     9B1     3.124741  
      17A1     3.125860    18A1     3.265180     4A2     3.266019  
      10B2     3.377866    10B1     3.407839    19A1     3.494029  
      11B2     3.955027    11B1     3.979864    20A1     4.040980  
      21A1     4.769630    12B2     5.448842    12B1     5.448869  
      22A1     5.462999     5A2     5.463044    13B2     5.605765  
      13B1     5.625392    23A1     5.872154    24A1     6.520277  
       6A2     6.520337    14B2     6.730824    14B1     6.754149  
      25A1     7.161951    26A1     8.443321  

    Final Occupation by Irrep:
             A1    A2    B1    B2 
    DOCC [     5,    0,    1,    1 ]
    SOCC [     0,    0,    1,    0 ]
    NA   [     5,    0,    2,    1 ]
    NB   [     5,    0,    1,    1 ]

  @DF-UKS Final Energy:  -113.16269860383102

   => Energetics <=

    Nuclear Repulsion Energy =             14.7758972177423580
    One-Electron Energy =                -188.2869875488880780
    Two-Electron Energy =                  71.6237038117049991
    DFT Exchange-Correlation Energy =     -11.2753120843903112
    Empirical Dispersion Energy =           0.0000000000000000
    VV10 Nonlocal Energy =                  0.0000000000000000
    Total Energy =                       -113.1626986038310179

  UHF NO Occupations:
  HONO-2 :    5 A1 1.9986762
  HONO-1 :    1 B2 1.9800020
  HONO-0 :    2 B1 1.0000000
  LUNO+0 :    2 B2 0.0199980
  LUNO+1 :    6 A1 0.0013238
  LUNO+2 :    3 B1 0.0008055
  LUNO+3 :    7 A1 0.0003431


Computation Completed


Properties will be evaluated at   0.000000,   0.000000,   0.000000 [a0]

Properties computed using the SCF density matrix


 Multipole Moments:

 ------------------------------------------------------------------------------------
     Multipole            Electronic (a.u.)      Nuclear  (a.u.)        Total (a.u.)
 ------------------------------------------------------------------------------------

 L = 1.  Multiply by 2.5417464519 to convert [e a0] to [Debye]
 Dipole X            :          0.0000000            0.0000000            0.0000000
 Dipole Y            :          0.0000000            0.0000000            0.0000000
 Dipole Z            :         -0.1152249           -0.0035406           -0.1187656
 Magnitude           :                                                    0.1187656

 ------------------------------------------------------------------------------------

*** tstop() called on Mac.lan at Sun Aug 10 17:43:52 2025
Module time:
	user time   =      16.58 seconds =       0.28 minutes
	system time =       2.48 seconds =       0.04 minutes
	total time  =          2 seconds =       0.03 minutes
Total time:
	user time   =      16.58 seconds =       0.28 minutes
	system time =       2.48 seconds =       0.04 minutes
	total time  =          2 seconds =       0.03 minutes

*** tstart() called on Mac.lan
*** at Sun Aug 10 17:43:52 2025

   => Libint2 <=

    Primary   basis highest AM E, G, H:  6, 6, 3
    Auxiliary basis highest AM E, G, H:  7, 7, 4
    Onebody   basis highest AM E, G, H:  -, -, -
    Solid Harmonics ordering:            Gaussian
   => Loading Basis Set <=

    Name: CC-PVTZ
    Role: ORBITAL
    Keyword: BASIS
    atoms 1 entry O          line   262 file /Users/joseantoniorodriguesromero/anaconda3/share/psi4/basis/cc-pvtz.gbs 
    atoms 2 entry C          line   186 file /Users/joseantoniorodriguesromero/anaconda3/share/psi4/basis/cc-pvtz.gbs 


         ---------------------------------------------------------
                                   SCF
               by Justin Turney, Rob Parrish, Andy Simmonett
                          and Daniel G. A. Smith
                              UKS Reference
                        1 Threads,    500 MiB Core
         ---------------------------------------------------------

  ==> Geometry <==

    Molecular point group: c2v
    Full point group: C_inf_v

    Geometry (in Angstrom), charge = -1, multiplicity = 2:

       Center              X                  Y                   Z               Mass       
    ------------   -----------------  -----------------  -----------------  -----------------
         O            0.000000000000     0.000000000000    -0.736869545070    15.994914619570
         C            0.000000000000     0.000000000000     0.982180454930    12.000000000000

  Running in c2v symmetry.

  Rotational constants: A = ************  B =      0.83202  C =      0.83202 [cm^-1]
  Rotational constants: A = ************  B =  24943.42905  C =  24943.42905 [MHz]
  Nuclear repulsion =   14.775897217742358

  Charge       = -1
  Multiplicity = 2
  Electrons    = 15
  Nalpha       = 8
  Nbeta        = 7

  ==> Algorithm <==

  SCF Algorithm Type is DF.
  DIIS enabled.
  MOM disabled.
  Fractional occupation disabled.
  Guess Type is READ.
  Energy threshold   = 1.00e-08
  Density threshold  = 1.00e-08
  Integral threshold = 1.00e-12

  ==> Primary Basis <==

  Basis Set: CC-PVTZ
    Blend: CC-PVTZ
    Number of shells: 20
    Number of basis functions: 60
    Number of Cartesian functions: 70
    Spherical Harmonics?: true
    Max angular momentum: 3

  ==> DFT Potential <==

   => LibXC <=

    Version 6.2.2
    S. Lehtola, C. Steigemann, M. J.T. Oliveira, and M. A.L. Marques.,  SoftwareX 7, 1–5 (2018) (10.1016/j.softx.2017.11.002)

   => Composite Functional: B3LYP <= 

    B3LYP Hyb-GGA Exchange-Correlation Functional

    P. J. Stephens, F. J. Devlin, C. F. Chabalowski, and M. J. Frisch.,  J. Phys. Chem. 98, 11623 (1994) (10.1021/j100096a001)

    Deriv               =              1
    GGA                 =           TRUE
    Meta                =          FALSE

    Exchange Hybrid     =           TRUE
    MP2 Hybrid          =          FALSE

   => Exchange Functionals <=

    0.0800   Slater exchange
    0.7200         Becke 88

   => Exact (HF) Exchange <=

    0.2000               HF 

   => Correlation Functionals <=

    0.1900   Vosko, Wilk & Nusair (VWN5_RPA)
    0.8100   Lee, Yang & Parr

   => LibXC Density Thresholds  <==

    XC_HYB_GGA_XC_B3LYP:  1.00E-15 

   => Molecular Quadrature <=

    Radial Scheme          =       TREUTLER
    Pruning Scheme         =           NONE
    Nuclear Scheme         =       TREUTLER

    Blocking Scheme        =         OCTREE
    BS radius alpha        =              1
    Pruning alpha          =              1
    Radial Points          =             75
    Spherical Points       =            302
    Total Points           =          43346
    Total Blocks           =            392
    Max Points             =            256
    Max Functions          =             60
    Weights Tolerance      =       1.00E-15

   => Loading Basis Set <=

    Name: (CC-PVTZ AUX)
    Role: JKFIT
    Keyword: DF_BASIS_SCF
    atoms 1 entry O          line   229 file /Users/joseantoniorodriguesromero/anaconda3/share/psi4/basis/cc-pvtz-jkfit.gbs 
    atoms 2 entry C          line   125 file /Users/joseantoniorodriguesromero/anaconda3/share/psi4/basis/cc-pvtz-jkfit.gbs 

   => Loading Basis Set <=

    Name: CC-PVTZ
    Role: ORBITAL
    Keyword: BASIS
    atoms 1 entry O          line   262 file /Users/joseantoniorodriguesromero/anaconda3/share/psi4/basis/cc-pvtz.gbs 
    atoms 2 entry C          line   186 file /Users/joseantoniorodriguesromero/anaconda3/share/psi4/basis/cc-pvtz.gbs 

  Reading orbitals from file /tmp/scan_CO_46.default.49356.180.npy, no projection.

  ==> Integral Setup <==

  DFHelper Memory: AOs need 0.005 GiB; user supplied 0.295 GiB. 
  Using in-core AOs.

  ==> MemDFJK: Density-Fitted J/K Matrices <==

    J tasked:                   Yes
    K tasked:                   Yes
    wK tasked:                   No
    OpenMP threads:               1
    Memory [MiB]:               302
    Algorithm:                 Core
    Schwarz Cutoff:           1E-12
    Mask sparsity (%):       0.0000
    Fitting Condition:        1E-10

   => Auxiliary Basis Set <=

  Basis Set: (CC-PVTZ AUX)
    Blend: CC-PVTZ-JKFIT
    Number of shells: 50
    Number of basis functions: 158
    Number of Cartesian functions: 192
    Spherical Harmonics?: true
    Max angular momentum: 4

  Cached 100.0% of DFT collocation blocks in 0.071 [GiB].

  Minimum eigenvalue in the overlap matrix is 1.2506787872E-02.
  Reciprocal condition number of the overlap matrix is 3.6758883958E-03.
    Using symmetric orthogonalization.

  ==> Pre-Iterations <==

  SCF Guess: Orbitals guess was supplied from a previous computation.

   -------------------------------------------------------
    Irrep   Nso     Nmo     Nalpha   Nbeta   Ndocc  Nsocc
   -------------------------------------------------------
     A1        26      26       5       5       5       0
     A2         6       6       0       0       0       0
     B1        14      14       2       1       1       1
     B2        14      14       1       1       1       0
   -------------------------------------------------------
    Total      60      60       8       7       7       1
   -------------------------------------------------------

  ==> Iterations <==

                           Total Energy        Delta E     RMS |[F,P]|

   @DF-UKS iter   0:  -113.16269862642650   -1.13163e+02   1.08141e-10 
   @DF-UKS iter   1:  -113.16269862642660   -9.94760e-14   1.49631e-10 DIIS
  Energy and wave function converged.


  ==> Post-Iterations <==

   Electrons on quadrature grid:
      Nalpha   =    7.9999998206 ; deviation = -1.794e-07
      Nbeta    =    6.9999997455 ; deviation = -2.545e-07
      Ntotal   =   14.9999995661 ; deviation = -4.339e-07 

   @Spin Contamination Metric:   4.460122752E-02
   @S^2 Expected:                7.500000000E-01
   @S^2 Observed:                7.946012275E-01
   @S   Expected:                5.000000000E-01
   @S   Observed:                5.000000000E-01

    Orbital Energies [Eh]
    ---------------------

    Alpha Occupied:                                                       

       1A1   -18.847969     2A1   -10.010842     3A1    -0.597521  
       4A1    -0.272407     5A1    -0.040522     1B1    -0.038728  
       1B2    -0.010310     2B1     0.067507  

    Alpha Virtual:                                                        

       2B2     0.156484     6A1     0.298666     3B1     0.538307  
       7A1     0.541479     3B2     0.551029     8A1     0.606185  
       9A1     0.833810     4B1     0.883908     4B2     0.889711  
       1A2     0.921734    10A1     0.923993     5B1     1.026544  
       5B2     1.026647    11A1     1.228529    12A1     1.510940  
       2A2     1.791193    13A1     1.791810     6B1     1.911185  
       6B2     1.912846    14A1     2.037661     7B1     2.237497  
       7B2     2.251537    15A1     2.620902     8B1     2.929972  
       8B2     2.930649     3A2     2.955959    16A1     2.958207  
       9B1     3.081112     9B2     3.084517    17A1     3.111331  
       4A2     3.191713    18A1     3.197112    10B1     3.357176  
      10B2     3.365241    19A1     3.471049    11B1     3.962470  
      11B2     3.970914    20A1     4.020240    21A1     4.764353  
      12B1     5.449447    12B2     5.449518     5A2     5.464489  
      22A1     5.465057    13B2     5.616105    13B1     5.617965  
      23A1     5.872396     6A2     6.519175    24A1     6.520668  
      14B1     6.741610    14B2     6.747138    25A1     7.163063  
      26A1     8.443833  

    Beta Occupied:                                                        

       1A1   -18.848218     2A1    -9.995540     3A1    -0.597713  
       4A1    -0.225080     5A1    -0.032622     1B2    -0.024732  
       1B1     0.001736  

    Beta Virtual:                                                         

       2B2     0.174810     2B1     0.207996     6A1     0.311966  
       7A1     0.549980     3B2     0.568412     3B1     0.591580  
       8A1     0.627542     9A1     0.836502     4B2     0.881615  
       4B1     0.899278     1A2     0.963083    10A1     0.963197  
       5B2     1.031966     5B1     1.050924    11A1     1.239963  
      12A1     1.512011     2A2     1.791202    13A1     1.791296  
       6B2     1.909362     6B1     1.928393    14A1     2.043726  
       7B2     2.272572     7B1     2.304642    15A1     2.638739  
       8B2     2.986260     8B1     2.986424    16A1     2.993013  
       3A2     2.993497     9B2     3.098014     9B1     3.124741  
      17A1     3.125860    18A1     3.265180     4A2     3.266019  
      10B2     3.377866    10B1     3.407839    19A1     3.494029  
      11B2     3.955027    11B1     3.979864    20A1     4.040980  
      21A1     4.769630    12B2     5.448842    12B1     5.448869  
      22A1     5.462999     5A2     5.463044    13B2     5.605765  
      13B1     5.625392    23A1     5.872154    24A1     6.520277  
       6A2     6.520337    14B2     6.730824    14B1     6.754149  
      25A1     7.161951    26A1     8.443321  

    Final Occupation by Irrep:
             A1    A2    B1    B2 
    DOCC [     5,    0,    1,    1 ]
    SOCC [     0,    0,    1,    0 ]
    NA   [     5,    0,    2,    1 ]
    NB   [     5,    0,    1,    1 ]

  @DF-UKS Final Energy:  -113.16269862642660

   => Energetics <=

    Nuclear Repulsion Energy =             14.7758972177423580
    One-Electron Energy =                -188.2869871499215151
    Two-Electron Energy =                  71.6237033203970554
    DFT Exchange-Correlation Energy =     -11.2753120146445127
    Empirical Dispersion Energy =           0.0000000000000000
    VV10 Nonlocal Energy =                  0.0000000000000000
    Total Energy =                       -113.1626986264266037

  UHF NO Occupations:
  HONO-2 :    5 A1 1.9986762
  HONO-1 :    1 B2 1.9800020
  HONO-0 :    2 B1 1.0000000
  LUNO+0 :    2 B2 0.0199980
  LUNO+1 :    6 A1 0.0013238
  LUNO+2 :    3 B1 0.0008055
  LUNO+3 :    7 A1 0.0003431


Computation Completed


Properties will be evaluated at   0.000000,   0.000000,   0.000000 [a0]

Properties computed using the B3LYP density matrix


 Multipole Moments:

 ------------------------------------------------------------------------------------
     Multipole            Electronic (a.u.)      Nuclear  (a.u.)        Total (a.u.)
 ------------------------------------------------------------------------------------

 L = 1.  Multiply by 2.5417464519 to convert [e a0] to [Debye]
 Dipole X            :          0.0000000            0.0000000            0.0000000
 Dipole Y            :          0.0000000            0.0000000            0.0000000
 Dipole Z            :         -0.1152249           -0.0035406           -0.1187655
 Magnitude           :                                                    0.1187655

 L = 2.  Multiply by 1.3450342976 to convert [e a0^2] to [Debye ang]
 Quadrupole XX       :        -11.2273848            0.0000000          -11.2273848
 Quadrupole XY       :          0.0000000            0.0000000            0.0000000
 Quadrupole XZ       :          0.0000000            0.0000000            0.0000000
 Quadrupole YY       :         -9.9642478            0.0000000           -9.9642478
 Quadrupole YZ       :          0.0000000            0.0000000            0.0000000
 Quadrupole ZZ       :        -50.4110526           36.1816163          -14.2294362
 Traceless XX        :         12.6401769          -12.0605388            0.5796382
 Traceless YY        :         13.9033139          -12.0605388            1.8427751
 Traceless ZZ        :        -26.5434909           24.1210776           -2.4224133

 ------------------------------------------------------------------------------------
  ==> Computing MBIS Charges <==

  Electron Count from Grid (Expected Number): 15.00000 (15.00000)
  Difference: -0.00000

  MBIS Charges: (a.u.)
   Center  Symbol  Z      Pop.       Charge
      1       O    8    8.607135   -0.607135
      2       C    6    6.392864   -0.392864

  MBIS Dipoles: [e a0]
   Center  Symbol  Z        X           Y           Z
      1       O    8   -0.000000    0.000000    0.020916
      2       C    6   -0.000000   -0.000000   -0.255931

  MBIS Quadrupoles: [e a0^2]
   Center  Symbol  Z      XX        XY        XZ        YY        YZ        ZZ
      1       O    8   -4.8844    0.0000   -0.0000   -4.6483   -0.0000   -4.6204
      2       C    6   -6.3430    0.0000    0.0000   -5.3160    0.0000   -6.0701

  MBIS Octupoles: [e a0^3]
   Center  Symbol  Z      XXX       XXY       XXZ       XYY       XYZ       XZZ       YYY       YYZ       YZZ       ZZZ
      1       O    8   -0.0000   -0.0000    0.0021   -0.0000    0.0000   -0.0000   -0.0000   -0.0287   -0.0000   -0.1946
      2       C    6   -0.0000   -0.0000   -0.3764   -0.0000    0.0000    0.0000    0.0000   -0.0022    0.0000    0.0419

  MBIS Radial Moments:
   Center  Symbol  Z      [a0^2]      [a0^3]      [a0^4]      
      1       O    8   14.153037   28.650056   69.122053
      2       C    6   17.729107   47.738730   151.408705

  MBIS Valence Widths: [a0]
   Center  Symbol  Z     Width
      1       O    8    0.413329
      2       C    6    0.566754

*** tstop() called on Mac.lan at Sun Aug 10 17:43:52 2025
Module time:
	user time   =       3.58 seconds =       0.06 minutes
	system time =       2.34 seconds =       0.04 minutes
	total time  =          0 seconds =       0.00 minutes
Total time:
	user time   =      20.26 seconds =       0.34 minutes
	system time =       4.92 seconds =       0.08 minutes
	total time  =          2 seconds =       0.03 minutes

    Psi4 stopped on: Sunday, 10 August 2025 05:43PM
    Psi4 wall time for execution: 0:00:02.42

*** Psi4 exiting successfully. Buy a developer a beer!
