
    -----------------------------------------------------------------------
          Psi4: An Open-Source Ab Initio Electronic Structure Package
                               Psi4 1.9.1 release

                         Git: Rev {} zzzzzzz 


    D. G. A. Smith, L. A. Burns, A. C. Simmonett, R. M. Parrish,
    M. C. Schieber, R. Galvelis, P. Kraus, H. Kruse, R. Di Remigio,
    A. Alenaizan, A. M. James, S. Lehtola, J. P. Misiewicz, M. Scheurer,
    R. A. Shaw, J. B. Schriber, Y. Xie, Z. L. Glick, D. A. Sirianni,
    J. S. O'Brien, J. M. Waldrop, A. Kumar, E. G. Hohenstein,
    B. P. Pritchard, B. R. Brooks, H. F. Schaefer III, A. Yu. Sokolov,
    K. Patkowski, A. E. DePrince III, U. Bozkaya, R. A. King,
    F. A. Evangelista, J. M. Turney, T. D. Crawford, C. D. Sherrill,
    J. Chem. Phys. 152(18) 184108 (2020). https://doi.org/10.1063/5.0006002

                            Additional Code Authors
    E. T. Seidl, C. L. Janssen, E. F. Valeev, M. L. Leininger,
    J. F. Gonthier, R. M. Richard, H. R. McAlexander, M. Saitow, X. Wang,
    P. Verma, M. H. Lechner, A. Jiang, S. Behnle, A. G. Heide,
    M. F. Herbst, and D. L. Poole

             Previous Authors, Complete List of Code Contributors,
                       and Citations for Specific Modules
    https://github.com/psi4/psi4/blob/master/codemeta.json
    https://github.com/psi4/psi4/graphs/contributors
    http://psicode.org/psi4manual/master/introduction.html#citing-psifour

    -----------------------------------------------------------------------


    Psi4 started on: Sunday, 10 August 2025 05:33PM

    Process ID: 49029
    Host:       Mac.lan
    PSIDATADIR: /Users/joseantoniorodriguesromero/anaconda3/share/psi4
    Memory:     500.0 MiB
    Threads:    1
    
  ==> Input File <==

--------------------------------------------------------------------------
molecule { 
-1 2
N           0.000000           0.000000           0.000000
N           0.000000           0.000000           1.169110
}

set { 
basis              cc-pvtz
reference          uks
maxiter            500
DAMPING_PERCENTAGE 1
E_CONVERGENCE      1.0E-8
D_CONVERGENCE      1.0E-8
DIIS_MAX_VECS      400
MBIS_MAXITER       8000
guess              read
}

E, wfn = energy('b3lyp', restart_file='last_wfn', return_wfn=True)
properties('b3lyp','MBIS_CHARGES', wfn=wfn)
wfn.to_file('last_wfn')
--------------------------------------------------------------------------

Scratch directory: /tmp/
 Found user provided orbital data. Setting orbital guess to READ 
 Copying restart file <last_wfn.npy> to </tmp/scan_NN_28.default.49029.180.npy> for internal processing
   => Libint2 <=

    Primary   basis highest AM E, G, H:  6, 6, 3
    Auxiliary basis highest AM E, G, H:  7, 7, 4
    Onebody   basis highest AM E, G, H:  -, -, -
    Solid Harmonics ordering:            Gaussian

*** tstart() called on Mac.lan
*** at Sun Aug 10 17:33:29 2025

   => Loading Basis Set <=

    Name: CC-PVTZ
    Role: ORBITAL
    Keyword: BASIS
    atoms 1-2 entry N          line   224 file /Users/joseantoniorodriguesromero/anaconda3/share/psi4/basis/cc-pvtz.gbs 


         ---------------------------------------------------------
                                   SCF
               by Justin Turney, Rob Parrish, Andy Simmonett
                          and Daniel G. A. Smith
                              UKS Reference
                        1 Threads,    500 MiB Core
         ---------------------------------------------------------

  ==> Geometry <==

    Molecular point group: d2h
    Full point group: D_inf_h

    Geometry (in Angstrom), charge = -1, multiplicity = 2:

       Center              X                  Y                   Z               Mass       
    ------------   -----------------  -----------------  -----------------  -----------------
         N            0.000000000000     0.000000000000    -0.584555000000    14.003074004430
         N            0.000000000000     0.000000000000     0.584555000000    14.003074004430

  Running in d2h symmetry.

  Rotational constants: A = ************  B =      1.76154  C =      1.76154 [cm^-1]
  Rotational constants: A = ************  B =  52809.62219  C =  52809.62219 [MHz]
  Nuclear repulsion =   22.178993698480035

  Charge       = -1
  Multiplicity = 2
  Electrons    = 15
  Nalpha       = 8
  Nbeta        = 7

  ==> Algorithm <==

  SCF Algorithm Type is DF.
  DIIS enabled.
  MOM disabled.
  Fractional occupation disabled.
  Guess Type is READ.
  Energy threshold   = 1.00e-08
  Density threshold  = 1.00e-08
  Integral threshold = 1.00e-12

  ==> Primary Basis <==

  Basis Set: CC-PVTZ
    Blend: CC-PVTZ
    Number of shells: 20
    Number of basis functions: 60
    Number of Cartesian functions: 70
    Spherical Harmonics?: true
    Max angular momentum: 3

  ==> DFT Potential <==

   => LibXC <=

    Version 6.2.2
    S. Lehtola, C. Steigemann, M. J.T. Oliveira, and M. A.L. Marques.,  SoftwareX 7, 1–5 (2018) (10.1016/j.softx.2017.11.002)

   => Composite Functional: B3LYP <= 

    B3LYP Hyb-GGA Exchange-Correlation Functional

    P. J. Stephens, F. J. Devlin, C. F. Chabalowski, and M. J. Frisch.,  J. Phys. Chem. 98, 11623 (1994) (10.1021/j100096a001)

    Deriv               =              1
    GGA                 =           TRUE
    Meta                =          FALSE

    Exchange Hybrid     =           TRUE
    MP2 Hybrid          =          FALSE

   => Exchange Functionals <=

    0.0800   Slater exchange
    0.7200         Becke 88

   => Exact (HF) Exchange <=

    0.2000               HF 

   => Correlation Functionals <=

    0.1900   Vosko, Wilk & Nusair (VWN5_RPA)
    0.8100   Lee, Yang & Parr

   => LibXC Density Thresholds  <==

    XC_HYB_GGA_XC_B3LYP:  1.00E-15 

   => Molecular Quadrature <=

    Radial Scheme          =       TREUTLER
    Pruning Scheme         =           NONE
    Nuclear Scheme         =       TREUTLER

    Blocking Scheme        =         OCTREE
    BS radius alpha        =              1
    Pruning alpha          =              1
    Radial Points          =             75
    Spherical Points       =            302
    Total Points           =          42444
    Total Blocks           =            374
    Max Points             =            255
    Max Functions          =             60
    Weights Tolerance      =       1.00E-15

   => Loading Basis Set <=

    Name: (CC-PVTZ AUX)
    Role: JKFIT
    Keyword: DF_BASIS_SCF
    atoms 1-2 entry N          line   177 file /Users/joseantoniorodriguesromero/anaconda3/share/psi4/basis/cc-pvtz-jkfit.gbs 

   => Loading Basis Set <=

    Name: CC-PVTZ
    Role: ORBITAL
    Keyword: BASIS
    atoms 1-2 entry N          line   224 file /Users/joseantoniorodriguesromero/anaconda3/share/psi4/basis/cc-pvtz.gbs 

  Reading orbitals from file /tmp/scan_NN_28.default.49029.180.npy, no projection.

  ==> Integral Setup <==

  DFHelper Memory: AOs need 0.005 GiB; user supplied 0.295 GiB. 
  Using in-core AOs.

  ==> MemDFJK: Density-Fitted J/K Matrices <==

    J tasked:                   Yes
    K tasked:                   Yes
    wK tasked:                   No
    OpenMP threads:               1
    Memory [MiB]:               302
    Algorithm:                 Core
    Schwarz Cutoff:           1E-12
    Mask sparsity (%):       0.0000
    Fitting Condition:        1E-10

   => Auxiliary Basis Set <=

  Basis Set: (CC-PVTZ AUX)
    Blend: CC-PVTZ-JKFIT
    Number of shells: 50
    Number of basis functions: 158
    Number of Cartesian functions: 192
    Spherical Harmonics?: true
    Max angular momentum: 4

  Cached 100.0% of DFT collocation blocks in 0.071 [GiB].

  Minimum eigenvalue in the overlap matrix is 2.9468511300E-03.
  Reciprocal condition number of the overlap matrix is 8.0488106295E-04.
    Using symmetric orthogonalization.

  ==> Pre-Iterations <==

  SCF Guess: Orbitals guess was supplied from a previous computation.

   -------------------------------------------------------
    Irrep   Nso     Nmo     Nalpha   Nbeta   Ndocc  Nsocc
   -------------------------------------------------------
     Ag        13      13       3       3       3       0
     B1g        3       3       0       0       0       0
     B2g        7       7       1       0       0       1
     B3g        7       7       0       0       0       0
     Au         3       3       0       0       0       0
     B1u       13      13       2       2       2       0
     B2u        7       7       1       1       1       0
     B3u        7       7       1       1       1       0
   -------------------------------------------------------
    Total      60      60       8       7       7       1
   -------------------------------------------------------

  ==> Iterations <==

                           Total Energy        Delta E     RMS |[F,P]|

   @DF-UKS iter   0:  -109.47435795174520   -1.09474e+02   4.86354e-03 
   @DF-UKS iter   1:  -109.48271100269901   -8.35305e-03   6.44321e-04 DIIS/ADIIS
   @DF-UKS iter   2:  -109.48274035214641   -2.93494e-05   5.85184e-04 DIIS/ADIIS/DAMP=1%
   @DF-UKS iter   3:  -109.48236424460602    3.76108e-04   5.70224e-05 DIIS/DAMP=1%
   @DF-UKS iter   4:  -109.48285481803670   -4.90573e-04   1.21021e-05 DIIS/DAMP=1%
   @DF-UKS iter   5:  -109.48281012845743    4.46896e-05   1.30088e-06 DIIS/DAMP=1%
   @DF-UKS iter   6:  -109.48282067127776   -1.05428e-05   1.51475e-07 DIIS/DAMP=1%
   @DF-UKS iter   7:  -109.48282012669407    5.44584e-07   1.24763e-08 DIIS/DAMP=1%
   @DF-UKS iter   8:  -109.48282009944249    2.72516e-08   1.27649e-09 DIIS/DAMP=1%
   @DF-UKS iter   9:  -109.48282010349504   -4.05255e-09   1.21737e-10 DIIS/DAMP=1%
  Energy and wave function converged.


  ==> Post-Iterations <==

   Electrons on quadrature grid:
      Nalpha   =    8.0000002267 ; deviation = 2.267e-07
      Nbeta    =    7.0000002225 ; deviation = 2.225e-07
      Ntotal   =   15.0000004492 ; deviation = 4.492e-07 

   @Spin Contamination Metric:   2.817691463E-03
   @S^2 Expected:                7.500000000E-01
   @S^2 Observed:                7.528176915E-01
   @S   Expected:                5.000000000E-01
   @S   Observed:                5.000000000E-01

    Orbital Energies [Eh]
    ---------------------

    Alpha Occupied:                                                       

       1Ag   -14.015994     1B1u  -14.015093     2Ag    -0.700497  
       2B1u   -0.219487     1B3u   -0.102781     1B2u   -0.080835  
       3Ag    -0.066981     1B2g    0.200395  

    Alpha Virtual:                                                        

       1B3g    0.293810     3B1u    0.542516     2B3u    0.694340  
       2B2u    0.696446     4Ag     0.700211     2B2g    0.801958  
       5Ag     0.809616     2B3g    0.817282     4B1u    0.961915  
       5B1u    1.135237     1B1g    1.182368     6Ag     1.183489  
       3B3u    1.399126     3B2u    1.399846     1Au     1.568874  
       6B1u    1.570456     3B2g    1.991831     3B3g    1.994871  
       7Ag     2.009373     7B1u    2.137810     4B3u    3.097434  
       4B2u    3.108800     8Ag     3.258092     4B2g    3.384411  
       4B3g    3.393456     8B1u    3.783231     2B1g    3.821277  
       9Ag     3.822277     5B2u    3.924941     5B3u    3.928533  
       6B3u    4.006010     6B2u    4.006239    10Ag     4.254072  
       5B2g    4.392377     5B3g    4.392610     3B1g    4.714034  
      11Ag     4.716907     9B1u    4.820614     2Au     4.829623  
      10B1u    4.834117     6B2g    4.902726     6B3g    4.909406  
       3Au     5.145328    11B1u    5.146618     7B3u    5.271253  
       7B2u    5.273367    12Ag     5.586426    12B1u    5.858162  
      13Ag     6.424966     7B3g    6.490181     7B2g    6.491204  
      13B1u   13.983745  

    Beta Occupied:                                                        

       1Ag   -14.005642     1B1u  -14.004673     2Ag    -0.681778  
       2B1u   -0.184976     1B2u   -0.072186     3Ag    -0.050065  
       1B3u   -0.039573  

    Beta Virtual:                                                         

       1B3g    0.305344     1B2g    0.337687     3B1u    0.550029  
       2B2u    0.700497     4Ag     0.705512     2B3u    0.720217  
       5Ag     0.819163     2B3g    0.824351     2B2g    0.845869  
       4B1u    0.977429     5B1u    1.152109     1B1g    1.199660  
       6Ag     1.199899     3B2u    1.401908     3B3u    1.427073  
       1Au     1.598032     6B1u    1.598136     3B3g    1.998380  
       7Ag     2.019823     3B2g    2.020804     7B1u    2.148405  
       4B2u    3.116868     4B3u    3.146879     8Ag     3.266774  
       4B3g    3.402286     4B2g    3.434108     8B1u    3.800248  
       2B1g    3.836284     9Ag     3.836560     5B2u    3.927295  
       5B3u    3.952355     6B2u    4.034511     6B3u    4.034647  
      10Ag     4.265686     5B3g    4.424681     5B2g    4.424701  
       3B1g    4.757456    11Ag     4.757579     9B1u    4.835354  
       2Au     4.873456    10B1u    4.874661     6B3g    4.913095  
       6B2g    4.940380     3Au     5.167356    11B1u    5.168204  
       7B2u    5.277044     7B3u    5.306334    12Ag     5.605964  
      12B1u    5.870889    13Ag     6.437006     7B3g    6.493629  
       7B2g    6.520960    13B1u   13.998885  

    Final Occupation by Irrep:
             Ag   B1g   B2g   B3g    Au   B1u   B2u   B3u 
    DOCC [     3,    0,    0,    0,    0,    2,    1,    1 ]
    SOCC [     0,    0,    1,    0,    0,    0,    0,    0 ]
    NA   [     3,    0,    1,    0,    0,    2,    1,    1 ]
    NB   [     3,    0,    0,    0,    0,    2,    1,    1 ]

  @DF-UKS Final Energy:  -109.48282010349504

   => Energetics <=

    Nuclear Repulsion Energy =             22.1789936984800349
    One-Electron Energy =                -197.1383608309039346
    Two-Electron Energy =                  76.8000531828480177
    DFT Exchange-Correlation Energy =     -11.3235061539191673
    Empirical Dispersion Energy =           0.0000000000000000
    VV10 Nonlocal Energy =                  0.0000000000000000
    Total Energy =                       -109.4828201034950439

  UHF NO Occupations:
  HONO-2 :    2B1u 1.9996729
  HONO-1 :    1B3u 1.9991271
  HONO-0 :    1B2g 1.0000000
  LUNO+0 :    2B3u 0.0008729
  LUNO+1 :    3B1u 0.0003271
  LUNO+2 :    4 Ag 0.0001677
  LUNO+3 :    2B2u 0.0000316


Computation Completed


Properties will be evaluated at   0.000000,   0.000000,   0.000000 [a0]

Properties computed using the SCF density matrix


 Multipole Moments:

 ------------------------------------------------------------------------------------
     Multipole            Electronic (a.u.)      Nuclear  (a.u.)        Total (a.u.)
 ------------------------------------------------------------------------------------

 L = 1.  Multiply by 2.5417464519 to convert [e a0] to [Debye]
 Dipole X            :          0.0000000            0.0000000            0.0000000
 Dipole Y            :          0.0000000            0.0000000            0.0000000
 Dipole Z            :          0.0000000            0.0000000            0.0000000
 Magnitude           :                                                    0.0000000

 ------------------------------------------------------------------------------------

*** tstop() called on Mac.lan at Sun Aug 10 17:33:30 2025
Module time:
	user time   =      12.09 seconds =       0.20 minutes
	system time =       1.97 seconds =       0.03 minutes
	total time  =          1 seconds =       0.02 minutes
Total time:
	user time   =      12.09 seconds =       0.20 minutes
	system time =       1.97 seconds =       0.03 minutes
	total time  =          1 seconds =       0.02 minutes

*** tstart() called on Mac.lan
*** at Sun Aug 10 17:33:30 2025

   => Libint2 <=

    Primary   basis highest AM E, G, H:  6, 6, 3
    Auxiliary basis highest AM E, G, H:  7, 7, 4
    Onebody   basis highest AM E, G, H:  -, -, -
    Solid Harmonics ordering:            Gaussian
   => Loading Basis Set <=

    Name: CC-PVTZ
    Role: ORBITAL
    Keyword: BASIS
    atoms 1-2 entry N          line   224 file /Users/joseantoniorodriguesromero/anaconda3/share/psi4/basis/cc-pvtz.gbs 


         ---------------------------------------------------------
                                   SCF
               by Justin Turney, Rob Parrish, Andy Simmonett
                          and Daniel G. A. Smith
                              UKS Reference
                        1 Threads,    500 MiB Core
         ---------------------------------------------------------

  ==> Geometry <==

    Molecular point group: d2h
    Full point group: D_inf_h

    Geometry (in Angstrom), charge = -1, multiplicity = 2:

       Center              X                  Y                   Z               Mass       
    ------------   -----------------  -----------------  -----------------  -----------------
         N            0.000000000000     0.000000000000    -0.584555000000    14.003074004430
         N            0.000000000000     0.000000000000     0.584555000000    14.003074004430

  Running in d2h symmetry.

  Rotational constants: A = ************  B =      1.76154  C =      1.76154 [cm^-1]
  Rotational constants: A = ************  B =  52809.62219  C =  52809.62219 [MHz]
  Nuclear repulsion =   22.178993698480035

  Charge       = -1
  Multiplicity = 2
  Electrons    = 15
  Nalpha       = 8
  Nbeta        = 7

  ==> Algorithm <==

  SCF Algorithm Type is DF.
  DIIS enabled.
  MOM disabled.
  Fractional occupation disabled.
  Guess Type is READ.
  Energy threshold   = 1.00e-08
  Density threshold  = 1.00e-08
  Integral threshold = 1.00e-12

  ==> Primary Basis <==

  Basis Set: CC-PVTZ
    Blend: CC-PVTZ
    Number of shells: 20
    Number of basis functions: 60
    Number of Cartesian functions: 70
    Spherical Harmonics?: true
    Max angular momentum: 3

  ==> DFT Potential <==

   => LibXC <=

    Version 6.2.2
    S. Lehtola, C. Steigemann, M. J.T. Oliveira, and M. A.L. Marques.,  SoftwareX 7, 1–5 (2018) (10.1016/j.softx.2017.11.002)

   => Composite Functional: B3LYP <= 

    B3LYP Hyb-GGA Exchange-Correlation Functional

    P. J. Stephens, F. J. Devlin, C. F. Chabalowski, and M. J. Frisch.,  J. Phys. Chem. 98, 11623 (1994) (10.1021/j100096a001)

    Deriv               =              1
    GGA                 =           TRUE
    Meta                =          FALSE

    Exchange Hybrid     =           TRUE
    MP2 Hybrid          =          FALSE

   => Exchange Functionals <=

    0.0800   Slater exchange
    0.7200         Becke 88

   => Exact (HF) Exchange <=

    0.2000               HF 

   => Correlation Functionals <=

    0.1900   Vosko, Wilk & Nusair (VWN5_RPA)
    0.8100   Lee, Yang & Parr

   => LibXC Density Thresholds  <==

    XC_HYB_GGA_XC_B3LYP:  1.00E-15 

   => Molecular Quadrature <=

    Radial Scheme          =       TREUTLER
    Pruning Scheme         =           NONE
    Nuclear Scheme         =       TREUTLER

    Blocking Scheme        =         OCTREE
    BS radius alpha        =              1
    Pruning alpha          =              1
    Radial Points          =             75
    Spherical Points       =            302
    Total Points           =          42444
    Total Blocks           =            374
    Max Points             =            255
    Max Functions          =             60
    Weights Tolerance      =       1.00E-15

   => Loading Basis Set <=

    Name: (CC-PVTZ AUX)
    Role: JKFIT
    Keyword: DF_BASIS_SCF
    atoms 1-2 entry N          line   177 file /Users/joseantoniorodriguesromero/anaconda3/share/psi4/basis/cc-pvtz-jkfit.gbs 

   => Loading Basis Set <=

    Name: CC-PVTZ
    Role: ORBITAL
    Keyword: BASIS
    atoms 1-2 entry N          line   224 file /Users/joseantoniorodriguesromero/anaconda3/share/psi4/basis/cc-pvtz.gbs 

  Reading orbitals from file /tmp/scan_NN_28.default.49029.180.npy, no projection.

  ==> Integral Setup <==

  DFHelper Memory: AOs need 0.005 GiB; user supplied 0.295 GiB. 
  Using in-core AOs.

  ==> MemDFJK: Density-Fitted J/K Matrices <==

    J tasked:                   Yes
    K tasked:                   Yes
    wK tasked:                   No
    OpenMP threads:               1
    Memory [MiB]:               302
    Algorithm:                 Core
    Schwarz Cutoff:           1E-12
    Mask sparsity (%):       0.0000
    Fitting Condition:        1E-10

   => Auxiliary Basis Set <=

  Basis Set: (CC-PVTZ AUX)
    Blend: CC-PVTZ-JKFIT
    Number of shells: 50
    Number of basis functions: 158
    Number of Cartesian functions: 192
    Spherical Harmonics?: true
    Max angular momentum: 4

  Cached 100.0% of DFT collocation blocks in 0.071 [GiB].

  Minimum eigenvalue in the overlap matrix is 2.9468511300E-03.
  Reciprocal condition number of the overlap matrix is 8.0488106295E-04.
    Using symmetric orthogonalization.

  ==> Pre-Iterations <==

  SCF Guess: Orbitals guess was supplied from a previous computation.

   -------------------------------------------------------
    Irrep   Nso     Nmo     Nalpha   Nbeta   Ndocc  Nsocc
   -------------------------------------------------------
     Ag        13      13       3       3       3       0
     B1g        3       3       0       0       0       0
     B2g        7       7       1       0       0       1
     B3g        7       7       0       0       0       0
     Au         3       3       0       0       0       0
     B1u       13      13       2       2       2       0
     B2u        7       7       1       1       1       0
     B3u        7       7       1       1       1       0
   -------------------------------------------------------
    Total      60      60       8       7       7       1
   -------------------------------------------------------

  ==> Iterations <==

                           Total Energy        Delta E     RMS |[F,P]|

   @DF-UKS iter   0:  -109.48282010322708   -1.09483e+02   1.23724e-11 
   @DF-UKS iter   1:  -109.48282010322725   -1.70530e-13   9.03493e-12 DIIS
  Energy and wave function converged.


  ==> Post-Iterations <==

   Electrons on quadrature grid:
      Nalpha   =    8.0000002267 ; deviation = 2.267e-07
      Nbeta    =    7.0000002225 ; deviation = 2.225e-07
      Ntotal   =   15.0000004492 ; deviation = 4.492e-07 

   @Spin Contamination Metric:   2.817691458E-03
   @S^2 Expected:                7.500000000E-01
   @S^2 Observed:                7.528176915E-01
   @S   Expected:                5.000000000E-01
   @S   Observed:                5.000000000E-01

    Orbital Energies [Eh]
    ---------------------

    Alpha Occupied:                                                       

       1Ag   -14.015994     1B1u  -14.015093     2Ag    -0.700497  
       2B1u   -0.219487     1B3u   -0.102781     1B2u   -0.080835  
       3Ag    -0.066981     1B2g    0.200395  

    Alpha Virtual:                                                        

       1B3g    0.293810     3B1u    0.542516     2B3u    0.694340  
       2B2u    0.696446     4Ag     0.700211     2B2g    0.801958  
       5Ag     0.809616     2B3g    0.817282     4B1u    0.961915  
       5B1u    1.135237     1B1g    1.182368     6Ag     1.183489  
       3B3u    1.399126     3B2u    1.399846     1Au     1.568874  
       6B1u    1.570456     3B2g    1.991831     3B3g    1.994871  
       7Ag     2.009373     7B1u    2.137810     4B3u    3.097434  
       4B2u    3.108800     8Ag     3.258092     4B2g    3.384411  
       4B3g    3.393456     8B1u    3.783231     2B1g    3.821277  
       9Ag     3.822277     5B2u    3.924941     5B3u    3.928533  
       6B3u    4.006010     6B2u    4.006239    10Ag     4.254072  
       5B2g    4.392377     5B3g    4.392610     3B1g    4.714034  
      11Ag     4.716907     9B1u    4.820614     2Au     4.829623  
      10B1u    4.834117     6B2g    4.902726     6B3g    4.909406  
       3Au     5.145328    11B1u    5.146618     7B3u    5.271253  
       7B2u    5.273367    12Ag     5.586426    12B1u    5.858162  
      13Ag     6.424966     7B3g    6.490181     7B2g    6.491204  
      13B1u   13.983745  

    Beta Occupied:                                                        

       1Ag   -14.005642     1B1u  -14.004673     2Ag    -0.681778  
       2B1u   -0.184976     1B2u   -0.072186     3Ag    -0.050065  
       1B3u   -0.039573  

    Beta Virtual:                                                         

       1B3g    0.305344     1B2g    0.337687     3B1u    0.550029  
       2B2u    0.700497     4Ag     0.705512     2B3u    0.720217  
       5Ag     0.819163     2B3g    0.824351     2B2g    0.845869  
       4B1u    0.977429     5B1u    1.152109     1B1g    1.199660  
       6Ag     1.199899     3B2u    1.401908     3B3u    1.427073  
       1Au     1.598032     6B1u    1.598136     3B3g    1.998380  
       7Ag     2.019823     3B2g    2.020804     7B1u    2.148405  
       4B2u    3.116868     4B3u    3.146879     8Ag     3.266774  
       4B3g    3.402286     4B2g    3.434108     8B1u    3.800248  
       2B1g    3.836284     9Ag     3.836560     5B2u    3.927295  
       5B3u    3.952355     6B2u    4.034511     6B3u    4.034647  
      10Ag     4.265686     5B3g    4.424681     5B2g    4.424701  
       3B1g    4.757456    11Ag     4.757579     9B1u    4.835354  
       2Au     4.873456    10B1u    4.874661     6B3g    4.913095  
       6B2g    4.940380     3Au     5.167356    11B1u    5.168204  
       7B2u    5.277044     7B3u    5.306334    12Ag     5.605964  
      12B1u    5.870889    13Ag     6.437006     7B3g    6.493629  
       7B2g    6.520960    13B1u   13.998885  

    Final Occupation by Irrep:
             Ag   B1g   B2g   B3g    Au   B1u   B2u   B3u 
    DOCC [     3,    0,    0,    0,    0,    2,    1,    1 ]
    SOCC [     0,    0,    1,    0,    0,    0,    0,    0 ]
    NA   [     3,    0,    1,    0,    0,    2,    1,    1 ]
    NB   [     3,    0,    0,    0,    0,    2,    1,    1 ]

  @DF-UKS Final Energy:  -109.48282010322725

   => Energetics <=

    Nuclear Repulsion Energy =             22.1789936984800349
    One-Electron Energy =                -197.1383608388844664
    Two-Electron Energy =                  76.8000531917827516
    DFT Exchange-Correlation Energy =     -11.3235061546055888
    Empirical Dispersion Energy =           0.0000000000000000
    VV10 Nonlocal Energy =                  0.0000000000000000
    Total Energy =                       -109.4828201032272545

  UHF NO Occupations:
  HONO-2 :    2B1u 1.9996729
  HONO-1 :    1B3u 1.9991271
  HONO-0 :    1B2g 1.0000000
  LUNO+0 :    2B3u 0.0008729
  LUNO+1 :    3B1u 0.0003271
  LUNO+2 :    4 Ag 0.0001677
  LUNO+3 :    2B2u 0.0000316


Computation Completed


Properties will be evaluated at   0.000000,   0.000000,   0.000000 [a0]

Properties computed using the B3LYP density matrix


 Multipole Moments:

 ------------------------------------------------------------------------------------
     Multipole            Electronic (a.u.)      Nuclear  (a.u.)        Total (a.u.)
 ------------------------------------------------------------------------------------

 L = 1.  Multiply by 2.5417464519 to convert [e a0] to [Debye]
 Dipole X            :          0.0000000            0.0000000            0.0000000
 Dipole Y            :          0.0000000            0.0000000            0.0000000
 Dipole Z            :          0.0000000            0.0000000            0.0000000
 Magnitude           :                                                    0.0000000

 L = 2.  Multiply by 1.3450342976 to convert [e a0^2] to [Debye ang]
 Quadrupole XX       :        -10.3839225            0.0000000          -10.3839225
 Quadrupole XY       :          0.0000000            0.0000000            0.0000000
 Quadrupole XZ       :          0.0000000            0.0000000            0.0000000
 Quadrupole YY       :         -9.2225273            0.0000000           -9.2225273
 Quadrupole YZ       :          0.0000000            0.0000000            0.0000000
 Quadrupole ZZ       :        -29.9735793           17.0834873          -12.8900920
 Traceless XX        :          6.1427539           -5.6944958            0.4482581
 Traceless YY        :          7.3041491           -5.6944958            1.6096533
 Traceless ZZ        :        -13.4469029           11.3889915           -2.0579114

 ------------------------------------------------------------------------------------
  ==> Computing MBIS Charges <==

  Electron Count from Grid (Expected Number): 15.00000 (15.00000)
  Difference:  0.00000

  MBIS Charges: (a.u.)
   Center  Symbol  Z      Pop.       Charge
      1       N    7    7.500000   -0.500000
      2       N    7    7.500000   -0.500000

  MBIS Dipoles: [e a0]
   Center  Symbol  Z        X           Y           Z
      1       N    7    0.000000   -0.000000    0.229729
      2       N    7    0.000000    0.000000   -0.229729

  MBIS Quadrupoles: [e a0^2]
   Center  Symbol  Z      XX        XY        XZ        YY        YZ        ZZ
      1       N    7   -5.1920    0.0000   -0.0000   -4.6113   -0.0000   -5.3274
      2       N    7   -5.1920    0.0000    0.0000   -4.6113    0.0000   -5.3274

  MBIS Octupoles: [e a0^3]
   Center  Symbol  Z      XXX       XXY       XXZ       XYY       XYZ       XZZ       YYY       YYZ       YZZ       ZZZ
      1       N    7   -0.0000   -0.0000    0.4818   -0.0000    0.0000    0.0000   -0.0000    0.2029    0.0000    0.3257
      2       N    7   -0.0000   -0.0000   -0.4818   -0.0000   -0.0000    0.0000   -0.0000   -0.2029   -0.0000   -0.3257

  MBIS Radial Moments:
   Center  Symbol  Z      [a0^2]      [a0^3]      [a0^4]      
      1       N    7   15.130607   34.271206   92.183030
      2       N    7   15.130607   34.271206   92.183030

  MBIS Valence Widths: [a0]
   Center  Symbol  Z     Width
      1       N    7    0.467270
      2       N    7    0.467270

*** tstop() called on Mac.lan at Sun Aug 10 17:33:30 2025
Module time:
	user time   =       3.40 seconds =       0.06 minutes
	system time =       2.03 seconds =       0.03 minutes
	total time  =          0 seconds =       0.00 minutes
Total time:
	user time   =      15.58 seconds =       0.26 minutes
	system time =       4.13 seconds =       0.07 minutes
	total time  =          1 seconds =       0.02 minutes

    Psi4 stopped on: Sunday, 10 August 2025 05:33PM
    Psi4 wall time for execution: 0:00:01.92

*** Psi4 exiting successfully. Buy a developer a beer!
