
    -----------------------------------------------------------------------
          Psi4: An Open-Source Ab Initio Electronic Structure Package
                               Psi4 1.9.1 release

                         Git: Rev {} zzzzzzz 


    D. G. A. Smith, L. A. Burns, A. C. Simmonett, R. M. Parrish,
    M. C. Schieber, R. Galvelis, P. Kraus, H. Kruse, R. Di Remigio,
    A. Alenaizan, A. M. James, S. Lehtola, J. P. Misiewicz, M. Scheurer,
    R. A. Shaw, J. B. Schriber, Y. Xie, Z. L. Glick, D. A. Sirianni,
    J. S. O'Brien, J. M. Waldrop, A. Kumar, E. G. Hohenstein,
    B. P. Pritchard, B. R. Brooks, H. F. Schaefer III, A. Yu. Sokolov,
    K. Patkowski, A. E. DePrince III, U. Bozkaya, R. A. King,
    F. A. Evangelista, J. M. Turney, T. D. Crawford, C. D. Sherrill,
    J. Chem. Phys. 152(18) 184108 (2020). https://doi.org/10.1063/5.0006002

                            Additional Code Authors
    E. T. Seidl, C. L. Janssen, E. F. Valeev, M. L. Leininger,
    J. F. Gonthier, R. M. Richard, H. R. McAlexander, M. Saitow, X. Wang,
    P. Verma, M. H. Lechner, A. Jiang, S. Behnle, A. G. Heide,
    M. F. Herbst, and D. L. Poole

             Previous Authors, Complete List of Code Contributors,
                       and Citations for Specific Modules
    https://github.com/psi4/psi4/blob/master/codemeta.json
    https://github.com/psi4/psi4/graphs/contributors
    http://psicode.org/psi4manual/master/introduction.html#citing-psifour

    -----------------------------------------------------------------------


    Psi4 started on: Sunday, 10 August 2025 05:35PM

    Process ID: 49100
    Host:       Mac.lan
    PSIDATADIR: /Users/joseantoniorodriguesromero/anaconda3/share/psi4
    Memory:     500.0 MiB
    Threads:    1
    
  ==> Input File <==

--------------------------------------------------------------------------
molecule { 
-1 3
C           0.000000           0.000000           0.000000
H           0.000000           0.000000           0.456999
}

set { 
basis              cc-pvtz
reference          uks
maxiter            500
DAMPING_PERCENTAGE 1
E_CONVERGENCE      1.0E-8
D_CONVERGENCE      1.0E-8
DIIS_MAX_VECS      400
MBIS_MAXITER       8000
guess              read
}

E, wfn = energy('b3lyp', restart_file='last_wfn', return_wfn=True)
properties('b3lyp','MBIS_CHARGES', wfn=wfn)
wfn.to_file('last_wfn')
--------------------------------------------------------------------------

Scratch directory: /tmp/
 Found user provided orbital data. Setting orbital guess to READ 
 Copying restart file <last_wfn.npy> to </tmp/scan_HC_3.default.49100.180.npy> for internal processing
   => Libint2 <=

    Primary   basis highest AM E, G, H:  6, 6, 3
    Auxiliary basis highest AM E, G, H:  7, 7, 4
    Onebody   basis highest AM E, G, H:  -, -, -
    Solid Harmonics ordering:            Gaussian

*** tstart() called on Mac.lan
*** at Sun Aug 10 17:35:34 2025

   => Loading Basis Set <=

    Name: CC-PVTZ
    Role: ORBITAL
    Keyword: BASIS
    atoms 1 entry C          line   186 file /Users/joseantoniorodriguesromero/anaconda3/share/psi4/basis/cc-pvtz.gbs 
    atoms 2 entry H          line    23 file /Users/joseantoniorodriguesromero/anaconda3/share/psi4/basis/cc-pvtz.gbs 


         ---------------------------------------------------------
                                   SCF
               by Justin Turney, Rob Parrish, Andy Simmonett
                          and Daniel G. A. Smith
                              UKS Reference
                        1 Threads,    500 MiB Core
         ---------------------------------------------------------

  ==> Geometry <==

    Molecular point group: c2v
    Full point group: C_inf_v

    Geometry (in Angstrom), charge = -1, multiplicity = 3:

       Center              X                  Y                   Z               Mass       
    ------------   -----------------  -----------------  -----------------  -----------------
         C            0.000000000000     0.000000000000    -0.035407535907    12.000000000000
         H            0.000000000000     0.000000000000     0.421591464093     1.007825032230

  Running in c2v symmetry.

  Rotational constants: A = ************  B =     86.81690  C =     86.81690 [cm^-1]
  Rotational constants: A = ************  B = 2602705.31700  C = 2602705.31700 [MHz]
  Nuclear repulsion =    6.947637224632880

  Charge       = -1
  Multiplicity = 3
  Electrons    = 8
  Nalpha       = 5
  Nbeta        = 3

  ==> Algorithm <==

  SCF Algorithm Type is DF.
  DIIS enabled.
  MOM disabled.
  Fractional occupation disabled.
  Guess Type is READ.
  Energy threshold   = 1.00e-08
  Density threshold  = 1.00e-08
  Integral threshold = 1.00e-12

  ==> Primary Basis <==

  Basis Set: CC-PVTZ
    Blend: CC-PVTZ
    Number of shells: 16
    Number of basis functions: 44
    Number of Cartesian functions: 50
    Spherical Harmonics?: true
    Max angular momentum: 3

  ==> DFT Potential <==

   => LibXC <=

    Version 6.2.2
    S. Lehtola, C. Steigemann, M. J.T. Oliveira, and M. A.L. Marques.,  SoftwareX 7, 1–5 (2018) (10.1016/j.softx.2017.11.002)

   => Composite Functional: B3LYP <= 

    B3LYP Hyb-GGA Exchange-Correlation Functional

    P. J. Stephens, F. J. Devlin, C. F. Chabalowski, and M. J. Frisch.,  J. Phys. Chem. 98, 11623 (1994) (10.1021/j100096a001)

    Deriv               =              1
    GGA                 =           TRUE
    Meta                =          FALSE

    Exchange Hybrid     =           TRUE
    MP2 Hybrid          =          FALSE

   => Exchange Functionals <=

    0.0800   Slater exchange
    0.7200         Becke 88

   => Exact (HF) Exchange <=

    0.2000               HF 

   => Correlation Functionals <=

    0.1900   Vosko, Wilk & Nusair (VWN5_RPA)
    0.8100   Lee, Yang & Parr

   => LibXC Density Thresholds  <==

    XC_HYB_GGA_XC_B3LYP:  1.00E-15 

   => Molecular Quadrature <=

    Radial Scheme          =       TREUTLER
    Pruning Scheme         =           NONE
    Nuclear Scheme         =       TREUTLER

    Blocking Scheme        =         OCTREE
    BS radius alpha        =              1
    Pruning alpha          =              1
    Radial Points          =             75
    Spherical Points       =            302
    Total Points           =          43697
    Total Blocks           =            387
    Max Points             =            251
    Max Functions          =             44
    Weights Tolerance      =       1.00E-15

   => Loading Basis Set <=

    Name: (CC-PVTZ AUX)
    Role: JKFIT
    Keyword: DF_BASIS_SCF
    atoms 1 entry C          line   125 file /Users/joseantoniorodriguesromero/anaconda3/share/psi4/basis/cc-pvtz-jkfit.gbs 
    atoms 2 entry H          line    51 file /Users/joseantoniorodriguesromero/anaconda3/share/psi4/basis/cc-pvtz-jkfit.gbs 

   => Loading Basis Set <=

    Name: CC-PVTZ
    Role: ORBITAL
    Keyword: BASIS
    atoms 1 entry C          line   186 file /Users/joseantoniorodriguesromero/anaconda3/share/psi4/basis/cc-pvtz.gbs 
    atoms 2 entry H          line    23 file /Users/joseantoniorodriguesromero/anaconda3/share/psi4/basis/cc-pvtz.gbs 

  Reading orbitals from file /tmp/scan_HC_3.default.49100.180.npy, no projection.

  ==> Integral Setup <==

  DFHelper Memory: AOs need 0.002 GiB; user supplied 0.311 GiB. 
  Using in-core AOs.

  ==> MemDFJK: Density-Fitted J/K Matrices <==

    J tasked:                   Yes
    K tasked:                   Yes
    wK tasked:                   No
    OpenMP threads:               1
    Memory [MiB]:               318
    Algorithm:                 Core
    Schwarz Cutoff:           1E-12
    Mask sparsity (%):       0.0000
    Fitting Condition:        1E-10

   => Auxiliary Basis Set <=

  Basis Set: (CC-PVTZ AUX)
    Blend: CC-PVTZ-JKFIT
    Number of shells: 35
    Number of basis functions: 109
    Number of Cartesian functions: 131
    Spherical Harmonics?: true
    Max angular momentum: 4

  Cached 100.0% of DFT collocation blocks in 0.056 [GiB].

  Minimum eigenvalue in the overlap matrix is 6.9487946487E-04.
  Reciprocal condition number of the overlap matrix is 1.5570597350E-04.
    Using symmetric orthogonalization.

  ==> Pre-Iterations <==

  SCF Guess: Orbitals guess was supplied from a previous computation.

   -------------------------------------------------------
    Irrep   Nso     Nmo     Nalpha   Nbeta   Ndocc  Nsocc
   -------------------------------------------------------
     A1        20      20       3       3       3       0
     A2         4       4       0       0       0       0
     B1        10      10       1       0       0       1
     B2        10      10       1       0       0       1
   -------------------------------------------------------
    Total      44      44       5       3       3       2
   -------------------------------------------------------

  ==> Iterations <==

                           Total Energy        Delta E     RMS |[F,P]|

   @DF-UKS iter   0:   -37.30733135888120   -3.73073e+01   6.21097e-03 
   @DF-UKS iter   1:   -37.30315709351913    4.17427e-03   1.24537e-03 DIIS/ADIIS
   @DF-UKS iter   2:   -37.30305817015330    9.89234e-05   1.29205e-03 DIIS/ADIIS/DAMP=1%
   @DF-UKS iter   3:   -37.30282538733145    2.32783e-04   6.74614e-05 DIIS/DAMP=1%
   @DF-UKS iter   4:   -37.30363953514994   -8.14148e-04   5.55960e-06 DIIS/DAMP=1%
   @DF-UKS iter   5:   -37.30360993129734    2.96039e-05   1.22668e-06 DIIS/DAMP=1%
   @DF-UKS iter   6:   -37.30360989071990    4.05774e-08   2.80881e-07 DIIS/DAMP=1%
   @DF-UKS iter   7:   -37.30361057353937   -6.82819e-07   4.08636e-08 DIIS/DAMP=1%
   @DF-UKS iter   8:   -37.30361046915914    1.04380e-07   4.36056e-09 DIIS/DAMP=1%
   @DF-UKS iter   9:   -37.30361049527403   -2.61149e-08   1.59812e-10 DIIS/DAMP=1%
   @DF-UKS iter  10:   -37.30361049273813    2.53590e-09   2.66303e-11 DIIS/DAMP=1%
  Energy and wave function converged.


  ==> Post-Iterations <==

   Electrons on quadrature grid:
      Nalpha   =    4.9999999947 ; deviation = -5.296e-09
      Nbeta    =    2.9999999947 ; deviation = -5.257e-09
      Ntotal   =    7.9999999894 ; deviation = -1.055e-08 

   @Spin Contamination Metric:   5.974331098E-03
   @S^2 Expected:                2.000000000E+00
   @S^2 Observed:                2.005974331E+00
   @S   Expected:                1.000000000E+00
   @S   Observed:                1.000000000E+00

    Orbital Energies [Eh]
    ---------------------

    Alpha Occupied:                                                       

       1A1    -9.902466     2A1    -0.444493     3A1     0.011990  
       1B2     0.087352     1B1     0.087352  

    Alpha Virtual:                                                        

       4A1     0.294063     5A1     0.515544     2B2     0.566214  
       2B1     0.566214     6A1     0.775415     3B2     0.969914  
       3B1     0.969914     7A1     0.975060     1A2     0.975060  
       8A1     1.038522     9A1     1.358675     4B1     1.509207  
       4B2     1.509207    10A1     2.067674     5B1     2.187777  
       5B2     2.187777    11A1     2.597149    12A1     2.980574  
       2A2     2.980574     6B2     3.010214     6B1     3.010214  
      13A1     3.014395     7B2     3.108019     7B1     3.108019  
      14A1     3.188299     3A2     3.188299    15A1     3.521373  
       8B1     3.606788     8B2     3.606788    16A1     4.867203  
       4A2     4.990515    17A1     4.990515     9B1     5.002627  
       9B2     5.002627    18A1     5.998578    10B1     7.352466  
      10B2     7.352466    19A1    10.329561    20A1    21.489458  

    Beta Occupied:                                                        

       1A1    -9.877374     2A1    -0.376581     3A1     0.060973  

    Beta Virtual:                                                         

       1B2     0.247395     1B1     0.247395     4A1     0.302965  
       5A1     0.530330     2B2     0.635799     2B1     0.635799  
       6A1     0.814522     3B2     1.007029     3B1     1.007029  
       1A2     1.050617     7A1     1.050617     8A1     1.065448  
       9A1     1.366685     4B1     1.529878     4B2     1.529878  
      10A1     2.104879     5B1     2.267531     5B2     2.267531  
      11A1     2.633120     2A2     3.038340    12A1     3.038340  
      13A1     3.075843     6B2     3.105373     6B1     3.105373  
       7B2     3.155724     7B1     3.155724    14A1     3.296312  
       3A2     3.296312    15A1     3.547616     8B1     3.648339  
       8B2     3.648339    16A1     4.901338     9B1     5.038587  
       9B2     5.038587    17A1     5.044696     4A2     5.044697  
      18A1     6.030350    10B1     7.391676    10B2     7.391676  
      19A1    10.338635    20A1    21.513432  

    Final Occupation by Irrep:
             A1    A2    B1    B2 
    DOCC [     3,    0,    0,    0 ]
    SOCC [     0,    0,    1,    1 ]
    NA   [     3,    0,    1,    1 ]
    NB   [     3,    0,    0,    0 ]

  @DF-UKS Final Energy:   -37.30361049273813

   => Energetics <=

    Nuclear Repulsion Energy =              6.9476372246328797
    One-Electron Energy =                 -64.4920128492123155
    Two-Electron Energy =                  25.3197757425785710
    DFT Exchange-Correlation Energy =      -5.0790106107372663
    Empirical Dispersion Energy =           0.0000000000000000
    VV10 Nonlocal Energy =                  0.0000000000000000
    Total Energy =                        -37.3036104927381302

  UHF NO Occupations:
  HONO-2 :    3 A1 1.9971776
  HONO-1 :    1 B2 1.0000000
  HONO-0 :    1 B1 1.0000000
  LUNO+0 :    4 A1 0.0028224
  LUNO+1 :    5 A1 0.0001675
  LUNO+2 :    6 A1 0.0000012
  LUNO+3 :    7 A1 0.0000000


Computation Completed


Properties will be evaluated at   0.000000,   0.000000,   0.000000 [a0]

Properties computed using the SCF density matrix


 Multipole Moments:

 ------------------------------------------------------------------------------------
     Multipole            Electronic (a.u.)      Nuclear  (a.u.)        Total (a.u.)
 ------------------------------------------------------------------------------------

 L = 1.  Multiply by 2.5417464519 to convert [e a0] to [Debye]
 Dipole X            :          0.0000000            0.0000000            0.0000000
 Dipole Y            :          0.0000000            0.0000000            0.0000000
 Dipole Z            :          0.5473495            0.3952291            0.9425787
 Magnitude           :                                                    0.9425787

 ------------------------------------------------------------------------------------

*** tstop() called on Mac.lan at Sun Aug 10 17:35:35 2025
Module time:
	user time   =      10.75 seconds =       0.18 minutes
	system time =       2.12 seconds =       0.04 minutes
	total time  =          1 seconds =       0.02 minutes
Total time:
	user time   =      10.75 seconds =       0.18 minutes
	system time =       2.12 seconds =       0.04 minutes
	total time  =          1 seconds =       0.02 minutes

*** tstart() called on Mac.lan
*** at Sun Aug 10 17:35:35 2025

   => Libint2 <=

    Primary   basis highest AM E, G, H:  6, 6, 3
    Auxiliary basis highest AM E, G, H:  7, 7, 4
    Onebody   basis highest AM E, G, H:  -, -, -
    Solid Harmonics ordering:            Gaussian
   => Loading Basis Set <=

    Name: CC-PVTZ
    Role: ORBITAL
    Keyword: BASIS
    atoms 1 entry C          line   186 file /Users/joseantoniorodriguesromero/anaconda3/share/psi4/basis/cc-pvtz.gbs 
    atoms 2 entry H          line    23 file /Users/joseantoniorodriguesromero/anaconda3/share/psi4/basis/cc-pvtz.gbs 


         ---------------------------------------------------------
                                   SCF
               by Justin Turney, Rob Parrish, Andy Simmonett
                          and Daniel G. A. Smith
                              UKS Reference
                        1 Threads,    500 MiB Core
         ---------------------------------------------------------

  ==> Geometry <==

    Molecular point group: c2v
    Full point group: C_inf_v

    Geometry (in Angstrom), charge = -1, multiplicity = 3:

       Center              X                  Y                   Z               Mass       
    ------------   -----------------  -----------------  -----------------  -----------------
         C            0.000000000000     0.000000000000    -0.035407535907    12.000000000000
         H            0.000000000000     0.000000000000     0.421591464093     1.007825032230

  Running in c2v symmetry.

  Rotational constants: A = ************  B =     86.81690  C =     86.81690 [cm^-1]
  Rotational constants: A = ************  B = 2602705.31700  C = 2602705.31700 [MHz]
  Nuclear repulsion =    6.947637224632880

  Charge       = -1
  Multiplicity = 3
  Electrons    = 8
  Nalpha       = 5
  Nbeta        = 3

  ==> Algorithm <==

  SCF Algorithm Type is DF.
  DIIS enabled.
  MOM disabled.
  Fractional occupation disabled.
  Guess Type is READ.
  Energy threshold   = 1.00e-08
  Density threshold  = 1.00e-08
  Integral threshold = 1.00e-12

  ==> Primary Basis <==

  Basis Set: CC-PVTZ
    Blend: CC-PVTZ
    Number of shells: 16
    Number of basis functions: 44
    Number of Cartesian functions: 50
    Spherical Harmonics?: true
    Max angular momentum: 3

  ==> DFT Potential <==

   => LibXC <=

    Version 6.2.2
    S. Lehtola, C. Steigemann, M. J.T. Oliveira, and M. A.L. Marques.,  SoftwareX 7, 1–5 (2018) (10.1016/j.softx.2017.11.002)

   => Composite Functional: B3LYP <= 

    B3LYP Hyb-GGA Exchange-Correlation Functional

    P. J. Stephens, F. J. Devlin, C. F. Chabalowski, and M. J. Frisch.,  J. Phys. Chem. 98, 11623 (1994) (10.1021/j100096a001)

    Deriv               =              1
    GGA                 =           TRUE
    Meta                =          FALSE

    Exchange Hybrid     =           TRUE
    MP2 Hybrid          =          FALSE

   => Exchange Functionals <=

    0.0800   Slater exchange
    0.7200         Becke 88

   => Exact (HF) Exchange <=

    0.2000               HF 

   => Correlation Functionals <=

    0.1900   Vosko, Wilk & Nusair (VWN5_RPA)
    0.8100   Lee, Yang & Parr

   => LibXC Density Thresholds  <==

    XC_HYB_GGA_XC_B3LYP:  1.00E-15 

   => Molecular Quadrature <=

    Radial Scheme          =       TREUTLER
    Pruning Scheme         =           NONE
    Nuclear Scheme         =       TREUTLER

    Blocking Scheme        =         OCTREE
    BS radius alpha        =              1
    Pruning alpha          =              1
    Radial Points          =             75
    Spherical Points       =            302
    Total Points           =          43697
    Total Blocks           =            387
    Max Points             =            251
    Max Functions          =             44
    Weights Tolerance      =       1.00E-15

   => Loading Basis Set <=

    Name: (CC-PVTZ AUX)
    Role: JKFIT
    Keyword: DF_BASIS_SCF
    atoms 1 entry C          line   125 file /Users/joseantoniorodriguesromero/anaconda3/share/psi4/basis/cc-pvtz-jkfit.gbs 
    atoms 2 entry H          line    51 file /Users/joseantoniorodriguesromero/anaconda3/share/psi4/basis/cc-pvtz-jkfit.gbs 

   => Loading Basis Set <=

    Name: CC-PVTZ
    Role: ORBITAL
    Keyword: BASIS
    atoms 1 entry C          line   186 file /Users/joseantoniorodriguesromero/anaconda3/share/psi4/basis/cc-pvtz.gbs 
    atoms 2 entry H          line    23 file /Users/joseantoniorodriguesromero/anaconda3/share/psi4/basis/cc-pvtz.gbs 

  Reading orbitals from file /tmp/scan_HC_3.default.49100.180.npy, no projection.

  ==> Integral Setup <==

  DFHelper Memory: AOs need 0.002 GiB; user supplied 0.311 GiB. 
  Using in-core AOs.

  ==> MemDFJK: Density-Fitted J/K Matrices <==

    J tasked:                   Yes
    K tasked:                   Yes
    wK tasked:                   No
    OpenMP threads:               1
    Memory [MiB]:               318
    Algorithm:                 Core
    Schwarz Cutoff:           1E-12
    Mask sparsity (%):       0.0000
    Fitting Condition:        1E-10

   => Auxiliary Basis Set <=

  Basis Set: (CC-PVTZ AUX)
    Blend: CC-PVTZ-JKFIT
    Number of shells: 35
    Number of basis functions: 109
    Number of Cartesian functions: 131
    Spherical Harmonics?: true
    Max angular momentum: 4

  Cached 100.0% of DFT collocation blocks in 0.056 [GiB].

  Minimum eigenvalue in the overlap matrix is 6.9487946487E-04.
  Reciprocal condition number of the overlap matrix is 1.5570597350E-04.
    Using symmetric orthogonalization.

  ==> Pre-Iterations <==

  SCF Guess: Orbitals guess was supplied from a previous computation.

   -------------------------------------------------------
    Irrep   Nso     Nmo     Nalpha   Nbeta   Ndocc  Nsocc
   -------------------------------------------------------
     A1        20      20       3       3       3       0
     A2         4       4       0       0       0       0
     B1        10      10       1       0       0       1
     B2        10      10       1       0       0       1
   -------------------------------------------------------
    Total      44      44       5       3       3       2
   -------------------------------------------------------

  ==> Iterations <==

                           Total Energy        Delta E     RMS |[F,P]|

   @DF-UKS iter   0:   -37.30361049280928   -3.73036e+01   1.49503e-12 
   @DF-UKS iter   1:   -37.30361049280926    2.84217e-14   3.59490e-13 DIIS
  Energy and wave function converged.


  ==> Post-Iterations <==

   Electrons on quadrature grid:
      Nalpha   =    4.9999999947 ; deviation = -5.296e-09
      Nbeta    =    2.9999999947 ; deviation = -5.257e-09
      Ntotal   =    7.9999999894 ; deviation = -1.055e-08 

   @Spin Contamination Metric:   5.974331098E-03
   @S^2 Expected:                2.000000000E+00
   @S^2 Observed:                2.005974331E+00
   @S   Expected:                1.000000000E+00
   @S   Observed:                1.000000000E+00

    Orbital Energies [Eh]
    ---------------------

    Alpha Occupied:                                                       

       1A1    -9.902466     2A1    -0.444493     3A1     0.011990  
       1B2     0.087352     1B1     0.087352  

    Alpha Virtual:                                                        

       4A1     0.294063     5A1     0.515544     2B2     0.566214  
       2B1     0.566214     6A1     0.775415     3B2     0.969914  
       3B1     0.969914     7A1     0.975060     1A2     0.975060  
       8A1     1.038522     9A1     1.358675     4B1     1.509207  
       4B2     1.509207    10A1     2.067674     5B1     2.187777  
       5B2     2.187777    11A1     2.597149    12A1     2.980574  
       2A2     2.980574     6B2     3.010214     6B1     3.010214  
      13A1     3.014395     7B2     3.108019     7B1     3.108019  
      14A1     3.188299     3A2     3.188299    15A1     3.521373  
       8B1     3.606788     8B2     3.606788    16A1     4.867203  
       4A2     4.990515    17A1     4.990515     9B1     5.002627  
       9B2     5.002627    18A1     5.998578    10B1     7.352466  
      10B2     7.352466    19A1    10.329561    20A1    21.489458  

    Beta Occupied:                                                        

       1A1    -9.877374     2A1    -0.376581     3A1     0.060973  

    Beta Virtual:                                                         

       1B2     0.247395     1B1     0.247395     4A1     0.302965  
       5A1     0.530330     2B2     0.635799     2B1     0.635799  
       6A1     0.814522     3B2     1.007029     3B1     1.007029  
       1A2     1.050617     7A1     1.050617     8A1     1.065448  
       9A1     1.366685     4B1     1.529878     4B2     1.529878  
      10A1     2.104879     5B1     2.267531     5B2     2.267531  
      11A1     2.633120     2A2     3.038340    12A1     3.038340  
      13A1     3.075843     6B2     3.105373     6B1     3.105373  
       7B2     3.155724     7B1     3.155724    14A1     3.296312  
       3A2     3.296312    15A1     3.547616     8B1     3.648339  
       8B2     3.648339    16A1     4.901338     9B1     5.038587  
       9B2     5.038587    17A1     5.044696     4A2     5.044697  
      18A1     6.030350    10B1     7.391676    10B2     7.391676  
      19A1    10.338635    20A1    21.513432  

    Final Occupation by Irrep:
             A1    A2    B1    B2 
    DOCC [     3,    0,    0,    0 ]
    SOCC [     0,    0,    1,    1 ]
    NA   [     3,    0,    1,    1 ]
    NB   [     3,    0,    0,    0 ]

  @DF-UKS Final Energy:   -37.30361049280926

   => Energetics <=

    Nuclear Repulsion Energy =              6.9476372246328797
    One-Electron Energy =                 -64.4920128465926723
    Two-Electron Energy =                  25.3197757395366168
    DFT Exchange-Correlation Energy =      -5.0790106103860788
    Empirical Dispersion Energy =           0.0000000000000000
    VV10 Nonlocal Energy =                  0.0000000000000000
    Total Energy =                        -37.3036104928092556

  UHF NO Occupations:
  HONO-2 :    3 A1 1.9971776
  HONO-1 :    1 B2 1.0000000
  HONO-0 :    1 B1 1.0000000
  LUNO+0 :    4 A1 0.0028224
  LUNO+1 :    5 A1 0.0001675
  LUNO+2 :    6 A1 0.0000012
  LUNO+3 :    7 A1 0.0000000


Computation Completed


Properties will be evaluated at   0.000000,   0.000000,   0.000000 [a0]

Properties computed using the B3LYP density matrix


 Multipole Moments:

 ------------------------------------------------------------------------------------
     Multipole            Electronic (a.u.)      Nuclear  (a.u.)        Total (a.u.)
 ------------------------------------------------------------------------------------

 L = 1.  Multiply by 2.5417464519 to convert [e a0] to [Debye]
 Dipole X            :          0.0000000            0.0000000            0.0000000
 Dipole Y            :          0.0000000            0.0000000            0.0000000
 Dipole Z            :          0.5473495            0.3952291            0.9425787
 Magnitude           :                                                    0.9425787

 L = 2.  Multiply by 1.3450342976 to convert [e a0^2] to [Debye ang]
 Quadrupole XX       :         -7.5548367            0.0000000           -7.5548367
 Quadrupole XY       :          0.0000000            0.0000000            0.0000000
 Quadrupole XZ       :          0.0000000            0.0000000            0.0000000
 Quadrupole YY       :         -7.5548367            0.0000000           -7.5548367
 Quadrupole YZ       :          0.0000000            0.0000000            0.0000000
 Quadrupole ZZ       :         -8.1808220            0.6615809           -7.5192411
 Traceless XX        :          0.2086618           -0.2205270           -0.0118652
 Traceless YY        :          0.2086618           -0.2205270           -0.0118652
 Traceless ZZ        :         -0.4173235            0.4410539            0.0237304

 ------------------------------------------------------------------------------------
  ==> Computing MBIS Charges <==

  Electron Count from Grid (Expected Number):  8.00000 ( 8.00000)
  Difference: -0.00000

  MBIS Charges: (a.u.)
   Center  Symbol  Z      Pop.       Charge
      1       C    6    7.080190   -1.080190
      2       H    1    0.919810    0.080190

  MBIS Dipoles: [e a0]
   Center  Symbol  Z        X           Y           Z
      1       C    6   -0.000000   -0.000000    0.802439
      2       H    1   -0.000000   -0.000000    0.003977

  MBIS Quadrupoles: [e a0^2]
   Center  Symbol  Z      XX        XY        XZ        YY        YZ        ZZ
      1       C    6   -7.3400    0.0000    0.0000   -7.3400    0.0000   -7.2577
      2       H    1   -0.2149    0.0000   -0.0000   -0.2149   -0.0000   -0.2065

  MBIS Octupoles: [e a0^3]
   Center  Symbol  Z      XXX       XXY       XXZ       XYY       XYZ       XZZ       YYY       YYZ       YZZ       ZZZ
      1       C    6   -0.0000    0.0000    1.7687   -0.0000   -0.0000   -0.0000   -0.0000    1.7687   -0.0000    5.4047
      2       H    1   -0.0000   -0.0000    0.0041   -0.0000    0.0000   -0.0000   -0.0000    0.0041    0.0000    0.0135

  MBIS Radial Moments:
   Center  Symbol  Z      [a0^2]      [a0^3]      [a0^4]      
      1       C    6   21.937650   62.327776   208.112771
      2       H    1    0.636280    0.747940    1.056771

  MBIS Valence Widths: [a0]
   Center  Symbol  Z     Width
      1       C    6    0.586568
      2       H    1    0.243181

*** tstop() called on Mac.lan at Sun Aug 10 17:35:36 2025
Module time:
	user time   =       3.05 seconds =       0.05 minutes
	system time =       2.97 seconds =       0.05 minutes
	total time  =          1 seconds =       0.02 minutes
Total time:
	user time   =      13.88 seconds =       0.23 minutes
	system time =       5.22 seconds =       0.09 minutes
	total time  =          2 seconds =       0.03 minutes

    Psi4 stopped on: Sunday, 10 August 2025 05:35PM
    Psi4 wall time for execution: 0:00:01.86

*** Psi4 exiting successfully. Buy a developer a beer!
