
    -----------------------------------------------------------------------
          Psi4: An Open-Source Ab Initio Electronic Structure Package
                               Psi4 1.9.1 release

                         Git: Rev {} zzzzzzz 


    D. G. A. Smith, L. A. Burns, A. C. Simmonett, R. M. Parrish,
    M. C. Schieber, R. Galvelis, P. Kraus, H. Kruse, R. Di Remigio,
    A. Alenaizan, A. M. James, S. Lehtola, J. P. Misiewicz, M. Scheurer,
    R. A. Shaw, J. B. Schriber, Y. Xie, Z. L. Glick, D. A. Sirianni,
    J. S. O'Brien, J. M. Waldrop, A. Kumar, E. G. Hohenstein,
    B. P. Pritchard, B. R. Brooks, H. F. Schaefer III, A. Yu. Sokolov,
    K. Patkowski, A. E. DePrince III, U. Bozkaya, R. A. King,
    F. A. Evangelista, J. M. Turney, T. D. Crawford, C. D. Sherrill,
    J. Chem. Phys. 152(18) 184108 (2020). https://doi.org/10.1063/5.0006002

                            Additional Code Authors
    E. T. Seidl, C. L. Janssen, E. F. Valeev, M. L. Leininger,
    J. F. Gonthier, R. M. Richard, H. R. McAlexander, M. Saitow, X. Wang,
    P. Verma, M. H. Lechner, A. Jiang, S. Behnle, A. G. Heide,
    M. F. Herbst, and D. L. Poole

             Previous Authors, Complete List of Code Contributors,
                       and Citations for Specific Modules
    https://github.com/psi4/psi4/blob/master/codemeta.json
    https://github.com/psi4/psi4/graphs/contributors
    http://psicode.org/psi4manual/master/introduction.html#citing-psifour

    -----------------------------------------------------------------------


    Psi4 started on: Sunday, 10 August 2025 05:37PM

    Process ID: 49166
    Host:       Mac.lan
    PSIDATADIR: /Users/joseantoniorodriguesromero/anaconda3/share/psi4
    Memory:     500.0 MiB
    Threads:    1
    
  ==> Input File <==

--------------------------------------------------------------------------
molecule { 
-1 1
O           0.000000           0.000000           0.000000
H           0.000000           0.000000           0.613354
}

set { 
basis              cc-pvtz
reference          uks
maxiter            500
DAMPING_PERCENTAGE 1
E_CONVERGENCE      1.0E-8
D_CONVERGENCE      1.0E-8
DIIS_MAX_VECS      400
MBIS_MAXITER       8000
guess              read
}

E, wfn = energy('b3lyp', restart_file='last_wfn', return_wfn=True)
properties('b3lyp','MBIS_CHARGES', wfn=wfn)
wfn.to_file('last_wfn')
--------------------------------------------------------------------------

Scratch directory: /tmp/
 Found user provided orbital data. Setting orbital guess to READ 
 Copying restart file <last_wfn.npy> to </tmp/scan_HO_13.default.49166.180.npy> for internal processing
   => Libint2 <=

    Primary   basis highest AM E, G, H:  6, 6, 3
    Auxiliary basis highest AM E, G, H:  7, 7, 4
    Onebody   basis highest AM E, G, H:  -, -, -
    Solid Harmonics ordering:            Gaussian

*** tstart() called on Mac.lan
*** at Sun Aug 10 17:37:19 2025

   => Loading Basis Set <=

    Name: CC-PVTZ
    Role: ORBITAL
    Keyword: BASIS
    atoms 1 entry O          line   262 file /Users/joseantoniorodriguesromero/anaconda3/share/psi4/basis/cc-pvtz.gbs 
    atoms 2 entry H          line    23 file /Users/joseantoniorodriguesromero/anaconda3/share/psi4/basis/cc-pvtz.gbs 


         ---------------------------------------------------------
                                   SCF
               by Justin Turney, Rob Parrish, Andy Simmonett
                          and Daniel G. A. Smith
                              UKS Reference
                        1 Threads,    500 MiB Core
         ---------------------------------------------------------

  ==> Geometry <==

    Molecular point group: c2v
    Full point group: C_inf_v

    Geometry (in Angstrom), charge = -1, multiplicity = 1:

       Center              X                  Y                   Z               Mass       
    ------------   -----------------  -----------------  -----------------  -----------------
         O            0.000000000000     0.000000000000    -0.036356112455    15.994914619570
         H            0.000000000000     0.000000000000     0.576997887545     1.007825032230

  Running in c2v symmetry.

  Rotational constants: A = ************  B =     47.26351  C =     47.26351 [cm^-1]
  Rotational constants: A = ************  B = 1416924.25028  C = 1416924.25028 [MHz]
  Nuclear repulsion =    6.902078873472742

  Charge       = -1
  Multiplicity = 1
  Electrons    = 10
  Nalpha       = 5
  Nbeta        = 5

  ==> Algorithm <==

  SCF Algorithm Type is DF.
  DIIS enabled.
  MOM disabled.
  Fractional occupation disabled.
  Guess Type is READ.
  Energy threshold   = 1.00e-08
  Density threshold  = 1.00e-08
  Integral threshold = 1.00e-12

  ==> Primary Basis <==

  Basis Set: CC-PVTZ
    Blend: CC-PVTZ
    Number of shells: 16
    Number of basis functions: 44
    Number of Cartesian functions: 50
    Spherical Harmonics?: true
    Max angular momentum: 3

  ==> DFT Potential <==

   => LibXC <=

    Version 6.2.2
    S. Lehtola, C. Steigemann, M. J.T. Oliveira, and M. A.L. Marques.,  SoftwareX 7, 1–5 (2018) (10.1016/j.softx.2017.11.002)

   => Composite Functional: B3LYP <= 

    B3LYP Hyb-GGA Exchange-Correlation Functional

    P. J. Stephens, F. J. Devlin, C. F. Chabalowski, and M. J. Frisch.,  J. Phys. Chem. 98, 11623 (1994) (10.1021/j100096a001)

    Deriv               =              1
    GGA                 =           TRUE
    Meta                =          FALSE

    Exchange Hybrid     =           TRUE
    MP2 Hybrid          =          FALSE

   => Exchange Functionals <=

    0.0800   Slater exchange
    0.7200         Becke 88

   => Exact (HF) Exchange <=

    0.2000               HF 

   => Correlation Functionals <=

    0.1900   Vosko, Wilk & Nusair (VWN5_RPA)
    0.8100   Lee, Yang & Parr

   => LibXC Density Thresholds  <==

    XC_HYB_GGA_XC_B3LYP:  1.00E-15 

   => Molecular Quadrature <=

    Radial Scheme          =       TREUTLER
    Pruning Scheme         =           NONE
    Nuclear Scheme         =       TREUTLER

    Blocking Scheme        =         OCTREE
    BS radius alpha        =              1
    Pruning alpha          =              1
    Radial Points          =             75
    Spherical Points       =            302
    Total Points           =          44074
    Total Blocks           =            387
    Max Points             =            254
    Max Functions          =             44
    Weights Tolerance      =       1.00E-15

   => Loading Basis Set <=

    Name: (CC-PVTZ AUX)
    Role: JKFIT
    Keyword: DF_BASIS_SCF
    atoms 1 entry O          line   229 file /Users/joseantoniorodriguesromero/anaconda3/share/psi4/basis/cc-pvtz-jkfit.gbs 
    atoms 2 entry H          line    51 file /Users/joseantoniorodriguesromero/anaconda3/share/psi4/basis/cc-pvtz-jkfit.gbs 

   => Loading Basis Set <=

    Name: CC-PVTZ
    Role: ORBITAL
    Keyword: BASIS
    atoms 1 entry O          line   262 file /Users/joseantoniorodriguesromero/anaconda3/share/psi4/basis/cc-pvtz.gbs 
    atoms 2 entry H          line    23 file /Users/joseantoniorodriguesromero/anaconda3/share/psi4/basis/cc-pvtz.gbs 

  Reading orbitals from file /tmp/scan_HO_13.default.49166.180.npy, no projection.

  ==> Integral Setup <==

  DFHelper Memory: AOs need 0.002 GiB; user supplied 0.311 GiB. 
  Using in-core AOs.

  ==> MemDFJK: Density-Fitted J/K Matrices <==

    J tasked:                   Yes
    K tasked:                   Yes
    wK tasked:                   No
    OpenMP threads:               1
    Memory [MiB]:               318
    Algorithm:                 Core
    Schwarz Cutoff:           1E-12
    Mask sparsity (%):       0.0000
    Fitting Condition:        1E-10

   => Auxiliary Basis Set <=

  Basis Set: (CC-PVTZ AUX)
    Blend: CC-PVTZ-JKFIT
    Number of shells: 35
    Number of basis functions: 109
    Number of Cartesian functions: 131
    Spherical Harmonics?: true
    Max angular momentum: 4

  Cached 100.0% of DFT collocation blocks in 0.055 [GiB].

  Minimum eigenvalue in the overlap matrix is 1.3526445361E-03.
  Reciprocal condition number of the overlap matrix is 3.1763177874E-04.
    Using symmetric orthogonalization.

  ==> Pre-Iterations <==

  SCF Guess: Orbitals guess was supplied from a previous computation.

   -------------------------------------------------------
    Irrep   Nso     Nmo     Nalpha   Nbeta   Ndocc  Nsocc
   -------------------------------------------------------
     A1        20      20       3       3       3       0
     A2         4       4       0       0       0       0
     B1        10      10       1       1       1       0
     B2        10      10       1       1       1       0
   -------------------------------------------------------
    Total      44      44       5       5       5       0
   -------------------------------------------------------

  ==> Iterations <==

                           Total Energy        Delta E     RMS |[F,P]|

   @DF-UKS iter   0:   -75.49447487852665   -7.54945e+01   5.31026e-03 
   @DF-UKS iter   1:   -75.49618871847751   -1.71384e-03   2.38004e-04 ADIIS/DIIS
   @DF-UKS iter   2:   -75.49619494419987   -6.22572e-06   1.23916e-04 ADIIS/DIIS/DAMP=1%
   @DF-UKS iter   3:   -75.49610753364620    8.74106e-05   6.16329e-05 DIIS/DAMP=1%
   @DF-UKS iter   4:   -75.49623663628020   -1.29103e-04   7.96403e-06 DIIS/DAMP=1%
   @DF-UKS iter   5:   -75.49619442401219    4.22123e-05   4.77910e-07 DIIS/DAMP=1%
   @DF-UKS iter   6:   -75.49619747788056   -3.05387e-06   4.90913e-08 DIIS/DAMP=1%
   @DF-UKS iter   7:   -75.49619751408558   -3.62050e-08   3.50603e-09 DIIS/DAMP=1%
   @DF-UKS iter   8:   -75.49619753923020   -2.51446e-08   1.89394e-10 DIIS/DAMP=1%
   @DF-UKS iter   9:   -75.49619754089264   -1.66244e-09   1.46042e-11 DIIS/DAMP=1%
  Energy and wave function converged.


  ==> Post-Iterations <==

   Electrons on quadrature grid:
      Nalpha   =    5.0000000079 ; deviation = 7.923e-09
      Nbeta    =    5.0000000079 ; deviation = 7.923e-09
      Ntotal   =   10.0000000158 ; deviation = 1.585e-08 

   @Spin Contamination Metric:  -1.421085472E-14
   @S^2 Expected:                0.000000000E+00
   @S^2 Observed:               -1.421085472E-14
   @S   Expected:                0.000000000E+00
   @S   Observed:                0.000000000E+00

    Orbital Energies [Eh]
    ---------------------

    Alpha Occupied:                                                       

       1A1   -18.609881     2A1    -0.649445     3A1    -0.037758  
       1B1     0.117754     1B2     0.117754  

    Alpha Virtual:                                                        

       4A1     0.334519     5A1     0.804624     2B1     0.910983  
       2B2     0.910983     6A1     1.008927     3B1     1.162435  
       3B2     1.162435     7A1     1.175116     1A2     1.893180  
       8A1     1.893180     9A1     2.140785     4B1     2.276409  
       4B2     2.276409    10A1     2.489512    11A1     3.275456  
       5B1     3.756029     5B2     3.756029    12A1     3.829174  
       2A2     3.829174     6B2     4.147893     6B1     4.147893  
      13A1     4.390828     7B1     5.041320     7B2     5.041320  
      14A1     5.141440     8B1     5.590303     8B2     5.590303  
      15A1     6.435100     3A2     6.435100    16A1     6.487788  
       9B2     6.616578     9B1     6.616578     4A2     6.679030  
      17A1     6.679030    18A1     8.311708    19A1     8.575906  
      10B1     8.921473    10B2     8.921473    20A1    15.674560  

    Beta Occupied:                                                        

       1A1   -18.609881     2A1    -0.649445     3A1    -0.037758  
       1B1     0.117754     1B2     0.117754  

    Beta Virtual:                                                         

       4A1     0.334519     5A1     0.804624     2B1     0.910983  
       2B2     0.910983     6A1     1.008927     3B1     1.162435  
       3B2     1.162435     7A1     1.175116     1A2     1.893180  
       8A1     1.893180     9A1     2.140785     4B1     2.276409  
       4B2     2.276409    10A1     2.489512    11A1     3.275456  
       5B1     3.756029     5B2     3.756029    12A1     3.829174  
       2A2     3.829174     6B2     4.147893     6B1     4.147893  
      13A1     4.390828     7B1     5.041320     7B2     5.041320  
      14A1     5.141440     8B1     5.590303     8B2     5.590303  
      15A1     6.435100     3A2     6.435100    16A1     6.487788  
       9B2     6.616578     9B1     6.616578     4A2     6.679030  
      17A1     6.679030    18A1     8.311708    19A1     8.575906  
      10B1     8.921473    10B2     8.921473    20A1    15.674560  

    Final Occupation by Irrep:
             A1    A2    B1    B2 
    DOCC [     3,    0,    1,    1 ]
    SOCC [     0,    0,    0,    0 ]
    NA   [     3,    0,    1,    1 ]
    NB   [     3,    0,    1,    1 ]

  @DF-UKS Final Energy:   -75.49619754089264

   => Energetics <=

    Nuclear Repulsion Energy =              6.9020788734727416
    One-Electron Energy =                -121.1670106980297987
    Two-Electron Energy =                  46.4416044984206806
    DFT Exchange-Correlation Energy =      -7.6728702147562702
    Empirical Dispersion Energy =           0.0000000000000000
    VV10 Nonlocal Energy =                  0.0000000000000000
    Total Energy =                        -75.4961975408926378

  UHF NO Occupations:
  HONO-2 :    2 A1 2.0000000
  HONO-1 :    3 A1 2.0000000
  HONO-0 :    1 B1 2.0000000
  LUNO+0 :    4 A1 0.0000000
  LUNO+1 :    5 A1 0.0000000
  LUNO+2 :    6 A1 0.0000000
  LUNO+3 :    2 B1 0.0000000


Computation Completed


Properties will be evaluated at   0.000000,   0.000000,   0.000000 [a0]

Properties computed using the SCF density matrix


 Multipole Moments:

 ------------------------------------------------------------------------------------
     Multipole            Electronic (a.u.)      Nuclear  (a.u.)        Total (a.u.)
 ------------------------------------------------------------------------------------

 L = 1.  Multiply by 2.5417464519 to convert [e a0] to [Debye]
 Dipole X            :          0.0000000            0.0000000            0.0000000
 Dipole Y            :          0.0000000            0.0000000            0.0000000
 Dipole Z            :          0.0894911            0.5407432            0.6302343
 Magnitude           :                                                    0.6302343

 ------------------------------------------------------------------------------------

*** tstop() called on Mac.lan at Sun Aug 10 17:37:20 2025
Module time:
	user time   =       8.72 seconds =       0.15 minutes
	system time =       1.92 seconds =       0.03 minutes
	total time  =          1 seconds =       0.02 minutes
Total time:
	user time   =       8.72 seconds =       0.15 minutes
	system time =       1.92 seconds =       0.03 minutes
	total time  =          1 seconds =       0.02 minutes

*** tstart() called on Mac.lan
*** at Sun Aug 10 17:37:20 2025

   => Libint2 <=

    Primary   basis highest AM E, G, H:  6, 6, 3
    Auxiliary basis highest AM E, G, H:  7, 7, 4
    Onebody   basis highest AM E, G, H:  -, -, -
    Solid Harmonics ordering:            Gaussian
   => Loading Basis Set <=

    Name: CC-PVTZ
    Role: ORBITAL
    Keyword: BASIS
    atoms 1 entry O          line   262 file /Users/joseantoniorodriguesromero/anaconda3/share/psi4/basis/cc-pvtz.gbs 
    atoms 2 entry H          line    23 file /Users/joseantoniorodriguesromero/anaconda3/share/psi4/basis/cc-pvtz.gbs 


         ---------------------------------------------------------
                                   SCF
               by Justin Turney, Rob Parrish, Andy Simmonett
                          and Daniel G. A. Smith
                              UKS Reference
                        1 Threads,    500 MiB Core
         ---------------------------------------------------------

  ==> Geometry <==

    Molecular point group: c2v
    Full point group: C_inf_v

    Geometry (in Angstrom), charge = -1, multiplicity = 1:

       Center              X                  Y                   Z               Mass       
    ------------   -----------------  -----------------  -----------------  -----------------
         O            0.000000000000     0.000000000000    -0.036356112455    15.994914619570
         H            0.000000000000     0.000000000000     0.576997887545     1.007825032230

  Running in c2v symmetry.

  Rotational constants: A = ************  B =     47.26351  C =     47.26351 [cm^-1]
  Rotational constants: A = ************  B = 1416924.25028  C = 1416924.25028 [MHz]
  Nuclear repulsion =    6.902078873472742

  Charge       = -1
  Multiplicity = 1
  Electrons    = 10
  Nalpha       = 5
  Nbeta        = 5

  ==> Algorithm <==

  SCF Algorithm Type is DF.
  DIIS enabled.
  MOM disabled.
  Fractional occupation disabled.
  Guess Type is READ.
  Energy threshold   = 1.00e-08
  Density threshold  = 1.00e-08
  Integral threshold = 1.00e-12

  ==> Primary Basis <==

  Basis Set: CC-PVTZ
    Blend: CC-PVTZ
    Number of shells: 16
    Number of basis functions: 44
    Number of Cartesian functions: 50
    Spherical Harmonics?: true
    Max angular momentum: 3

  ==> DFT Potential <==

   => LibXC <=

    Version 6.2.2
    S. Lehtola, C. Steigemann, M. J.T. Oliveira, and M. A.L. Marques.,  SoftwareX 7, 1–5 (2018) (10.1016/j.softx.2017.11.002)

   => Composite Functional: B3LYP <= 

    B3LYP Hyb-GGA Exchange-Correlation Functional

    P. J. Stephens, F. J. Devlin, C. F. Chabalowski, and M. J. Frisch.,  J. Phys. Chem. 98, 11623 (1994) (10.1021/j100096a001)

    Deriv               =              1
    GGA                 =           TRUE
    Meta                =          FALSE

    Exchange Hybrid     =           TRUE
    MP2 Hybrid          =          FALSE

   => Exchange Functionals <=

    0.0800   Slater exchange
    0.7200         Becke 88

   => Exact (HF) Exchange <=

    0.2000               HF 

   => Correlation Functionals <=

    0.1900   Vosko, Wilk & Nusair (VWN5_RPA)
    0.8100   Lee, Yang & Parr

   => LibXC Density Thresholds  <==

    XC_HYB_GGA_XC_B3LYP:  1.00E-15 

   => Molecular Quadrature <=

    Radial Scheme          =       TREUTLER
    Pruning Scheme         =           NONE
    Nuclear Scheme         =       TREUTLER

    Blocking Scheme        =         OCTREE
    BS radius alpha        =              1
    Pruning alpha          =              1
    Radial Points          =             75
    Spherical Points       =            302
    Total Points           =          44074
    Total Blocks           =            387
    Max Points             =            254
    Max Functions          =             44
    Weights Tolerance      =       1.00E-15

   => Loading Basis Set <=

    Name: (CC-PVTZ AUX)
    Role: JKFIT
    Keyword: DF_BASIS_SCF
    atoms 1 entry O          line   229 file /Users/joseantoniorodriguesromero/anaconda3/share/psi4/basis/cc-pvtz-jkfit.gbs 
    atoms 2 entry H          line    51 file /Users/joseantoniorodriguesromero/anaconda3/share/psi4/basis/cc-pvtz-jkfit.gbs 

   => Loading Basis Set <=

    Name: CC-PVTZ
    Role: ORBITAL
    Keyword: BASIS
    atoms 1 entry O          line   262 file /Users/joseantoniorodriguesromero/anaconda3/share/psi4/basis/cc-pvtz.gbs 
    atoms 2 entry H          line    23 file /Users/joseantoniorodriguesromero/anaconda3/share/psi4/basis/cc-pvtz.gbs 

  Reading orbitals from file /tmp/scan_HO_13.default.49166.180.npy, no projection.

  ==> Integral Setup <==

  DFHelper Memory: AOs need 0.002 GiB; user supplied 0.311 GiB. 
  Using in-core AOs.

  ==> MemDFJK: Density-Fitted J/K Matrices <==

    J tasked:                   Yes
    K tasked:                   Yes
    wK tasked:                   No
    OpenMP threads:               1
    Memory [MiB]:               318
    Algorithm:                 Core
    Schwarz Cutoff:           1E-12
    Mask sparsity (%):       0.0000
    Fitting Condition:        1E-10

   => Auxiliary Basis Set <=

  Basis Set: (CC-PVTZ AUX)
    Blend: CC-PVTZ-JKFIT
    Number of shells: 35
    Number of basis functions: 109
    Number of Cartesian functions: 131
    Spherical Harmonics?: true
    Max angular momentum: 4

  Cached 100.0% of DFT collocation blocks in 0.055 [GiB].

  Minimum eigenvalue in the overlap matrix is 1.3526445361E-03.
  Reciprocal condition number of the overlap matrix is 3.1763177874E-04.
    Using symmetric orthogonalization.

  ==> Pre-Iterations <==

  SCF Guess: Orbitals guess was supplied from a previous computation.

   -------------------------------------------------------
    Irrep   Nso     Nmo     Nalpha   Nbeta   Ndocc  Nsocc
   -------------------------------------------------------
     A1        20      20       3       3       3       0
     A2         4       4       0       0       0       0
     B1        10      10       1       1       1       0
     B2        10      10       1       1       1       0
   -------------------------------------------------------
    Total      44      44       5       5       5       0
   -------------------------------------------------------

  ==> Iterations <==

                           Total Energy        Delta E     RMS |[F,P]|

   @DF-UKS iter   0:   -75.49619754091093   -7.54962e+01   8.47130e-13 
   @DF-UKS iter   1:   -75.49619754091097   -4.26326e-14   4.21437e-13 DIIS
  Energy and wave function converged.


  ==> Post-Iterations <==

   Electrons on quadrature grid:
      Nalpha   =    5.0000000079 ; deviation = 7.923e-09
      Nbeta    =    5.0000000079 ; deviation = 7.923e-09
      Ntotal   =   10.0000000158 ; deviation = 1.585e-08 

   @Spin Contamination Metric:  -1.953992523E-14
   @S^2 Expected:                0.000000000E+00
   @S^2 Observed:               -1.953992523E-14
   @S   Expected:                0.000000000E+00
   @S   Observed:                0.000000000E+00

    Orbital Energies [Eh]
    ---------------------

    Alpha Occupied:                                                       

       1A1   -18.609881     2A1    -0.649445     3A1    -0.037758  
       1B1     0.117754     1B2     0.117754  

    Alpha Virtual:                                                        

       4A1     0.334519     5A1     0.804624     2B1     0.910983  
       2B2     0.910983     6A1     1.008927     3B1     1.162435  
       3B2     1.162435     7A1     1.175116     1A2     1.893180  
       8A1     1.893180     9A1     2.140785     4B1     2.276409  
       4B2     2.276409    10A1     2.489512    11A1     3.275456  
       5B1     3.756029     5B2     3.756029    12A1     3.829174  
       2A2     3.829174     6B2     4.147893     6B1     4.147893  
      13A1     4.390828     7B1     5.041320     7B2     5.041320  
      14A1     5.141440     8B1     5.590303     8B2     5.590303  
      15A1     6.435100     3A2     6.435100    16A1     6.487788  
       9B2     6.616578     9B1     6.616578     4A2     6.679030  
      17A1     6.679030    18A1     8.311708    19A1     8.575906  
      10B1     8.921473    10B2     8.921473    20A1    15.674560  

    Beta Occupied:                                                        

       1A1   -18.609881     2A1    -0.649445     3A1    -0.037758  
       1B1     0.117754     1B2     0.117754  

    Beta Virtual:                                                         

       4A1     0.334519     5A1     0.804624     2B1     0.910983  
       2B2     0.910983     6A1     1.008927     3B1     1.162435  
       3B2     1.162435     7A1     1.175116     1A2     1.893180  
       8A1     1.893180     9A1     2.140785     4B1     2.276409  
       4B2     2.276409    10A1     2.489512    11A1     3.275456  
       5B1     3.756029     5B2     3.756029    12A1     3.829174  
       2A2     3.829174     6B2     4.147893     6B1     4.147893  
      13A1     4.390828     7B1     5.041320     7B2     5.041320  
      14A1     5.141440     8B1     5.590303     8B2     5.590303  
      15A1     6.435100     3A2     6.435100    16A1     6.487788  
       9B2     6.616578     9B1     6.616578     4A2     6.679030  
      17A1     6.679030    18A1     8.311708    19A1     8.575906  
      10B1     8.921473    10B2     8.921473    20A1    15.674560  

    Final Occupation by Irrep:
             A1    A2    B1    B2 
    DOCC [     3,    0,    1,    1 ]
    SOCC [     0,    0,    0,    0 ]
    NA   [     3,    0,    1,    1 ]
    NB   [     3,    0,    1,    1 ]

  @DF-UKS Final Energy:   -75.49619754091097

   => Energetics <=

    Nuclear Repulsion Energy =              6.9020788734727416
    One-Electron Energy =                -121.1670106995038054
    Two-Electron Energy =                  46.4416045000470064
    DFT Exchange-Correlation Energy =      -7.6728702149269230
    Empirical Dispersion Energy =           0.0000000000000000
    VV10 Nonlocal Energy =                  0.0000000000000000
    Total Energy =                        -75.4961975409109698

  UHF NO Occupations:
  HONO-2 :    2 A1 2.0000000
  HONO-1 :    1 B1 2.0000000
  HONO-0 :    3 A1 2.0000000
  LUNO+0 :    4 A1 0.0000000
  LUNO+1 :    5 A1 0.0000000
  LUNO+2 :    6 A1 0.0000000
  LUNO+3 :    7 A1 0.0000000


Computation Completed


Properties will be evaluated at   0.000000,   0.000000,   0.000000 [a0]

Properties computed using the B3LYP density matrix


 Multipole Moments:

 ------------------------------------------------------------------------------------
     Multipole            Electronic (a.u.)      Nuclear  (a.u.)        Total (a.u.)
 ------------------------------------------------------------------------------------

 L = 1.  Multiply by 2.5417464519 to convert [e a0] to [Debye]
 Dipole X            :          0.0000000            0.0000000            0.0000000
 Dipole Y            :          0.0000000            0.0000000            0.0000000
 Dipole Z            :          0.0894911            0.5407432            0.6302343
 Magnitude           :                                                    0.6302343

 L = 2.  Multiply by 1.3450342976 to convert [e a0^2] to [Debye ang]
 Quadrupole XX       :         -5.9914213            0.0000000           -5.9914213
 Quadrupole XY       :          0.0000000            0.0000000            0.0000000
 Quadrupole XZ       :          0.0000000            0.0000000            0.0000000
 Quadrupole YY       :         -5.9914213            0.0000000           -5.9914213
 Quadrupole YZ       :          0.0000000            0.0000000            0.0000000
 Quadrupole ZZ       :         -6.1651173            1.2266633           -4.9384541
 Traceless XX        :          0.0578987           -0.4088878           -0.3509891
 Traceless YY        :          0.0578987           -0.4088878           -0.3509891
 Traceless ZZ        :         -0.1157974            0.8177755            0.7019781

 ------------------------------------------------------------------------------------
  ==> Computing MBIS Charges <==

  Electron Count from Grid (Expected Number): 10.00000 (10.00000)
  Difference:  0.00000

  MBIS Charges: (a.u.)
   Center  Symbol  Z      Pop.       Charge
      1       O    8    9.509936   -1.509936
      2       H    1    0.490064    0.509936

  MBIS Dipoles: [e a0]
   Center  Symbol  Z        X           Y           Z
      1       O    8   -0.000000   -0.000000   -0.043440
      2       H    1    0.000000    0.000000    0.013919

  MBIS Quadrupoles: [e a0^2]
   Center  Symbol  Z      XX        XY        XZ        YY        YZ        ZZ
      1       O    8   -5.8801    0.0000    0.0000   -5.8801   -0.0000   -5.4651
      2       H    1   -0.1113    0.0000   -0.0000   -0.1113   -0.0000   -0.1088

  MBIS Octupoles: [e a0^3]
   Center  Symbol  Z      XXX       XXY       XXZ       XYY       XYZ       XZZ       YYY       YYZ       YZZ       ZZZ
      1       O    8   -0.0000   -0.0000    0.1371   -0.0000    0.0000    0.0000   -0.0000    0.1371   -0.0000    0.0768
      2       H    1    0.0000    0.0000    0.0027   -0.0000    0.0000    0.0000   -0.0000    0.0027    0.0000    0.0057

  MBIS Radial Moments:
   Center  Symbol  Z      [a0^2]      [a0^3]      [a0^4]      
      1       O    8   17.225275   36.074527   88.884555
      2       H    1    0.331481    0.390887    0.554975

  MBIS Valence Widths: [a0]
   Center  Symbol  Z     Width
      1       O    8    0.429039
      2       H    1    0.238861

*** tstop() called on Mac.lan at Sun Aug 10 17:37:21 2025
Module time:
	user time   =       2.93 seconds =       0.05 minutes
	system time =       3.37 seconds =       0.06 minutes
	total time  =          1 seconds =       0.02 minutes
Total time:
	user time   =      11.74 seconds =       0.20 minutes
	system time =       5.40 seconds =       0.09 minutes
	total time  =          2 seconds =       0.03 minutes

    Psi4 stopped on: Sunday, 10 August 2025 05:37PM
    Psi4 wall time for execution: 0:00:01.67

*** Psi4 exiting successfully. Buy a developer a beer!
