
    -----------------------------------------------------------------------
          Psi4: An Open-Source Ab Initio Electronic Structure Package
                               Psi4 1.9.1 release

                         Git: Rev {} zzzzzzz 


    D. G. A. Smith, L. A. Burns, A. C. Simmonett, R. M. Parrish,
    M. C. Schieber, R. Galvelis, P. Kraus, H. Kruse, R. Di Remigio,
    A. Alenaizan, A. M. James, S. Lehtola, J. P. Misiewicz, M. Scheurer,
    R. A. Shaw, J. B. Schriber, Y. Xie, Z. L. Glick, D. A. Sirianni,
    J. S. O'Brien, J. M. Waldrop, A. Kumar, E. G. Hohenstein,
    B. P. Pritchard, B. R. Brooks, H. F. Schaefer III, A. Yu. Sokolov,
    K. Patkowski, A. E. DePrince III, U. Bozkaya, R. A. King,
    F. A. Evangelista, J. M. Turney, T. D. Crawford, C. D. Sherrill,
    J. Chem. Phys. 152(18) 184108 (2020). https://doi.org/10.1063/5.0006002

                            Additional Code Authors
    E. T. Seidl, C. L. Janssen, E. F. Valeev, M. L. Leininger,
    J. F. Gonthier, R. M. Richard, H. R. McAlexander, M. Saitow, X. Wang,
    P. Verma, M. H. Lechner, A. Jiang, S. Behnle, A. G. Heide,
    M. F. Herbst, and D. L. Poole

             Previous Authors, Complete List of Code Contributors,
                       and Citations for Specific Modules
    https://github.com/psi4/psi4/blob/master/codemeta.json
    https://github.com/psi4/psi4/graphs/contributors
    http://psicode.org/psi4manual/master/introduction.html#citing-psifour

    -----------------------------------------------------------------------


    Psi4 started on: Sunday, 10 August 2025 05:46PM

    Process ID: 49445
    Host:       Mac.lan
    PSIDATADIR: /Users/joseantoniorodriguesromero/anaconda3/share/psi4
    Memory:     500.0 MiB
    Threads:    1
    
  ==> Input File <==

--------------------------------------------------------------------------
molecule { 
-1 3
O           0.000000           0.000000           0.000000
N           0.000000           0.000000           0.652623
}

set { 
basis              cc-pvtz
reference          uks
maxiter            500
DAMPING_PERCENTAGE 1
E_CONVERGENCE      1.0E-8
D_CONVERGENCE      1.0E-8
DIIS_MAX_VECS      400
MBIS_MAXITER       8000
guess              read
}

E, wfn = energy('b3lyp', restart_file='last_wfn', return_wfn=True)
properties('b3lyp','MBIS_CHARGES', wfn=wfn)
wfn.to_file('last_wfn')
--------------------------------------------------------------------------

Scratch directory: /tmp/
 Found user provided orbital data. Setting orbital guess to READ 
 Copying restart file <last_wfn.npy> to </tmp/scan_NO_8.default.49445.180.npy> for internal processing
   => Libint2 <=

    Primary   basis highest AM E, G, H:  6, 6, 3
    Auxiliary basis highest AM E, G, H:  7, 7, 4
    Onebody   basis highest AM E, G, H:  -, -, -
    Solid Harmonics ordering:            Gaussian

*** tstart() called on Mac.lan
*** at Sun Aug 10 17:46:13 2025

   => Loading Basis Set <=

    Name: CC-PVTZ
    Role: ORBITAL
    Keyword: BASIS
    atoms 1 entry O          line   262 file /Users/joseantoniorodriguesromero/anaconda3/share/psi4/basis/cc-pvtz.gbs 
    atoms 2 entry N          line   224 file /Users/joseantoniorodriguesromero/anaconda3/share/psi4/basis/cc-pvtz.gbs 


         ---------------------------------------------------------
                                   SCF
               by Justin Turney, Rob Parrish, Andy Simmonett
                          and Daniel G. A. Smith
                              UKS Reference
                        1 Threads,    500 MiB Core
         ---------------------------------------------------------

  ==> Geometry <==

    Molecular point group: c2v
    Full point group: C_inf_v

    Geometry (in Angstrom), charge = -1, multiplicity = 3:

       Center              X                  Y                   Z               Mass       
    ------------   -----------------  -----------------  -----------------  -----------------
         O            0.000000000000     0.000000000000    -0.304644697368    15.994914619570
         N            0.000000000000     0.000000000000     0.347978302632    14.003074004430

  Running in c2v symmetry.

  Rotational constants: A = ************  B =      5.30101  C =      5.30101 [cm^-1]
  Rotational constants: A = ************  B = 158920.26283  C = 158920.26283 [MHz]
  Nuclear repulsion =   45.407415609808432

  Charge       = -1
  Multiplicity = 3
  Electrons    = 16
  Nalpha       = 9
  Nbeta        = 7

  ==> Algorithm <==

  SCF Algorithm Type is DF.
  DIIS enabled.
  MOM disabled.
  Fractional occupation disabled.
  Guess Type is READ.
  Energy threshold   = 1.00e-08
  Density threshold  = 1.00e-08
  Integral threshold = 1.00e-12

  ==> Primary Basis <==

  Basis Set: CC-PVTZ
    Blend: CC-PVTZ
    Number of shells: 20
    Number of basis functions: 60
    Number of Cartesian functions: 70
    Spherical Harmonics?: true
    Max angular momentum: 3

  ==> DFT Potential <==

   => LibXC <=

    Version 6.2.2
    S. Lehtola, C. Steigemann, M. J.T. Oliveira, and M. A.L. Marques.,  SoftwareX 7, 1–5 (2018) (10.1016/j.softx.2017.11.002)

   => Composite Functional: B3LYP <= 

    B3LYP Hyb-GGA Exchange-Correlation Functional

    P. J. Stephens, F. J. Devlin, C. F. Chabalowski, and M. J. Frisch.,  J. Phys. Chem. 98, 11623 (1994) (10.1021/j100096a001)

    Deriv               =              1
    GGA                 =           TRUE
    Meta                =          FALSE

    Exchange Hybrid     =           TRUE
    MP2 Hybrid          =          FALSE

   => Exchange Functionals <=

    0.0800   Slater exchange
    0.7200         Becke 88

   => Exact (HF) Exchange <=

    0.2000               HF 

   => Correlation Functionals <=

    0.1900   Vosko, Wilk & Nusair (VWN5_RPA)
    0.8100   Lee, Yang & Parr

   => LibXC Density Thresholds  <==

    XC_HYB_GGA_XC_B3LYP:  1.00E-15 

   => Molecular Quadrature <=

    Radial Scheme          =       TREUTLER
    Pruning Scheme         =           NONE
    Nuclear Scheme         =       TREUTLER

    Blocking Scheme        =         OCTREE
    BS radius alpha        =              1
    Pruning alpha          =              1
    Radial Points          =             75
    Spherical Points       =            302
    Total Points           =          42582
    Total Blocks           =            382
    Max Points             =            254
    Max Functions          =             60
    Weights Tolerance      =       1.00E-15

   => Loading Basis Set <=

    Name: (CC-PVTZ AUX)
    Role: JKFIT
    Keyword: DF_BASIS_SCF
    atoms 1 entry O          line   229 file /Users/joseantoniorodriguesromero/anaconda3/share/psi4/basis/cc-pvtz-jkfit.gbs 
    atoms 2 entry N          line   177 file /Users/joseantoniorodriguesromero/anaconda3/share/psi4/basis/cc-pvtz-jkfit.gbs 

   => Loading Basis Set <=

    Name: CC-PVTZ
    Role: ORBITAL
    Keyword: BASIS
    atoms 1 entry O          line   262 file /Users/joseantoniorodriguesromero/anaconda3/share/psi4/basis/cc-pvtz.gbs 
    atoms 2 entry N          line   224 file /Users/joseantoniorodriguesromero/anaconda3/share/psi4/basis/cc-pvtz.gbs 

  Reading orbitals from file /tmp/scan_NO_8.default.49445.180.npy, no projection.

  ==> Integral Setup <==

  DFHelper Memory: AOs need 0.005 GiB; user supplied 0.295 GiB. 
  Using in-core AOs.

  ==> MemDFJK: Density-Fitted J/K Matrices <==

    J tasked:                   Yes
    K tasked:                   Yes
    wK tasked:                   No
    OpenMP threads:               1
    Memory [MiB]:               302
    Algorithm:                 Core
    Schwarz Cutoff:           1E-12
    Mask sparsity (%):       0.0000
    Fitting Condition:        1E-10

   => Auxiliary Basis Set <=

  Basis Set: (CC-PVTZ AUX)
    Blend: CC-PVTZ-JKFIT
    Number of shells: 50
    Number of basis functions: 158
    Number of Cartesian functions: 192
    Spherical Harmonics?: true
    Max angular momentum: 4

  Cached 100.0% of DFT collocation blocks in 0.071 [GiB].

  Minimum eigenvalue in the overlap matrix is 1.2338048225E-03.
  Reciprocal condition number of the overlap matrix is 2.8502655738E-04.
    Using symmetric orthogonalization.

  ==> Pre-Iterations <==

  SCF Guess: Orbitals guess was supplied from a previous computation.

   -------------------------------------------------------
    Irrep   Nso     Nmo     Nalpha   Nbeta   Ndocc  Nsocc
   -------------------------------------------------------
     A1        26      26       5       5       5       0
     A2         6       6       0       0       0       0
     B1        14      14       2       1       1       1
     B2        14      14       2       1       1       1
   -------------------------------------------------------
    Total      60      60       9       7       7       2
   -------------------------------------------------------

  ==> Iterations <==

                           Total Energy        Delta E     RMS |[F,P]|

   @DF-UKS iter   0:  -127.73799396356601   -1.27738e+02   1.34931e-02 
   @DF-UKS iter   1:  -127.68542880216596    5.25652e-02   3.54315e-03 ADIIS/DIIS
   @DF-UKS iter   2:  -127.68452048321370    9.08319e-04   3.90343e-03 ADIIS/DIIS/DAMP=1%
   @DF-UKS iter   3:  -127.68548840412228   -9.67921e-04   1.35653e-04 ADIIS/DIIS/DAMP=1%
   @DF-UKS iter   4:  -127.69028018484804   -4.79178e-03   1.06078e-04 ADIIS/DIIS/DAMP=1%
   @DF-UKS iter   5:  -127.69008192863964    1.98256e-04   2.16647e-05 DIIS/DAMP=1%
   @DF-UKS iter   6:  -127.69011666531188   -3.47367e-05   2.30145e-06 DIIS/DAMP=1%
   @DF-UKS iter   7:  -127.69013266141998   -1.59961e-05   4.45671e-07 DIIS/DAMP=1%
   @DF-UKS iter   8:  -127.69013308685196   -4.25432e-07   6.19474e-08 DIIS/DAMP=1%
   @DF-UKS iter   9:  -127.69013306164805    2.52039e-08   2.30913e-08 DIIS/DAMP=1%
   @DF-UKS iter  10:  -127.69013300099842    6.06496e-08   2.89163e-09 DIIS/DAMP=1%
   @DF-UKS iter  11:  -127.69013303276007   -3.17617e-08   3.58298e-10 DIIS/DAMP=1%
   @DF-UKS iter  12:  -127.69013302849875    4.26132e-09   1.27988e-11 DIIS/DAMP=1%
  Energy and wave function converged.


  ==> Post-Iterations <==

   Electrons on quadrature grid:
      Nalpha   =    9.0000001364 ; deviation = 1.364e-07
      Nbeta    =    7.0000001284 ; deviation = 1.284e-07
      Ntotal   =   16.0000002648 ; deviation = 2.648e-07 

   @Spin Contamination Metric:   1.347122740E-03
   @S^2 Expected:                2.000000000E+00
   @S^2 Observed:                2.001347123E+00
   @S   Expected:                1.000000000E+00
   @S   Observed:                1.000000000E+00

    Orbital Energies [Eh]
    ---------------------

    Alpha Occupied:                                                       

       1A1   -18.943876     2A1   -14.102640     3A1    -1.249429  
       1B1    -0.558268     1B2    -0.558268     4A1    -0.354365  
       5A1    -0.151864     2B1     0.390846     2B2     0.390846  

    Alpha Virtual:                                                        

       6A1     0.478512     3B2     0.603502     3B1     0.603502  
       7A1     0.664981     8A1     0.810667     4B1     0.956521  
       4B2     0.956521     9A1     1.203506     1A2     1.203507  
      10A1     1.538665     5B2     1.757272     5B1     1.757272  
      11A1     1.778926    12A1     1.998940     2A2     1.998943  
       6B2     2.261384     6B1     2.261384    13A1     2.269676  
       7B1     2.975537     7B2     2.975537    14A1     3.522527  
      15A1     3.811411     8B1     4.013149     8B2     4.013149  
      16A1     4.328354     3A2     4.328355     9B2     4.421110  
       9B1     4.421110    17A1     4.442012     4A2     4.692691  
      18A1     4.692692    10B1     4.775285    10B2     4.775285  
      19A1     5.135402    11B2     5.645515    11B1     5.645515  
      12B2     5.688190    12B1     5.688190    20A1     6.326131  
       5A2     6.326135    21A1     6.634007    13B2     7.293244  
      13B1     7.293244    22A1     7.625407     6A2     7.625408  
      23A1     7.689407    14B1     9.411192    14B2     9.411192  
      24A1     9.712714    25A1    10.997420    26A1    28.086477  

    Beta Occupied:                                                        

       1A1   -18.930871     2A1   -14.098209     3A1    -1.236191  
       1B1    -0.522696     1B2    -0.522696     4A1    -0.322650  
       5A1    -0.103687  

    Beta Virtual:                                                         

       6A1     0.498452     2B1     0.518723     2B2     0.518723  
       3B2     0.623879     3B1     0.623879     7A1     0.686437  
       8A1     0.850423     4B1     1.007758     4B2     1.007758  
       1A2     1.239552     9A1     1.239553    10A1     1.553567  
       5B2     1.793622     5B1     1.793622    11A1     1.801757  
      12A1     2.048529     2A2     2.048529    13A1     2.286964  
       6B2     2.291367     6B1     2.291367     7B1     3.004629  
       7B2     3.004629    14A1     3.552038    15A1     3.823825  
       8B1     4.042521     8B2     4.042521     3A2     4.347197  
      16A1     4.347197     9B2     4.452908     9B1     4.452908  
      17A1     4.460593     4A2     4.734347    18A1     4.734348  
      10B1     4.801164    10B2     4.801164    19A1     5.152990  
      11B2     5.671742    11B1     5.671742    12B2     5.725033  
      12B1     5.725033    20A1     6.370324     5A2     6.370325  
      21A1     6.652643    13B2     7.314069    13B1     7.314069  
      22A1     7.658290     6A2     7.658290    23A1     7.697579  
      14B1     9.439878    14B2     9.439878    24A1     9.722936  
      25A1    11.020695    26A1    28.102277  

    Final Occupation by Irrep:
             A1    A2    B1    B2 
    DOCC [     5,    0,    1,    1 ]
    SOCC [     0,    0,    1,    1 ]
    NA   [     5,    0,    2,    2 ]
    NB   [     5,    0,    1,    1 ]

  @DF-UKS Final Energy:  -127.69013302849875

   => Energetics <=

    Nuclear Repulsion Energy =             45.4074156098084316
    One-Electron Energy =                -265.6859949872797415
    Two-Electron Energy =                 106.0347273496650189
    DFT Exchange-Correlation Energy =     -13.4462810006924460
    Empirical Dispersion Energy =           0.0000000000000000
    VV10 Nonlocal Energy =                  0.0000000000000000
    Total Energy =                       -127.6901330284987495

  UHF NO Occupations:
  HONO-2 :    5 A1 1.9995536
  HONO-1 :    2 B1 1.0000000
  HONO-0 :    2 B2 1.0000000
  LUNO+0 :    6 A1 0.0004464
  LUNO+1 :    3 B1 0.0000902
  LUNO+2 :    3 B2 0.0000902
  LUNO+3 :    7 A1 0.0000432


Computation Completed


Properties will be evaluated at   0.000000,   0.000000,   0.000000 [a0]

Properties computed using the SCF density matrix


 Multipole Moments:

 ------------------------------------------------------------------------------------
     Multipole            Electronic (a.u.)      Nuclear  (a.u.)        Total (a.u.)
 ------------------------------------------------------------------------------------

 L = 1.  Multiply by 2.5417464519 to convert [e a0] to [Debye]
 Dipole X            :          0.0000000            0.0000000            0.0000000
 Dipole Y            :          0.0000000            0.0000000            0.0000000
 Dipole Z            :         -1.6535936           -0.0024745           -1.6560681
 Magnitude           :                                                    1.6560681

 ------------------------------------------------------------------------------------

*** tstop() called on Mac.lan at Sun Aug 10 17:46:14 2025
Module time:
	user time   =      15.78 seconds =       0.26 minutes
	system time =       1.98 seconds =       0.03 minutes
	total time  =          1 seconds =       0.02 minutes
Total time:
	user time   =      15.78 seconds =       0.26 minutes
	system time =       1.98 seconds =       0.03 minutes
	total time  =          1 seconds =       0.02 minutes

*** tstart() called on Mac.lan
*** at Sun Aug 10 17:46:14 2025

   => Libint2 <=

    Primary   basis highest AM E, G, H:  6, 6, 3
    Auxiliary basis highest AM E, G, H:  7, 7, 4
    Onebody   basis highest AM E, G, H:  -, -, -
    Solid Harmonics ordering:            Gaussian
   => Loading Basis Set <=

    Name: CC-PVTZ
    Role: ORBITAL
    Keyword: BASIS
    atoms 1 entry O          line   262 file /Users/joseantoniorodriguesromero/anaconda3/share/psi4/basis/cc-pvtz.gbs 
    atoms 2 entry N          line   224 file /Users/joseantoniorodriguesromero/anaconda3/share/psi4/basis/cc-pvtz.gbs 


         ---------------------------------------------------------
                                   SCF
               by Justin Turney, Rob Parrish, Andy Simmonett
                          and Daniel G. A. Smith
                              UKS Reference
                        1 Threads,    500 MiB Core
         ---------------------------------------------------------

  ==> Geometry <==

    Molecular point group: c2v
    Full point group: C_inf_v

    Geometry (in Angstrom), charge = -1, multiplicity = 3:

       Center              X                  Y                   Z               Mass       
    ------------   -----------------  -----------------  -----------------  -----------------
         O            0.000000000000     0.000000000000    -0.304644697368    15.994914619570
         N            0.000000000000     0.000000000000     0.347978302632    14.003074004430

  Running in c2v symmetry.

  Rotational constants: A = ************  B =      5.30101  C =      5.30101 [cm^-1]
  Rotational constants: A = ************  B = 158920.26283  C = 158920.26283 [MHz]
  Nuclear repulsion =   45.407415609808432

  Charge       = -1
  Multiplicity = 3
  Electrons    = 16
  Nalpha       = 9
  Nbeta        = 7

  ==> Algorithm <==

  SCF Algorithm Type is DF.
  DIIS enabled.
  MOM disabled.
  Fractional occupation disabled.
  Guess Type is READ.
  Energy threshold   = 1.00e-08
  Density threshold  = 1.00e-08
  Integral threshold = 1.00e-12

  ==> Primary Basis <==

  Basis Set: CC-PVTZ
    Blend: CC-PVTZ
    Number of shells: 20
    Number of basis functions: 60
    Number of Cartesian functions: 70
    Spherical Harmonics?: true
    Max angular momentum: 3

  ==> DFT Potential <==

   => LibXC <=

    Version 6.2.2
    S. Lehtola, C. Steigemann, M. J.T. Oliveira, and M. A.L. Marques.,  SoftwareX 7, 1–5 (2018) (10.1016/j.softx.2017.11.002)

   => Composite Functional: B3LYP <= 

    B3LYP Hyb-GGA Exchange-Correlation Functional

    P. J. Stephens, F. J. Devlin, C. F. Chabalowski, and M. J. Frisch.,  J. Phys. Chem. 98, 11623 (1994) (10.1021/j100096a001)

    Deriv               =              1
    GGA                 =           TRUE
    Meta                =          FALSE

    Exchange Hybrid     =           TRUE
    MP2 Hybrid          =          FALSE

   => Exchange Functionals <=

    0.0800   Slater exchange
    0.7200         Becke 88

   => Exact (HF) Exchange <=

    0.2000               HF 

   => Correlation Functionals <=

    0.1900   Vosko, Wilk & Nusair (VWN5_RPA)
    0.8100   Lee, Yang & Parr

   => LibXC Density Thresholds  <==

    XC_HYB_GGA_XC_B3LYP:  1.00E-15 

   => Molecular Quadrature <=

    Radial Scheme          =       TREUTLER
    Pruning Scheme         =           NONE
    Nuclear Scheme         =       TREUTLER

    Blocking Scheme        =         OCTREE
    BS radius alpha        =              1
    Pruning alpha          =              1
    Radial Points          =             75
    Spherical Points       =            302
    Total Points           =          42582
    Total Blocks           =            382
    Max Points             =            254
    Max Functions          =             60
    Weights Tolerance      =       1.00E-15

   => Loading Basis Set <=

    Name: (CC-PVTZ AUX)
    Role: JKFIT
    Keyword: DF_BASIS_SCF
    atoms 1 entry O          line   229 file /Users/joseantoniorodriguesromero/anaconda3/share/psi4/basis/cc-pvtz-jkfit.gbs 
    atoms 2 entry N          line   177 file /Users/joseantoniorodriguesromero/anaconda3/share/psi4/basis/cc-pvtz-jkfit.gbs 

   => Loading Basis Set <=

    Name: CC-PVTZ
    Role: ORBITAL
    Keyword: BASIS
    atoms 1 entry O          line   262 file /Users/joseantoniorodriguesromero/anaconda3/share/psi4/basis/cc-pvtz.gbs 
    atoms 2 entry N          line   224 file /Users/joseantoniorodriguesromero/anaconda3/share/psi4/basis/cc-pvtz.gbs 

  Reading orbitals from file /tmp/scan_NO_8.default.49445.180.npy, no projection.

  ==> Integral Setup <==

  DFHelper Memory: AOs need 0.005 GiB; user supplied 0.295 GiB. 
  Using in-core AOs.

  ==> MemDFJK: Density-Fitted J/K Matrices <==

    J tasked:                   Yes
    K tasked:                   Yes
    wK tasked:                   No
    OpenMP threads:               1
    Memory [MiB]:               302
    Algorithm:                 Core
    Schwarz Cutoff:           1E-12
    Mask sparsity (%):       0.0000
    Fitting Condition:        1E-10

   => Auxiliary Basis Set <=

  Basis Set: (CC-PVTZ AUX)
    Blend: CC-PVTZ-JKFIT
    Number of shells: 50
    Number of basis functions: 158
    Number of Cartesian functions: 192
    Spherical Harmonics?: true
    Max angular momentum: 4

  Cached 100.0% of DFT collocation blocks in 0.071 [GiB].

  Minimum eigenvalue in the overlap matrix is 1.2338048225E-03.
  Reciprocal condition number of the overlap matrix is 2.8502655738E-04.
    Using symmetric orthogonalization.

  ==> Pre-Iterations <==

  SCF Guess: Orbitals guess was supplied from a previous computation.

   -------------------------------------------------------
    Irrep   Nso     Nmo     Nalpha   Nbeta   Ndocc  Nsocc
   -------------------------------------------------------
     A1        26      26       5       5       5       0
     A2         6       6       0       0       0       0
     B1        14      14       2       1       1       1
     B2        14      14       2       1       1       1
   -------------------------------------------------------
    Total      60      60       9       7       7       2
   -------------------------------------------------------

  ==> Iterations <==

                           Total Energy        Delta E     RMS |[F,P]|

   @DF-UKS iter   0:  -127.69013302890582   -1.27690e+02   4.13984e-12 
   @DF-UKS iter   1:  -127.69013302890592   -9.94760e-14   3.98457e-12 DIIS
  Energy and wave function converged.


  ==> Post-Iterations <==

   Electrons on quadrature grid:
      Nalpha   =    9.0000001364 ; deviation = 1.364e-07
      Nbeta    =    7.0000001284 ; deviation = 1.284e-07
      Ntotal   =   16.0000002648 ; deviation = 2.648e-07 

   @Spin Contamination Metric:   1.347122740E-03
   @S^2 Expected:                2.000000000E+00
   @S^2 Observed:                2.001347123E+00
   @S   Expected:                1.000000000E+00
   @S   Observed:                1.000000000E+00

    Orbital Energies [Eh]
    ---------------------

    Alpha Occupied:                                                       

       1A1   -18.943876     2A1   -14.102640     3A1    -1.249429  
       1B1    -0.558268     1B2    -0.558268     4A1    -0.354365  
       5A1    -0.151864     2B1     0.390846     2B2     0.390846  

    Alpha Virtual:                                                        

       6A1     0.478512     3B2     0.603502     3B1     0.603502  
       7A1     0.664981     8A1     0.810667     4B1     0.956521  
       4B2     0.956521     9A1     1.203506     1A2     1.203507  
      10A1     1.538665     5B2     1.757272     5B1     1.757272  
      11A1     1.778926    12A1     1.998940     2A2     1.998943  
       6B2     2.261384     6B1     2.261384    13A1     2.269676  
       7B1     2.975537     7B2     2.975537    14A1     3.522527  
      15A1     3.811411     8B1     4.013149     8B2     4.013149  
      16A1     4.328354     3A2     4.328355     9B2     4.421110  
       9B1     4.421110    17A1     4.442012     4A2     4.692691  
      18A1     4.692692    10B1     4.775285    10B2     4.775285  
      19A1     5.135402    11B2     5.645515    11B1     5.645515  
      12B2     5.688190    12B1     5.688190    20A1     6.326131  
       5A2     6.326135    21A1     6.634007    13B2     7.293244  
      13B1     7.293244    22A1     7.625407     6A2     7.625408  
      23A1     7.689407    14B1     9.411192    14B2     9.411192  
      24A1     9.712714    25A1    10.997420    26A1    28.086477  

    Beta Occupied:                                                        

       1A1   -18.930871     2A1   -14.098209     3A1    -1.236191  
       1B1    -0.522696     1B2    -0.522696     4A1    -0.322650  
       5A1    -0.103687  

    Beta Virtual:                                                         

       6A1     0.498452     2B1     0.518723     2B2     0.518723  
       3B2     0.623879     3B1     0.623879     7A1     0.686437  
       8A1     0.850423     4B1     1.007758     4B2     1.007758  
       1A2     1.239552     9A1     1.239553    10A1     1.553567  
       5B2     1.793622     5B1     1.793622    11A1     1.801757  
      12A1     2.048529     2A2     2.048529    13A1     2.286964  
       6B2     2.291367     6B1     2.291367     7B1     3.004629  
       7B2     3.004629    14A1     3.552038    15A1     3.823825  
       8B1     4.042521     8B2     4.042521     3A2     4.347197  
      16A1     4.347197     9B2     4.452908     9B1     4.452908  
      17A1     4.460593     4A2     4.734347    18A1     4.734348  
      10B1     4.801164    10B2     4.801164    19A1     5.152990  
      11B2     5.671742    11B1     5.671742    12B2     5.725033  
      12B1     5.725033    20A1     6.370324     5A2     6.370325  
      21A1     6.652643    13B2     7.314069    13B1     7.314069  
      22A1     7.658290     6A2     7.658290    23A1     7.697579  
      14B1     9.439878    14B2     9.439878    24A1     9.722936  
      25A1    11.020695    26A1    28.102277  

    Final Occupation by Irrep:
             A1    A2    B1    B2 
    DOCC [     5,    0,    1,    1 ]
    SOCC [     0,    0,    1,    1 ]
    NA   [     5,    0,    2,    2 ]
    NB   [     5,    0,    1,    1 ]

  @DF-UKS Final Energy:  -127.69013302890592

   => Energetics <=

    Nuclear Repulsion Energy =             45.4074156098084316
    One-Electron Energy =                -265.6859949864930286
    Two-Electron Energy =                 106.0347273484282056
    DFT Exchange-Correlation Energy =     -13.4462810006495168
    Empirical Dispersion Energy =           0.0000000000000000
    VV10 Nonlocal Energy =                  0.0000000000000000
    Total Energy =                       -127.6901330289059189

  UHF NO Occupations:
  HONO-2 :    5 A1 1.9995536
  HONO-1 :    2 B1 1.0000000
  HONO-0 :    2 B2 1.0000000
  LUNO+0 :    6 A1 0.0004464
  LUNO+1 :    3 B1 0.0000902
  LUNO+2 :    3 B2 0.0000902
  LUNO+3 :    7 A1 0.0000432


Computation Completed


Properties will be evaluated at   0.000000,   0.000000,   0.000000 [a0]

Properties computed using the B3LYP density matrix


 Multipole Moments:

 ------------------------------------------------------------------------------------
     Multipole            Electronic (a.u.)      Nuclear  (a.u.)        Total (a.u.)
 ------------------------------------------------------------------------------------

 L = 1.  Multiply by 2.5417464519 to convert [e a0] to [Debye]
 Dipole X            :          0.0000000            0.0000000            0.0000000
 Dipole Y            :          0.0000000            0.0000000            0.0000000
 Dipole Z            :         -1.6535936           -0.0024745           -1.6560681
 Magnitude           :                                                    1.6560681

 L = 2.  Multiply by 1.3450342976 to convert [e a0^2] to [Debye ang]
 Quadrupole XX       :        -10.1113470            0.0000000          -10.1113470
 Quadrupole XY       :          0.0000000            0.0000000            0.0000000
 Quadrupole XZ       :          0.0000000            0.0000000            0.0000000
 Quadrupole YY       :        -10.1113470            0.0000000          -10.1113470
 Quadrupole YZ       :          0.0000000            0.0000000            0.0000000
 Quadrupole ZZ       :        -17.9011460            5.6783124          -12.2228335
 Traceless XX        :          2.5965996           -1.8927708            0.7038288
 Traceless YY        :          2.5965996           -1.8927708            0.7038288
 Traceless ZZ        :         -5.1931993            3.7855416           -1.4076577

 ------------------------------------------------------------------------------------
  ==> Computing MBIS Charges <==

  Electron Count from Grid (Expected Number): 16.00000 (16.00000)
  Difference: -0.00000

  MBIS Charges: (a.u.)
   Center  Symbol  Z      Pop.       Charge
      1       O    8    7.473435    0.526565
      2       N    7    8.526564   -1.526564

  MBIS Dipoles: [e a0]
   Center  Symbol  Z        X           Y           Z
      1       O    8    0.000000    0.000000    0.088693
      2       N    7   -0.000000    0.000000   -0.437777

  MBIS Quadrupoles: [e a0^2]
   Center  Symbol  Z      XX        XY        XZ        YY        YZ        ZZ
      1       O    8   -2.3067   -0.0000    0.0000   -2.3067    0.0000   -2.9103
      2       N    7   -7.8046    0.0000   -0.0000   -7.8046    0.0000   -8.1491

  MBIS Octupoles: [e a0^3]
   Center  Symbol  Z      XXX       XXY       XXZ       XYY       XYZ       XZZ       YYY       YYZ       YZZ       ZZZ
      1       O    8    0.0000   -0.0000    0.1646    0.0000   -0.0000   -0.0000   -0.0000    0.1646   -0.0000    0.5097
      2       N    7   -0.0000    0.0000   -2.5557   -0.0000   -0.0000   -0.0000   -0.0000   -2.5557    0.0000    0.8458

  MBIS Radial Moments:
   Center  Symbol  Z      [a0^2]      [a0^3]      [a0^4]      
      1       O    8    7.523698   12.036336   23.409441
      2       N    7   23.758365   64.142781   201.005996

  MBIS Valence Widths: [a0]
   Center  Symbol  Z     Width
      1       O    8    0.324516
      2       N    7    0.539650

*** tstop() called on Mac.lan at Sun Aug 10 17:46:15 2025
Module time:
	user time   =       3.77 seconds =       0.06 minutes
	system time =       2.97 seconds =       0.05 minutes
	total time  =          1 seconds =       0.02 minutes
Total time:
	user time   =      19.64 seconds =       0.33 minutes
	system time =       5.04 seconds =       0.08 minutes
	total time  =          2 seconds =       0.03 minutes

    Psi4 stopped on: Sunday, 10 August 2025 05:46PM
    Psi4 wall time for execution: 0:00:02.38

*** Psi4 exiting successfully. Buy a developer a beer!
