
    -----------------------------------------------------------------------
          Psi4: An Open-Source Ab Initio Electronic Structure Package
                               Psi4 1.9.1 release

                         Git: Rev {} zzzzzzz 


    D. G. A. Smith, L. A. Burns, A. C. Simmonett, R. M. Parrish,
    M. C. Schieber, R. Galvelis, P. Kraus, H. Kruse, R. Di Remigio,
    A. Alenaizan, A. M. James, S. Lehtola, J. P. Misiewicz, M. Scheurer,
    R. A. Shaw, J. B. Schriber, Y. Xie, Z. L. Glick, D. A. Sirianni,
    J. S. O'Brien, J. M. Waldrop, A. Kumar, E. G. Hohenstein,
    B. P. Pritchard, B. R. Brooks, H. F. Schaefer III, A. Yu. Sokolov,
    K. Patkowski, A. E. DePrince III, U. Bozkaya, R. A. King,
    F. A. Evangelista, J. M. Turney, T. D. Crawford, C. D. Sherrill,
    J. Chem. Phys. 152(18) 184108 (2020). https://doi.org/10.1063/5.0006002

                            Additional Code Authors
    E. T. Seidl, C. L. Janssen, E. F. Valeev, M. L. Leininger,
    J. F. Gonthier, R. M. Richard, H. R. McAlexander, M. Saitow, X. Wang,
    P. Verma, M. H. Lechner, A. Jiang, S. Behnle, A. G. Heide,
    M. F. Herbst, and D. L. Poole

             Previous Authors, Complete List of Code Contributors,
                       and Citations for Specific Modules
    https://github.com/psi4/psi4/blob/master/codemeta.json
    https://github.com/psi4/psi4/graphs/contributors
    http://psicode.org/psi4manual/master/introduction.html#citing-psifour

    -----------------------------------------------------------------------


    Psi4 started on: Sunday, 10 August 2025 05:46PM

    Process ID: 49442
    Host:       Mac.lan
    PSIDATADIR: /Users/joseantoniorodriguesromero/anaconda3/share/psi4
    Memory:     500.0 MiB
    Threads:    1
    
  ==> Input File <==

--------------------------------------------------------------------------
molecule { 
-1 3
O           0.000000           0.000000           0.000000
N           0.000000           0.000000           0.741971
}

set { 
basis              cc-pvtz
reference          uks
maxiter            500
DAMPING_PERCENTAGE 1
E_CONVERGENCE      1.0E-8
D_CONVERGENCE      1.0E-8
DIIS_MAX_VECS      400
MBIS_MAXITER       8000
guess              read
}

E, wfn = energy('b3lyp', restart_file='last_wfn', return_wfn=True)
properties('b3lyp','MBIS_CHARGES', wfn=wfn)
wfn.to_file('last_wfn')
--------------------------------------------------------------------------

Scratch directory: /tmp/
 Found user provided orbital data. Setting orbital guess to READ 
 Copying restart file <last_wfn.npy> to </tmp/scan_NO_11.default.49442.180.npy> for internal processing
   => Libint2 <=

    Primary   basis highest AM E, G, H:  6, 6, 3
    Auxiliary basis highest AM E, G, H:  7, 7, 4
    Onebody   basis highest AM E, G, H:  -, -, -
    Solid Harmonics ordering:            Gaussian

*** tstart() called on Mac.lan
*** at Sun Aug 10 17:46:04 2025

   => Loading Basis Set <=

    Name: CC-PVTZ
    Role: ORBITAL
    Keyword: BASIS
    atoms 1 entry O          line   262 file /Users/joseantoniorodriguesromero/anaconda3/share/psi4/basis/cc-pvtz.gbs 
    atoms 2 entry N          line   224 file /Users/joseantoniorodriguesromero/anaconda3/share/psi4/basis/cc-pvtz.gbs 


         ---------------------------------------------------------
                                   SCF
               by Justin Turney, Rob Parrish, Andy Simmonett
                          and Daniel G. A. Smith
                              UKS Reference
                        1 Threads,    500 MiB Core
         ---------------------------------------------------------

  ==> Geometry <==

    Molecular point group: c2v
    Full point group: C_inf_v

    Geometry (in Angstrom), charge = -1, multiplicity = 3:

       Center              X                  Y                   Z               Mass       
    ------------   -----------------  -----------------  -----------------  -----------------
         O            0.000000000000     0.000000000000    -0.346352382234    15.994914619570
         N            0.000000000000     0.000000000000     0.395618617766    14.003074004430

  Running in c2v symmetry.

  Rotational constants: A = ************  B =      4.10119  C =      4.10119 [cm^-1]
  Rotational constants: A = ************  B = 122950.46141  C = 122950.46141 [MHz]
  Nuclear repulsion =   39.939463668418306

  Charge       = -1
  Multiplicity = 3
  Electrons    = 16
  Nalpha       = 9
  Nbeta        = 7

  ==> Algorithm <==

  SCF Algorithm Type is DF.
  DIIS enabled.
  MOM disabled.
  Fractional occupation disabled.
  Guess Type is READ.
  Energy threshold   = 1.00e-08
  Density threshold  = 1.00e-08
  Integral threshold = 1.00e-12

  ==> Primary Basis <==

  Basis Set: CC-PVTZ
    Blend: CC-PVTZ
    Number of shells: 20
    Number of basis functions: 60
    Number of Cartesian functions: 70
    Spherical Harmonics?: true
    Max angular momentum: 3

  ==> DFT Potential <==

   => LibXC <=

    Version 6.2.2
    S. Lehtola, C. Steigemann, M. J.T. Oliveira, and M. A.L. Marques.,  SoftwareX 7, 1–5 (2018) (10.1016/j.softx.2017.11.002)

   => Composite Functional: B3LYP <= 

    B3LYP Hyb-GGA Exchange-Correlation Functional

    P. J. Stephens, F. J. Devlin, C. F. Chabalowski, and M. J. Frisch.,  J. Phys. Chem. 98, 11623 (1994) (10.1021/j100096a001)

    Deriv               =              1
    GGA                 =           TRUE
    Meta                =          FALSE

    Exchange Hybrid     =           TRUE
    MP2 Hybrid          =          FALSE

   => Exchange Functionals <=

    0.0800   Slater exchange
    0.7200         Becke 88

   => Exact (HF) Exchange <=

    0.2000               HF 

   => Correlation Functionals <=

    0.1900   Vosko, Wilk & Nusair (VWN5_RPA)
    0.8100   Lee, Yang & Parr

   => LibXC Density Thresholds  <==

    XC_HYB_GGA_XC_B3LYP:  1.00E-15 

   => Molecular Quadrature <=

    Radial Scheme          =       TREUTLER
    Pruning Scheme         =           NONE
    Nuclear Scheme         =       TREUTLER

    Blocking Scheme        =         OCTREE
    BS radius alpha        =              1
    Pruning alpha          =              1
    Radial Points          =             75
    Spherical Points       =            302
    Total Points           =          42646
    Total Blocks           =            380
    Max Points             =            256
    Max Functions          =             60
    Weights Tolerance      =       1.00E-15

   => Loading Basis Set <=

    Name: (CC-PVTZ AUX)
    Role: JKFIT
    Keyword: DF_BASIS_SCF
    atoms 1 entry O          line   229 file /Users/joseantoniorodriguesromero/anaconda3/share/psi4/basis/cc-pvtz-jkfit.gbs 
    atoms 2 entry N          line   177 file /Users/joseantoniorodriguesromero/anaconda3/share/psi4/basis/cc-pvtz-jkfit.gbs 

   => Loading Basis Set <=

    Name: CC-PVTZ
    Role: ORBITAL
    Keyword: BASIS
    atoms 1 entry O          line   262 file /Users/joseantoniorodriguesromero/anaconda3/share/psi4/basis/cc-pvtz.gbs 
    atoms 2 entry N          line   224 file /Users/joseantoniorodriguesromero/anaconda3/share/psi4/basis/cc-pvtz.gbs 

  Reading orbitals from file /tmp/scan_NO_11.default.49442.180.npy, no projection.

  ==> Integral Setup <==

  DFHelper Memory: AOs need 0.005 GiB; user supplied 0.295 GiB. 
  Using in-core AOs.

  ==> MemDFJK: Density-Fitted J/K Matrices <==

    J tasked:                   Yes
    K tasked:                   Yes
    wK tasked:                   No
    OpenMP threads:               1
    Memory [MiB]:               302
    Algorithm:                 Core
    Schwarz Cutoff:           1E-12
    Mask sparsity (%):       0.0000
    Fitting Condition:        1E-10

   => Auxiliary Basis Set <=

  Basis Set: (CC-PVTZ AUX)
    Blend: CC-PVTZ-JKFIT
    Number of shells: 50
    Number of basis functions: 158
    Number of Cartesian functions: 192
    Spherical Harmonics?: true
    Max angular momentum: 4

  Cached 100.0% of DFT collocation blocks in 0.071 [GiB].

  Minimum eigenvalue in the overlap matrix is 1.2692511683E-03.
  Reciprocal condition number of the overlap matrix is 2.9674001701E-04.
    Using symmetric orthogonalization.

  ==> Pre-Iterations <==

  SCF Guess: Orbitals guess was supplied from a previous computation.

   -------------------------------------------------------
    Irrep   Nso     Nmo     Nalpha   Nbeta   Ndocc  Nsocc
   -------------------------------------------------------
     A1        26      26       5       5       5       0
     A2         6       6       0       0       0       0
     B1        14      14       2       1       1       1
     B2        14      14       2       1       1       1
   -------------------------------------------------------
    Total      60      60       9       7       7       2
   -------------------------------------------------------

  ==> Iterations <==

                           Total Energy        Delta E     RMS |[F,P]|

   @DF-UKS iter   0:  -128.75514415343244   -1.28755e+02   1.07833e-02 
   @DF-UKS iter   1:  -128.71644150998668    3.87026e-02   2.50757e-03 ADIIS/DIIS
   @DF-UKS iter   2:  -128.71563899416506    8.02516e-04   2.94081e-03 ADIIS/DIIS/DAMP=1%
   @DF-UKS iter   3:  -128.71568167679922   -4.26826e-05   9.66331e-05 DIIS/DAMP=1%
   @DF-UKS iter   4:  -128.71907491799925   -3.39324e-03   7.90209e-05 DIIS/DAMP=1%
   @DF-UKS iter   5:  -128.71889826401224    1.76654e-04   1.72863e-05 DIIS/DAMP=1%
   @DF-UKS iter   6:  -128.71894673824815   -4.84742e-05   1.70748e-06 DIIS/DAMP=1%
   @DF-UKS iter   7:  -128.71895281442929   -6.07618e-06   2.93507e-07 DIIS/DAMP=1%
   @DF-UKS iter   8:  -128.71895430113602   -1.48671e-06   8.18589e-08 DIIS/DAMP=1%
   @DF-UKS iter   9:  -128.71895386867553    4.32460e-07   8.63330e-09 DIIS/DAMP=1%
   @DF-UKS iter  10:  -128.71895396850178   -9.98263e-08   1.27534e-09 DIIS/DAMP=1%
   @DF-UKS iter  11:  -128.71895396481082    3.69096e-09   3.22254e-10 DIIS/DAMP=1%
  Energy and wave function converged.


  ==> Post-Iterations <==

   Electrons on quadrature grid:
      Nalpha   =    9.0000000969 ; deviation = 9.689e-08
      Nbeta    =    7.0000000956 ; deviation = 9.555e-08
      Ntotal   =   16.0000001924 ; deviation = 1.924e-07 

   @Spin Contamination Metric:   1.177288828E-03
   @S^2 Expected:                2.000000000E+00
   @S^2 Observed:                2.001177289E+00
   @S   Expected:                1.000000000E+00
   @S   Observed:                1.000000000E+00

    Orbital Energies [Eh]
    ---------------------

    Alpha Occupied:                                                       

       1A1   -18.866069     2A1   -14.009554     3A1    -1.201958  
       1B2    -0.423839     1B1    -0.423839     4A1    -0.313500  
       5A1    -0.140128     2B1     0.356413     2B2     0.356413  

    Alpha Virtual:                                                        

       6A1     0.501505     3B1     0.640604     3B2     0.640604  
       7A1     0.684934     8A1     0.824601     4B1     0.928253  
       4B2     0.928253     1A2     1.229384     9A1     1.229385  
      10A1     1.533080    11A1     1.677085     5B2     1.714903  
       5B1     1.714903    12A1     1.992444     2A2     1.992447  
      13A1     2.322868     6B1     2.362394     6B2     2.362394  
       7B1     3.002566     7B2     3.002566    14A1     3.394195  
      15A1     3.629342     8B2     4.053747     8B1     4.053747  
      16A1     4.264067    17A1     4.335650     3A2     4.335651  
       9B2     4.368956     9B1     4.368956    10B1     4.686502  
      10B2     4.686502     4A2     4.725437    18A1     4.725439  
      19A1     5.082831    11B1     5.444649    11B2     5.444649  
      12B2     5.618056    12B1     5.618056    20A1     6.430504  
       5A2     6.430508    21A1     6.504324    13B1     7.049555  
      13B2     7.049555     6A2     7.160759    22A1     7.160759  
      23A1     7.460451    24A1     8.686460    14B1     9.083975  
      14B2     9.083975    25A1    10.881715    26A1    25.877944  

    Beta Occupied:                                                        

       1A1   -18.850339     2A1   -13.998784     3A1    -1.184046  
       1B2    -0.375061     1B1    -0.375061     4A1    -0.272184  
       5A1    -0.084157  

    Beta Virtual:                                                         

       2B1     0.489562     2B2     0.489562     6A1     0.517768  
       3B1     0.666822     3B2     0.666822     7A1     0.705469  
       8A1     0.858873     4B1     0.983605     4B2     0.983605  
       1A2     1.267667     9A1     1.267668    10A1     1.550725  
      11A1     1.705420     5B2     1.752614     5B1     1.752614  
      12A1     2.045202     2A2     2.045203    13A1     2.341661  
       6B1     2.396048     6B2     2.396048     7B1     3.041458  
       7B2     3.041458    14A1     3.427766    15A1     3.651923  
       8B2     4.094315     8B1     4.094315    16A1     4.287504  
      17A1     4.360998     3A2     4.360998     9B2     4.409780  
       9B1     4.409780    10B1     4.718290    10B2     4.718290  
       4A2     4.782087    18A1     4.782088    19A1     5.102444  
      11B1     5.474664    11B2     5.474664    12B2     5.662632  
      12B1     5.662632    20A1     6.486441     5A2     6.486443  
      21A1     6.527829    13B1     7.076726    13B2     7.076726  
      22A1     7.199476     6A2     7.199477    23A1     7.472810  
      24A1     8.702057    14B1     9.119356    14B2     9.119356  
      25A1    10.911203    26A1    25.898308  

    Final Occupation by Irrep:
             A1    A2    B1    B2 
    DOCC [     5,    0,    1,    1 ]
    SOCC [     0,    0,    1,    1 ]
    NA   [     5,    0,    2,    2 ]
    NB   [     5,    0,    1,    1 ]

  @DF-UKS Final Energy:  -128.71895396481082

   => Energetics <=

    Nuclear Repulsion Energy =             39.9394636684183055
    One-Electron Energy =                -258.0077332452345900
    Two-Electron Energy =                 102.6036379544242152
    DFT Exchange-Correlation Energy =     -13.2543223424187619
    Empirical Dispersion Energy =           0.0000000000000000
    VV10 Nonlocal Energy =                  0.0000000000000000
    Total Energy =                       -128.7189539648108223

  UHF NO Occupations:
  HONO-2 :    5 A1 1.9997441
  HONO-1 :    2 B2 1.0000000
  HONO-0 :    2 B1 1.0000000
  LUNO+0 :    6 A1 0.0002559
  LUNO+1 :    3 B2 0.0001345
  LUNO+2 :    3 B1 0.0001345
  LUNO+3 :    7 A1 0.0000583


Computation Completed


Properties will be evaluated at   0.000000,   0.000000,   0.000000 [a0]

Properties computed using the SCF density matrix


 Multipole Moments:

 ------------------------------------------------------------------------------------
     Multipole            Electronic (a.u.)      Nuclear  (a.u.)        Total (a.u.)
 ------------------------------------------------------------------------------------

 L = 1.  Multiply by 2.5417464519 to convert [e a0] to [Debye]
 Dipole X            :          0.0000000            0.0000000            0.0000000
 Dipole Y            :          0.0000000            0.0000000            0.0000000
 Dipole Z            :         -1.2007227           -0.0028133           -1.2035360
 Magnitude           :                                                    1.2035360

 ------------------------------------------------------------------------------------

*** tstop() called on Mac.lan at Sun Aug 10 17:46:06 2025
Module time:
	user time   =      15.35 seconds =       0.26 minutes
	system time =       1.93 seconds =       0.03 minutes
	total time  =          2 seconds =       0.03 minutes
Total time:
	user time   =      15.35 seconds =       0.26 minutes
	system time =       1.93 seconds =       0.03 minutes
	total time  =          2 seconds =       0.03 minutes

*** tstart() called on Mac.lan
*** at Sun Aug 10 17:46:06 2025

   => Libint2 <=

    Primary   basis highest AM E, G, H:  6, 6, 3
    Auxiliary basis highest AM E, G, H:  7, 7, 4
    Onebody   basis highest AM E, G, H:  -, -, -
    Solid Harmonics ordering:            Gaussian
   => Loading Basis Set <=

    Name: CC-PVTZ
    Role: ORBITAL
    Keyword: BASIS
    atoms 1 entry O          line   262 file /Users/joseantoniorodriguesromero/anaconda3/share/psi4/basis/cc-pvtz.gbs 
    atoms 2 entry N          line   224 file /Users/joseantoniorodriguesromero/anaconda3/share/psi4/basis/cc-pvtz.gbs 


         ---------------------------------------------------------
                                   SCF
               by Justin Turney, Rob Parrish, Andy Simmonett
                          and Daniel G. A. Smith
                              UKS Reference
                        1 Threads,    500 MiB Core
         ---------------------------------------------------------

  ==> Geometry <==

    Molecular point group: c2v
    Full point group: C_inf_v

    Geometry (in Angstrom), charge = -1, multiplicity = 3:

       Center              X                  Y                   Z               Mass       
    ------------   -----------------  -----------------  -----------------  -----------------
         O            0.000000000000     0.000000000000    -0.346352382234    15.994914619570
         N            0.000000000000     0.000000000000     0.395618617766    14.003074004430

  Running in c2v symmetry.

  Rotational constants: A = ************  B =      4.10119  C =      4.10119 [cm^-1]
  Rotational constants: A = ************  B = 122950.46141  C = 122950.46141 [MHz]
  Nuclear repulsion =   39.939463668418306

  Charge       = -1
  Multiplicity = 3
  Electrons    = 16
  Nalpha       = 9
  Nbeta        = 7

  ==> Algorithm <==

  SCF Algorithm Type is DF.
  DIIS enabled.
  MOM disabled.
  Fractional occupation disabled.
  Guess Type is READ.
  Energy threshold   = 1.00e-08
  Density threshold  = 1.00e-08
  Integral threshold = 1.00e-12

  ==> Primary Basis <==

  Basis Set: CC-PVTZ
    Blend: CC-PVTZ
    Number of shells: 20
    Number of basis functions: 60
    Number of Cartesian functions: 70
    Spherical Harmonics?: true
    Max angular momentum: 3

  ==> DFT Potential <==

   => LibXC <=

    Version 6.2.2
    S. Lehtola, C. Steigemann, M. J.T. Oliveira, and M. A.L. Marques.,  SoftwareX 7, 1–5 (2018) (10.1016/j.softx.2017.11.002)

   => Composite Functional: B3LYP <= 

    B3LYP Hyb-GGA Exchange-Correlation Functional

    P. J. Stephens, F. J. Devlin, C. F. Chabalowski, and M. J. Frisch.,  J. Phys. Chem. 98, 11623 (1994) (10.1021/j100096a001)

    Deriv               =              1
    GGA                 =           TRUE
    Meta                =          FALSE

    Exchange Hybrid     =           TRUE
    MP2 Hybrid          =          FALSE

   => Exchange Functionals <=

    0.0800   Slater exchange
    0.7200         Becke 88

   => Exact (HF) Exchange <=

    0.2000               HF 

   => Correlation Functionals <=

    0.1900   Vosko, Wilk & Nusair (VWN5_RPA)
    0.8100   Lee, Yang & Parr

   => LibXC Density Thresholds  <==

    XC_HYB_GGA_XC_B3LYP:  1.00E-15 

   => Molecular Quadrature <=

    Radial Scheme          =       TREUTLER
    Pruning Scheme         =           NONE
    Nuclear Scheme         =       TREUTLER

    Blocking Scheme        =         OCTREE
    BS radius alpha        =              1
    Pruning alpha          =              1
    Radial Points          =             75
    Spherical Points       =            302
    Total Points           =          42646
    Total Blocks           =            380
    Max Points             =            256
    Max Functions          =             60
    Weights Tolerance      =       1.00E-15

   => Loading Basis Set <=

    Name: (CC-PVTZ AUX)
    Role: JKFIT
    Keyword: DF_BASIS_SCF
    atoms 1 entry O          line   229 file /Users/joseantoniorodriguesromero/anaconda3/share/psi4/basis/cc-pvtz-jkfit.gbs 
    atoms 2 entry N          line   177 file /Users/joseantoniorodriguesromero/anaconda3/share/psi4/basis/cc-pvtz-jkfit.gbs 

   => Loading Basis Set <=

    Name: CC-PVTZ
    Role: ORBITAL
    Keyword: BASIS
    atoms 1 entry O          line   262 file /Users/joseantoniorodriguesromero/anaconda3/share/psi4/basis/cc-pvtz.gbs 
    atoms 2 entry N          line   224 file /Users/joseantoniorodriguesromero/anaconda3/share/psi4/basis/cc-pvtz.gbs 

  Reading orbitals from file /tmp/scan_NO_11.default.49442.180.npy, no projection.

  ==> Integral Setup <==

  DFHelper Memory: AOs need 0.005 GiB; user supplied 0.295 GiB. 
  Using in-core AOs.

  ==> MemDFJK: Density-Fitted J/K Matrices <==

    J tasked:                   Yes
    K tasked:                   Yes
    wK tasked:                   No
    OpenMP threads:               1
    Memory [MiB]:               302
    Algorithm:                 Core
    Schwarz Cutoff:           1E-12
    Mask sparsity (%):       0.0000
    Fitting Condition:        1E-10

   => Auxiliary Basis Set <=

  Basis Set: (CC-PVTZ AUX)
    Blend: CC-PVTZ-JKFIT
    Number of shells: 50
    Number of basis functions: 158
    Number of Cartesian functions: 192
    Spherical Harmonics?: true
    Max angular momentum: 4

  Cached 100.0% of DFT collocation blocks in 0.071 [GiB].

  Minimum eigenvalue in the overlap matrix is 1.2692511683E-03.
  Reciprocal condition number of the overlap matrix is 2.9674001701E-04.
    Using symmetric orthogonalization.

  ==> Pre-Iterations <==

  SCF Guess: Orbitals guess was supplied from a previous computation.

   -------------------------------------------------------
    Irrep   Nso     Nmo     Nalpha   Nbeta   Ndocc  Nsocc
   -------------------------------------------------------
     A1        26      26       5       5       5       0
     A2         6       6       0       0       0       0
     B1        14      14       2       1       1       1
     B2        14      14       2       1       1       1
   -------------------------------------------------------
    Total      60      60       9       7       7       2
   -------------------------------------------------------

  ==> Iterations <==

                           Total Energy        Delta E     RMS |[F,P]|

   @DF-UKS iter   0:  -128.71895396371860   -1.28719e+02   1.46723e-11 
   @DF-UKS iter   1:  -128.71895396371872   -1.13687e-13   1.63426e-11 DIIS
  Energy and wave function converged.


  ==> Post-Iterations <==

   Electrons on quadrature grid:
      Nalpha   =    9.0000000969 ; deviation = 9.689e-08
      Nbeta    =    7.0000000956 ; deviation = 9.555e-08
      Ntotal   =   16.0000001924 ; deviation = 1.924e-07 

   @Spin Contamination Metric:   1.177288826E-03
   @S^2 Expected:                2.000000000E+00
   @S^2 Observed:                2.001177289E+00
   @S   Expected:                1.000000000E+00
   @S   Observed:                1.000000000E+00

    Orbital Energies [Eh]
    ---------------------

    Alpha Occupied:                                                       

       1A1   -18.866069     2A1   -14.009554     3A1    -1.201958  
       1B2    -0.423839     1B1    -0.423839     4A1    -0.313500  
       5A1    -0.140128     2B1     0.356413     2B2     0.356413  

    Alpha Virtual:                                                        

       6A1     0.501505     3B1     0.640604     3B2     0.640604  
       7A1     0.684934     8A1     0.824601     4B1     0.928253  
       4B2     0.928253     1A2     1.229384     9A1     1.229385  
      10A1     1.533080    11A1     1.677085     5B2     1.714903  
       5B1     1.714903    12A1     1.992444     2A2     1.992447  
      13A1     2.322868     6B1     2.362394     6B2     2.362394  
       7B1     3.002566     7B2     3.002566    14A1     3.394195  
      15A1     3.629342     8B2     4.053747     8B1     4.053747  
      16A1     4.264067    17A1     4.335650     3A2     4.335651  
       9B2     4.368956     9B1     4.368956    10B1     4.686502  
      10B2     4.686502     4A2     4.725437    18A1     4.725439  
      19A1     5.082831    11B1     5.444649    11B2     5.444649  
      12B2     5.618056    12B1     5.618056    20A1     6.430504  
       5A2     6.430508    21A1     6.504324    13B1     7.049555  
      13B2     7.049555     6A2     7.160759    22A1     7.160759  
      23A1     7.460451    24A1     8.686460    14B1     9.083975  
      14B2     9.083975    25A1    10.881715    26A1    25.877944  

    Beta Occupied:                                                        

       1A1   -18.850339     2A1   -13.998784     3A1    -1.184046  
       1B2    -0.375061     1B1    -0.375061     4A1    -0.272184  
       5A1    -0.084157  

    Beta Virtual:                                                         

       2B1     0.489562     2B2     0.489562     6A1     0.517768  
       3B1     0.666822     3B2     0.666822     7A1     0.705469  
       8A1     0.858873     4B1     0.983605     4B2     0.983605  
       1A2     1.267667     9A1     1.267668    10A1     1.550725  
      11A1     1.705420     5B2     1.752614     5B1     1.752614  
      12A1     2.045202     2A2     2.045203    13A1     2.341661  
       6B1     2.396048     6B2     2.396048     7B1     3.041458  
       7B2     3.041458    14A1     3.427766    15A1     3.651923  
       8B2     4.094315     8B1     4.094315    16A1     4.287504  
      17A1     4.360998     3A2     4.360998     9B2     4.409780  
       9B1     4.409780    10B1     4.718290    10B2     4.718290  
       4A2     4.782087    18A1     4.782088    19A1     5.102444  
      11B1     5.474664    11B2     5.474664    12B2     5.662632  
      12B1     5.662632    20A1     6.486441     5A2     6.486443  
      21A1     6.527829    13B1     7.076726    13B2     7.076726  
      22A1     7.199476     6A2     7.199477    23A1     7.472810  
      24A1     8.702057    14B1     9.119356    14B2     9.119356  
      25A1    10.911203    26A1    25.898308  

    Final Occupation by Irrep:
             A1    A2    B1    B2 
    DOCC [     5,    0,    1,    1 ]
    SOCC [     0,    0,    1,    1 ]
    NA   [     5,    0,    2,    2 ]
    NB   [     5,    0,    1,    1 ]

  @DF-UKS Final Energy:  -128.71895396371872

   => Energetics <=

    Nuclear Repulsion Energy =             39.9394636684183055
    One-Electron Energy =                -258.0077332938269592
    Two-Electron Energy =                 102.6036380083402975
    DFT Exchange-Correlation Energy =     -13.2543223466503601
    Empirical Dispersion Energy =           0.0000000000000000
    VV10 Nonlocal Energy =                  0.0000000000000000
    Total Energy =                       -128.7189539637187181

  UHF NO Occupations:
  HONO-2 :    5 A1 1.9997441
  HONO-1 :    2 B2 1.0000000
  HONO-0 :    2 B1 1.0000000
  LUNO+0 :    6 A1 0.0002559
  LUNO+1 :    3 B2 0.0001345
  LUNO+2 :    3 B1 0.0001345
  LUNO+3 :    7 A1 0.0000583


Computation Completed


Properties will be evaluated at   0.000000,   0.000000,   0.000000 [a0]

Properties computed using the B3LYP density matrix


 Multipole Moments:

 ------------------------------------------------------------------------------------
     Multipole            Electronic (a.u.)      Nuclear  (a.u.)        Total (a.u.)
 ------------------------------------------------------------------------------------

 L = 1.  Multiply by 2.5417464519 to convert [e a0] to [Debye]
 Dipole X            :          0.0000000            0.0000000            0.0000000
 Dipole Y            :          0.0000000            0.0000000            0.0000000
 Dipole Z            :         -1.2007227           -0.0028133           -1.2035360
 Magnitude           :                                                    1.2035360

 L = 2.  Multiply by 1.3450342976 to convert [e a0^2] to [Debye ang]
 Quadrupole XX       :         -9.6439189            0.0000000           -9.6439189
 Quadrupole XY       :          0.0000000            0.0000000            0.0000000
 Quadrupole XZ       :          0.0000000            0.0000000            0.0000000
 Quadrupole YY       :         -9.6439189            0.0000000           -9.6439189
 Quadrupole YZ       :          0.0000000            0.0000000            0.0000000
 Quadrupole ZZ       :        -19.4619898            7.3395325          -12.1224573
 Traceless XX        :          3.2726903           -2.4465108            0.8261795
 Traceless YY        :          3.2726903           -2.4465108            0.8261795
 Traceless ZZ        :         -6.5453806            4.8930216           -1.6523589

 ------------------------------------------------------------------------------------
  ==> Computing MBIS Charges <==

  Electron Count from Grid (Expected Number): 16.00000 (16.00000)
  Difference:  0.00000

  MBIS Charges: (a.u.)
   Center  Symbol  Z      Pop.       Charge
      1       O    8    7.810132    0.189868
      2       N    7    8.189870   -1.189870

  MBIS Dipoles: [e a0]
   Center  Symbol  Z        X           Y           Z
      1       O    8    0.000000    0.000000    0.188881
      2       N    7    0.000000    0.000000   -0.378587

  MBIS Quadrupoles: [e a0^2]
   Center  Symbol  Z      XX        XY        XZ        YY        YZ        ZZ
      1       O    8   -2.9058   -0.0000    0.0000   -2.9058    0.0000   -3.5546
      2       N    7   -6.7381   -0.0000    0.0000   -6.7381    0.0000   -7.1708

  MBIS Octupoles: [e a0^3]
   Center  Symbol  Z      XXX       XXY       XXZ       XYY       XYZ       XZZ       YYY       YYZ       YZZ       ZZZ
      1       O    8   -0.0000   -0.0000    0.3073   -0.0000    0.0000    0.0000   -0.0000    0.3073   -0.0000    0.6418
      2       N    7   -0.0000   -0.0000   -1.7246   -0.0000   -0.0000   -0.0000    0.0000   -1.7246    0.0000    0.6789

  MBIS Radial Moments:
   Center  Symbol  Z      [a0^2]      [a0^3]      [a0^4]      
      1       O    8    9.366198   16.500774   35.299843
      2       N    7   20.647069   53.290775   161.508211

  MBIS Valence Widths: [a0]
   Center  Symbol  Z     Width
      1       O    8    0.353199
      2       N    7    0.514046

*** tstop() called on Mac.lan at Sun Aug 10 17:46:06 2025
Module time:
	user time   =       3.98 seconds =       0.07 minutes
	system time =       2.35 seconds =       0.04 minutes
	total time  =          0 seconds =       0.00 minutes
Total time:
	user time   =      19.42 seconds =       0.32 minutes
	system time =       4.44 seconds =       0.07 minutes
	total time  =          2 seconds =       0.03 minutes

    Psi4 stopped on: Sunday, 10 August 2025 05:46PM
    Psi4 wall time for execution: 0:00:02.32

*** Psi4 exiting successfully. Buy a developer a beer!
