
    -----------------------------------------------------------------------
          Psi4: An Open-Source Ab Initio Electronic Structure Package
                               Psi4 1.9.1 release

                         Git: Rev {} zzzzzzz 


    D. G. A. Smith, L. A. Burns, A. C. Simmonett, R. M. Parrish,
    M. C. Schieber, R. Galvelis, P. Kraus, H. Kruse, R. Di Remigio,
    A. Alenaizan, A. M. James, S. Lehtola, J. P. Misiewicz, M. Scheurer,
    R. A. Shaw, J. B. Schriber, Y. Xie, Z. L. Glick, D. A. Sirianni,
    J. S. O'Brien, J. M. Waldrop, A. Kumar, E. G. Hohenstein,
    B. P. Pritchard, B. R. Brooks, H. F. Schaefer III, A. Yu. Sokolov,
    K. Patkowski, A. E. DePrince III, U. Bozkaya, R. A. King,
    F. A. Evangelista, J. M. Turney, T. D. Crawford, C. D. Sherrill,
    J. Chem. Phys. 152(18) 184108 (2020). https://doi.org/10.1063/5.0006002

                            Additional Code Authors
    E. T. Seidl, C. L. Janssen, E. F. Valeev, M. L. Leininger,
    J. F. Gonthier, R. M. Richard, H. R. McAlexander, M. Saitow, X. Wang,
    P. Verma, M. H. Lechner, A. Jiang, S. Behnle, A. G. Heide,
    M. F. Herbst, and D. L. Poole

             Previous Authors, Complete List of Code Contributors,
                       and Citations for Specific Modules
    https://github.com/psi4/psi4/blob/master/codemeta.json
    https://github.com/psi4/psi4/graphs/contributors
    http://psicode.org/psi4manual/master/introduction.html#citing-psifour

    -----------------------------------------------------------------------


    Psi4 started on: Sunday, 10 August 2025 05:46PM

    Process ID: 49458
    Host:       Mac.lan
    PSIDATADIR: /Users/joseantoniorodriguesromero/anaconda3/share/psi4
    Memory:     500.0 MiB
    Threads:    1
    
  ==> Input File <==

--------------------------------------------------------------------------
molecule { 
-1 3
O           0.000000           0.000000           0.000000
N           0.000000           0.000000           1.278054
}

set { 
basis              cc-pvtz
reference          uks
maxiter            500
DAMPING_PERCENTAGE 1
E_CONVERGENCE      1.0E-8
D_CONVERGENCE      1.0E-8
DIIS_MAX_VECS      400
MBIS_MAXITER       8000
guess              read
}

E, wfn = energy('b3lyp', restart_file='last_wfn', return_wfn=True)
properties('b3lyp','MBIS_CHARGES', wfn=wfn)
wfn.to_file('last_wfn')
--------------------------------------------------------------------------

Scratch directory: /tmp/
 Found user provided orbital data. Setting orbital guess to READ 
 Copying restart file <last_wfn.npy> to </tmp/scan_NO_29.default.49458.180.npy> for internal processing
   => Libint2 <=

    Primary   basis highest AM E, G, H:  6, 6, 3
    Auxiliary basis highest AM E, G, H:  7, 7, 4
    Onebody   basis highest AM E, G, H:  -, -, -
    Solid Harmonics ordering:            Gaussian

*** tstart() called on Mac.lan
*** at Sun Aug 10 17:46:47 2025

   => Loading Basis Set <=

    Name: CC-PVTZ
    Role: ORBITAL
    Keyword: BASIS
    atoms 1 entry O          line   262 file /Users/joseantoniorodriguesromero/anaconda3/share/psi4/basis/cc-pvtz.gbs 
    atoms 2 entry N          line   224 file /Users/joseantoniorodriguesromero/anaconda3/share/psi4/basis/cc-pvtz.gbs 


         ---------------------------------------------------------
                                   SCF
               by Justin Turney, Rob Parrish, Andy Simmonett
                          and Daniel G. A. Smith
                              UKS Reference
                        1 Threads,    500 MiB Core
         ---------------------------------------------------------

  ==> Geometry <==

    Molecular point group: c2v
    Full point group: C_inf_v

    Geometry (in Angstrom), charge = -1, multiplicity = 3:

       Center              X                  Y                   Z               Mass       
    ------------   -----------------  -----------------  -----------------  -----------------
         O            0.000000000000     0.000000000000    -0.596596157428    15.994914619570
         N            0.000000000000     0.000000000000     0.681457842572    14.003074004430

  Running in c2v symmetry.

  Rotational constants: A = ************  B =      1.38224  C =      1.38224 [cm^-1]
  Rotational constants: A = ************  B =  41438.65182  C =  41438.65182 [MHz]
  Nuclear repulsion =   23.186754078873037

  Charge       = -1
  Multiplicity = 3
  Electrons    = 16
  Nalpha       = 9
  Nbeta        = 7

  ==> Algorithm <==

  SCF Algorithm Type is DF.
  DIIS enabled.
  MOM disabled.
  Fractional occupation disabled.
  Guess Type is READ.
  Energy threshold   = 1.00e-08
  Density threshold  = 1.00e-08
  Integral threshold = 1.00e-12

  ==> Primary Basis <==

  Basis Set: CC-PVTZ
    Blend: CC-PVTZ
    Number of shells: 20
    Number of basis functions: 60
    Number of Cartesian functions: 70
    Spherical Harmonics?: true
    Max angular momentum: 3

  ==> DFT Potential <==

   => LibXC <=

    Version 6.2.2
    S. Lehtola, C. Steigemann, M. J.T. Oliveira, and M. A.L. Marques.,  SoftwareX 7, 1–5 (2018) (10.1016/j.softx.2017.11.002)

   => Composite Functional: B3LYP <= 

    B3LYP Hyb-GGA Exchange-Correlation Functional

    P. J. Stephens, F. J. Devlin, C. F. Chabalowski, and M. J. Frisch.,  J. Phys. Chem. 98, 11623 (1994) (10.1021/j100096a001)

    Deriv               =              1
    GGA                 =           TRUE
    Meta                =          FALSE

    Exchange Hybrid     =           TRUE
    MP2 Hybrid          =          FALSE

   => Exchange Functionals <=

    0.0800   Slater exchange
    0.7200         Becke 88

   => Exact (HF) Exchange <=

    0.2000               HF 

   => Correlation Functionals <=

    0.1900   Vosko, Wilk & Nusair (VWN5_RPA)
    0.8100   Lee, Yang & Parr

   => LibXC Density Thresholds  <==

    XC_HYB_GGA_XC_B3LYP:  1.00E-15 

   => Molecular Quadrature <=

    Radial Scheme          =       TREUTLER
    Pruning Scheme         =           NONE
    Nuclear Scheme         =       TREUTLER

    Blocking Scheme        =         OCTREE
    BS radius alpha        =              1
    Pruning alpha          =              1
    Radial Points          =             75
    Spherical Points       =            302
    Total Points           =          42732
    Total Blocks           =            382
    Max Points             =            256
    Max Functions          =             60
    Weights Tolerance      =       1.00E-15

   => Loading Basis Set <=

    Name: (CC-PVTZ AUX)
    Role: JKFIT
    Keyword: DF_BASIS_SCF
    atoms 1 entry O          line   229 file /Users/joseantoniorodriguesromero/anaconda3/share/psi4/basis/cc-pvtz-jkfit.gbs 
    atoms 2 entry N          line   177 file /Users/joseantoniorodriguesromero/anaconda3/share/psi4/basis/cc-pvtz-jkfit.gbs 

   => Loading Basis Set <=

    Name: CC-PVTZ
    Role: ORBITAL
    Keyword: BASIS
    atoms 1 entry O          line   262 file /Users/joseantoniorodriguesromero/anaconda3/share/psi4/basis/cc-pvtz.gbs 
    atoms 2 entry N          line   224 file /Users/joseantoniorodriguesromero/anaconda3/share/psi4/basis/cc-pvtz.gbs 

  Reading orbitals from file /tmp/scan_NO_29.default.49458.180.npy, no projection.

  ==> Integral Setup <==

  DFHelper Memory: AOs need 0.005 GiB; user supplied 0.296 GiB. 
  Using in-core AOs.

  ==> MemDFJK: Density-Fitted J/K Matrices <==

    J tasked:                   Yes
    K tasked:                   Yes
    wK tasked:                   No
    OpenMP threads:               1
    Memory [MiB]:               302
    Algorithm:                 Core
    Schwarz Cutoff:           1E-12
    Mask sparsity (%):       0.0000
    Fitting Condition:        1E-10

   => Auxiliary Basis Set <=

  Basis Set: (CC-PVTZ AUX)
    Blend: CC-PVTZ-JKFIT
    Number of shells: 50
    Number of basis functions: 158
    Number of Cartesian functions: 192
    Spherical Harmonics?: true
    Max angular momentum: 4

  Cached 100.0% of DFT collocation blocks in 0.071 [GiB].

  Minimum eigenvalue in the overlap matrix is 4.6522958255E-03.
  Reciprocal condition number of the overlap matrix is 1.2345846855E-03.
    Using symmetric orthogonalization.

  ==> Pre-Iterations <==

  SCF Guess: Orbitals guess was supplied from a previous computation.

   -------------------------------------------------------
    Irrep   Nso     Nmo     Nalpha   Nbeta   Ndocc  Nsocc
   -------------------------------------------------------
     A1        26      26       5       5       5       0
     A2         6       6       0       0       0       0
     B1        14      14       2       1       1       1
     B2        14      14       2       1       1       1
   -------------------------------------------------------
    Total      60      60       9       7       7       2
   -------------------------------------------------------

  ==> Iterations <==

                           Total Energy        Delta E     RMS |[F,P]|

   @DF-UKS iter   0:  -129.90837897727675   -1.29908e+02   3.03077e-03 
   @DF-UKS iter   1:  -129.93068297531420   -2.23040e-02   8.82021e-04 ADIIS/DIIS
   @DF-UKS iter   2:  -129.92951674716693    1.16623e-03   1.96295e-03 ADIIS/DIIS/DAMP=1%
   @DF-UKS iter   3:  -129.93032007108815   -8.03324e-04   1.72506e-04 ADIIS/DIIS/DAMP=1%
   @DF-UKS iter   4:  -129.93094119300847   -6.21122e-04   4.02999e-05 DIIS/DAMP=1%
   @DF-UKS iter   5:  -129.93105354261348   -1.12350e-04   5.86403e-06 DIIS/DAMP=1%
   @DF-UKS iter   6:  -129.93101661875605    3.69239e-05   2.81834e-06 DIIS/DAMP=1%
   @DF-UKS iter   7:  -129.93102530410869   -8.68535e-06   4.45554e-07 DIIS/DAMP=1%
   @DF-UKS iter   8:  -129.93102434081143    9.63297e-07   5.99252e-08 DIIS/DAMP=1%
   @DF-UKS iter   9:  -129.93102416203024    1.78781e-07   7.65452e-09 DIIS/DAMP=1%
   @DF-UKS iter  10:  -129.93102421104689   -4.90166e-08   1.38584e-09 DIIS/DAMP=1%
   @DF-UKS iter  11:  -129.93102420777430    3.27259e-09   1.49592e-10 DIIS/DAMP=1%
  Energy and wave function converged.


  ==> Post-Iterations <==

   Electrons on quadrature grid:
      Nalpha   =    9.0000003402 ; deviation = 3.402e-07
      Nbeta    =    7.0000001025 ; deviation = 1.025e-07
      Ntotal   =   16.0000004427 ; deviation = 4.427e-07 

   @Spin Contamination Metric:   8.416610392E-03
   @S^2 Expected:                2.000000000E+00
   @S^2 Observed:                2.008416610E+00
   @S   Expected:                1.000000000E+00
   @S   Observed:                1.000000000E+00

    Orbital Energies [Eh]
    ---------------------

    Alpha Occupied:                                                       

       1A1   -18.839223     2A1   -14.032915     3A1    -0.765549  
       4A1    -0.341439     1B2    -0.115875     1B1    -0.115875  
       5A1    -0.098053     2B1     0.121080     2B2     0.121080  

    Alpha Virtual:                                                        

       6A1     0.494540     3B2     0.727081     3B1     0.727081  
       7A1     0.761787     8A1     0.773402     9A1     0.875246  
       4B1     0.899111     4B2     0.899111     1A2     1.285799  
      10A1     1.285800     5B2     1.422170     5B1     1.422170  
      11A1     1.497711    12A1     1.842915     2A2     1.842916  
      13A1     1.899443     6B2     2.279757     6B1     2.279757  
      14A1     2.471608     7B2     3.172900     7B1     3.172900  
      15A1     3.428262     8B1     3.845470     8B2     3.845470  
       3A2     4.133399    16A1     4.133399     9B2     4.171051  
       9B1     4.171051    17A1     4.365960    10B1     4.400067  
      10B2     4.400067    18A1     4.575131    19A1     4.728585  
       4A2     4.728585    20A1     4.937930    11B2     5.035903  
      11B1     5.035903    12B1     5.427527    12B2     5.427527  
      21A1     5.720687     5A2     5.720687    22A1     6.142893  
      13B1     6.459371    13B2     6.459371    23A1     6.529647  
       6A2     6.529663    24A1     6.963939    14B2     7.079063  
      14B1     7.079063    25A1     7.649161    26A1    11.016403  

    Beta Occupied:                                                        

       1A1   -18.820029     2A1   -14.004448     3A1    -0.722381  
       4A1    -0.267741     5A1    -0.061295     1B2    -0.040476  
       1B1    -0.040476  

    Beta Virtual:                                                         

       2B1     0.288493     2B2     0.288493     6A1     0.514661  
       3B2     0.777616     3B1     0.777616     7A1     0.792623  
       8A1     0.796842     9A1     0.892551     4B2     0.931663  
       4B1     0.931663     1A2     1.339308    10A1     1.339308  
       5B2     1.452806     5B1     1.452806    11A1     1.518215  
      12A1     1.883492     2A2     1.883492    13A1     1.924735  
       6B2     2.309029     6B1     2.309029    14A1     2.493908  
       7B2     3.251948     7B1     3.251948    15A1     3.452821  
       8B1     3.893261     8B2     3.893261     3A2     4.180497  
      16A1     4.180498     9B2     4.256526     9B1     4.256526  
      17A1     4.404123    10B1     4.439503    10B2     4.439503  
      18A1     4.601794    19A1     4.846228     4A2     4.846228  
      20A1     4.976233    11B2     5.088978    11B1     5.088978  
      12B1     5.472870    12B2     5.472870    21A1     5.754280  
       5A2     5.754281    22A1     6.168744    13B1     6.493849  
      13B2     6.493849    23A1     6.598150     6A2     6.598166  
      24A1     6.985522    14B2     7.110577    14B1     7.110577  
      25A1     7.682423    26A1    11.050452  

    Final Occupation by Irrep:
             A1    A2    B1    B2 
    DOCC [     5,    0,    1,    1 ]
    SOCC [     0,    0,    1,    1 ]
    NA   [     5,    0,    2,    2 ]
    NB   [     5,    0,    1,    1 ]

  @DF-UKS Final Energy:  -129.93102420777430

   => Energetics <=

    Nuclear Repulsion Energy =             23.1867540788730366
    One-Electron Energy =                -229.1068894565684673
    Two-Electron Energy =                  88.6588260833896555
    DFT Exchange-Correlation Energy =     -12.6697149134685318
    Empirical Dispersion Energy =           0.0000000000000000
    VV10 Nonlocal Energy =                  0.0000000000000000
    Total Energy =                       -129.9310242077742998

  UHF NO Occupations:
  HONO-2 :    1 B2 1.9986175
  HONO-1 :    2 B1 1.0000000
  HONO-0 :    2 B2 1.0000000
  LUNO+0 :    3 B1 0.0013825
  LUNO+1 :    3 B2 0.0013825
  LUNO+2 :    6 A1 0.0011964
  LUNO+3 :    7 A1 0.0002006


Computation Completed


Properties will be evaluated at   0.000000,   0.000000,   0.000000 [a0]

Properties computed using the SCF density matrix


 Multipole Moments:

 ------------------------------------------------------------------------------------
     Multipole            Electronic (a.u.)      Nuclear  (a.u.)        Total (a.u.)
 ------------------------------------------------------------------------------------

 L = 1.  Multiply by 2.5417464519 to convert [e a0] to [Debye]
 Dipole X            :          0.0000000            0.0000000            0.0000000
 Dipole Y            :          0.0000000            0.0000000            0.0000000
 Dipole Z            :         -0.2633407           -0.0048459           -0.2681867
 Magnitude           :                                                    0.2681867

 ------------------------------------------------------------------------------------

*** tstop() called on Mac.lan at Sun Aug 10 17:46:49 2025
Module time:
	user time   =      14.18 seconds =       0.24 minutes
	system time =       2.60 seconds =       0.04 minutes
	total time  =          2 seconds =       0.03 minutes
Total time:
	user time   =      14.18 seconds =       0.24 minutes
	system time =       2.60 seconds =       0.04 minutes
	total time  =          2 seconds =       0.03 minutes

*** tstart() called on Mac.lan
*** at Sun Aug 10 17:46:49 2025

   => Libint2 <=

    Primary   basis highest AM E, G, H:  6, 6, 3
    Auxiliary basis highest AM E, G, H:  7, 7, 4
    Onebody   basis highest AM E, G, H:  -, -, -
    Solid Harmonics ordering:            Gaussian
   => Loading Basis Set <=

    Name: CC-PVTZ
    Role: ORBITAL
    Keyword: BASIS
    atoms 1 entry O          line   262 file /Users/joseantoniorodriguesromero/anaconda3/share/psi4/basis/cc-pvtz.gbs 
    atoms 2 entry N          line   224 file /Users/joseantoniorodriguesromero/anaconda3/share/psi4/basis/cc-pvtz.gbs 


         ---------------------------------------------------------
                                   SCF
               by Justin Turney, Rob Parrish, Andy Simmonett
                          and Daniel G. A. Smith
                              UKS Reference
                        1 Threads,    500 MiB Core
         ---------------------------------------------------------

  ==> Geometry <==

    Molecular point group: c2v
    Full point group: C_inf_v

    Geometry (in Angstrom), charge = -1, multiplicity = 3:

       Center              X                  Y                   Z               Mass       
    ------------   -----------------  -----------------  -----------------  -----------------
         O            0.000000000000     0.000000000000    -0.596596157428    15.994914619570
         N            0.000000000000     0.000000000000     0.681457842572    14.003074004430

  Running in c2v symmetry.

  Rotational constants: A = ************  B =      1.38224  C =      1.38224 [cm^-1]
  Rotational constants: A = ************  B =  41438.65182  C =  41438.65182 [MHz]
  Nuclear repulsion =   23.186754078873037

  Charge       = -1
  Multiplicity = 3
  Electrons    = 16
  Nalpha       = 9
  Nbeta        = 7

  ==> Algorithm <==

  SCF Algorithm Type is DF.
  DIIS enabled.
  MOM disabled.
  Fractional occupation disabled.
  Guess Type is READ.
  Energy threshold   = 1.00e-08
  Density threshold  = 1.00e-08
  Integral threshold = 1.00e-12

  ==> Primary Basis <==

  Basis Set: CC-PVTZ
    Blend: CC-PVTZ
    Number of shells: 20
    Number of basis functions: 60
    Number of Cartesian functions: 70
    Spherical Harmonics?: true
    Max angular momentum: 3

  ==> DFT Potential <==

   => LibXC <=

    Version 6.2.2
    S. Lehtola, C. Steigemann, M. J.T. Oliveira, and M. A.L. Marques.,  SoftwareX 7, 1–5 (2018) (10.1016/j.softx.2017.11.002)

   => Composite Functional: B3LYP <= 

    B3LYP Hyb-GGA Exchange-Correlation Functional

    P. J. Stephens, F. J. Devlin, C. F. Chabalowski, and M. J. Frisch.,  J. Phys. Chem. 98, 11623 (1994) (10.1021/j100096a001)

    Deriv               =              1
    GGA                 =           TRUE
    Meta                =          FALSE

    Exchange Hybrid     =           TRUE
    MP2 Hybrid          =          FALSE

   => Exchange Functionals <=

    0.0800   Slater exchange
    0.7200         Becke 88

   => Exact (HF) Exchange <=

    0.2000               HF 

   => Correlation Functionals <=

    0.1900   Vosko, Wilk & Nusair (VWN5_RPA)
    0.8100   Lee, Yang & Parr

   => LibXC Density Thresholds  <==

    XC_HYB_GGA_XC_B3LYP:  1.00E-15 

   => Molecular Quadrature <=

    Radial Scheme          =       TREUTLER
    Pruning Scheme         =           NONE
    Nuclear Scheme         =       TREUTLER

    Blocking Scheme        =         OCTREE
    BS radius alpha        =              1
    Pruning alpha          =              1
    Radial Points          =             75
    Spherical Points       =            302
    Total Points           =          42732
    Total Blocks           =            382
    Max Points             =            256
    Max Functions          =             60
    Weights Tolerance      =       1.00E-15

   => Loading Basis Set <=

    Name: (CC-PVTZ AUX)
    Role: JKFIT
    Keyword: DF_BASIS_SCF
    atoms 1 entry O          line   229 file /Users/joseantoniorodriguesromero/anaconda3/share/psi4/basis/cc-pvtz-jkfit.gbs 
    atoms 2 entry N          line   177 file /Users/joseantoniorodriguesromero/anaconda3/share/psi4/basis/cc-pvtz-jkfit.gbs 

   => Loading Basis Set <=

    Name: CC-PVTZ
    Role: ORBITAL
    Keyword: BASIS
    atoms 1 entry O          line   262 file /Users/joseantoniorodriguesromero/anaconda3/share/psi4/basis/cc-pvtz.gbs 
    atoms 2 entry N          line   224 file /Users/joseantoniorodriguesromero/anaconda3/share/psi4/basis/cc-pvtz.gbs 

  Reading orbitals from file /tmp/scan_NO_29.default.49458.180.npy, no projection.

  ==> Integral Setup <==

  DFHelper Memory: AOs need 0.005 GiB; user supplied 0.296 GiB. 
  Using in-core AOs.

  ==> MemDFJK: Density-Fitted J/K Matrices <==

    J tasked:                   Yes
    K tasked:                   Yes
    wK tasked:                   No
    OpenMP threads:               1
    Memory [MiB]:               302
    Algorithm:                 Core
    Schwarz Cutoff:           1E-12
    Mask sparsity (%):       0.0000
    Fitting Condition:        1E-10

   => Auxiliary Basis Set <=

  Basis Set: (CC-PVTZ AUX)
    Blend: CC-PVTZ-JKFIT
    Number of shells: 50
    Number of basis functions: 158
    Number of Cartesian functions: 192
    Spherical Harmonics?: true
    Max angular momentum: 4

  Cached 100.0% of DFT collocation blocks in 0.071 [GiB].

  Minimum eigenvalue in the overlap matrix is 4.6522958255E-03.
  Reciprocal condition number of the overlap matrix is 1.2345846855E-03.
    Using symmetric orthogonalization.

  ==> Pre-Iterations <==

  SCF Guess: Orbitals guess was supplied from a previous computation.

   -------------------------------------------------------
    Irrep   Nso     Nmo     Nalpha   Nbeta   Ndocc  Nsocc
   -------------------------------------------------------
     A1        26      26       5       5       5       0
     A2         6       6       0       0       0       0
     B1        14      14       2       1       1       1
     B2        14      14       2       1       1       1
   -------------------------------------------------------
    Total      60      60       9       7       7       2
   -------------------------------------------------------

  ==> Iterations <==

                           Total Energy        Delta E     RMS |[F,P]|

   @DF-UKS iter   0:  -129.93102420782066   -1.29931e+02   4.11233e-11 
   @DF-UKS iter   1:  -129.93102420782043    2.27374e-13   8.98106e-11 DIIS
  Energy and wave function converged.


  ==> Post-Iterations <==

   Electrons on quadrature grid:
      Nalpha   =    9.0000003402 ; deviation = 3.402e-07
      Nbeta    =    7.0000001025 ; deviation = 1.025e-07
      Ntotal   =   16.0000004427 ; deviation = 4.427e-07 

   @Spin Contamination Metric:   8.416610462E-03
   @S^2 Expected:                2.000000000E+00
   @S^2 Observed:                2.008416610E+00
   @S   Expected:                1.000000000E+00
   @S   Observed:                1.000000000E+00

    Orbital Energies [Eh]
    ---------------------

    Alpha Occupied:                                                       

       1A1   -18.839223     2A1   -14.032915     3A1    -0.765549  
       4A1    -0.341439     1B2    -0.115875     1B1    -0.115875  
       5A1    -0.098053     2B1     0.121080     2B2     0.121080  

    Alpha Virtual:                                                        

       6A1     0.494540     3B2     0.727081     3B1     0.727081  
       7A1     0.761787     8A1     0.773402     9A1     0.875246  
       4B1     0.899111     4B2     0.899111     1A2     1.285799  
      10A1     1.285800     5B2     1.422170     5B1     1.422170  
      11A1     1.497711    12A1     1.842915     2A2     1.842916  
      13A1     1.899443     6B2     2.279757     6B1     2.279757  
      14A1     2.471608     7B2     3.172900     7B1     3.172900  
      15A1     3.428262     8B1     3.845470     8B2     3.845470  
       3A2     4.133399    16A1     4.133399     9B2     4.171051  
       9B1     4.171051    17A1     4.365960    10B1     4.400067  
      10B2     4.400067    18A1     4.575131    19A1     4.728585  
       4A2     4.728585    20A1     4.937930    11B2     5.035903  
      11B1     5.035903    12B1     5.427527    12B2     5.427527  
      21A1     5.720687     5A2     5.720687    22A1     6.142893  
      13B1     6.459371    13B2     6.459371    23A1     6.529647  
       6A2     6.529663    24A1     6.963939    14B2     7.079063  
      14B1     7.079063    25A1     7.649161    26A1    11.016403  

    Beta Occupied:                                                        

       1A1   -18.820029     2A1   -14.004448     3A1    -0.722381  
       4A1    -0.267741     5A1    -0.061295     1B2    -0.040476  
       1B1    -0.040476  

    Beta Virtual:                                                         

       2B1     0.288493     2B2     0.288493     6A1     0.514661  
       3B2     0.777616     3B1     0.777616     7A1     0.792623  
       8A1     0.796842     9A1     0.892551     4B2     0.931663  
       4B1     0.931663     1A2     1.339308    10A1     1.339308  
       5B2     1.452806     5B1     1.452806    11A1     1.518215  
      12A1     1.883492     2A2     1.883492    13A1     1.924735  
       6B2     2.309029     6B1     2.309029    14A1     2.493908  
       7B2     3.251948     7B1     3.251948    15A1     3.452821  
       8B1     3.893261     8B2     3.893261     3A2     4.180497  
      16A1     4.180498     9B2     4.256526     9B1     4.256526  
      17A1     4.404123    10B1     4.439503    10B2     4.439503  
      18A1     4.601794    19A1     4.846228     4A2     4.846228  
      20A1     4.976233    11B2     5.088978    11B1     5.088978  
      12B1     5.472870    12B2     5.472870    21A1     5.754280  
       5A2     5.754281    22A1     6.168744    13B1     6.493849  
      13B2     6.493849    23A1     6.598150     6A2     6.598166  
      24A1     6.985522    14B2     7.110577    14B1     7.110577  
      25A1     7.682423    26A1    11.050452  

    Final Occupation by Irrep:
             A1    A2    B1    B2 
    DOCC [     5,    0,    1,    1 ]
    SOCC [     0,    0,    1,    1 ]
    NA   [     5,    0,    2,    2 ]
    NB   [     5,    0,    1,    1 ]

  @DF-UKS Final Energy:  -129.93102420782043

   => Energetics <=

    Nuclear Repulsion Energy =             23.1867540788730366
    One-Electron Energy =                -229.1068894605095352
    Two-Electron Energy =                  88.6588260877383050
    DFT Exchange-Correlation Energy =     -12.6697149139222383
    Empirical Dispersion Energy =           0.0000000000000000
    VV10 Nonlocal Energy =                  0.0000000000000000
    Total Energy =                       -129.9310242078204283

  UHF NO Occupations:
  HONO-2 :    1 B2 1.9986175
  HONO-1 :    2 B1 1.0000000
  HONO-0 :    2 B2 1.0000000
  LUNO+0 :    3 B1 0.0013825
  LUNO+1 :    3 B2 0.0013825
  LUNO+2 :    6 A1 0.0011964
  LUNO+3 :    7 A1 0.0002006


Computation Completed


Properties will be evaluated at   0.000000,   0.000000,   0.000000 [a0]

Properties computed using the B3LYP density matrix


 Multipole Moments:

 ------------------------------------------------------------------------------------
     Multipole            Electronic (a.u.)      Nuclear  (a.u.)        Total (a.u.)
 ------------------------------------------------------------------------------------

 L = 1.  Multiply by 2.5417464519 to convert [e a0] to [Debye]
 Dipole X            :          0.0000000            0.0000000            0.0000000
 Dipole Y            :          0.0000000            0.0000000            0.0000000
 Dipole Z            :         -0.2633407           -0.0048459           -0.2681867
 Magnitude           :                                                    0.2681867

 L = 2.  Multiply by 1.3450342976 to convert [e a0^2] to [Debye ang]
 Quadrupole XX       :         -9.5991090            0.0000000           -9.5991090
 Quadrupole XY       :          0.0000000            0.0000000            0.0000000
 Quadrupole XZ       :          0.0000000            0.0000000            0.0000000
 Quadrupole YY       :         -9.5991090            0.0000000           -9.5991090
 Quadrupole YZ       :          0.0000000            0.0000000            0.0000000
 Quadrupole ZZ       :        -34.0130358           21.7767438          -12.2362920
 Traceless XX        :          8.1379756           -7.2589146            0.8790610
 Traceless YY        :          8.1379756           -7.2589146            0.8790610
 Traceless ZZ        :        -16.2759512           14.5178292           -1.7581220

 ------------------------------------------------------------------------------------
  ==> Computing MBIS Charges <==

  Electron Count from Grid (Expected Number): 16.00000 (16.00000)
  Difference:  0.00000

  MBIS Charges: (a.u.)
   Center  Symbol  Z      Pop.       Charge
      1       O    8    8.454176   -0.454176
      2       N    7    7.545824   -0.545824

  MBIS Dipoles: [e a0]
   Center  Symbol  Z        X           Y           Z
      1       O    8   -0.000000   -0.000000    0.189636
      2       N    7    0.000000   -0.000000   -0.266967

  MBIS Quadrupoles: [e a0^2]
   Center  Symbol  Z      XX        XY        XZ        YY        YZ        ZZ
      1       O    8   -4.3807   -0.0000   -0.0000   -4.3807    0.0000   -4.4123
      2       N    7   -5.2184    0.0000    0.0000   -5.2184    0.0000   -5.2264

  MBIS Octupoles: [e a0^3]
   Center  Symbol  Z      XXX       XXY       XXZ       XYY       XYZ       XZZ       YYY       YYZ       YZZ       ZZZ
      1       O    8   -0.0000   -0.0000    0.2449   -0.0000    0.0000    0.0000   -0.0000    0.2449   -0.0000    0.1521
      2       N    7    0.0000   -0.0000   -0.3479   -0.0000   -0.0000    0.0000   -0.0000   -0.3479    0.0000    0.1337

  MBIS Radial Moments:
   Center  Symbol  Z      [a0^2]      [a0^3]      [a0^4]      
      1       O    8   13.173747   26.053238   61.607576
      2       N    7   15.663147   35.889735   97.317958

  MBIS Valence Widths: [a0]
   Center  Symbol  Z     Width
      1       O    8    0.402505
      2       N    7    0.474279

*** tstop() called on Mac.lan at Sun Aug 10 17:46:49 2025
Module time:
	user time   =       3.63 seconds =       0.06 minutes
	system time =       1.90 seconds =       0.03 minutes
	total time  =          0 seconds =       0.00 minutes
Total time:
	user time   =      17.84 seconds =       0.30 minutes
	system time =       4.68 seconds =       0.08 minutes
	total time  =          2 seconds =       0.03 minutes

    Psi4 stopped on: Sunday, 10 August 2025 05:46PM
    Psi4 wall time for execution: 0:00:02.18

*** Psi4 exiting successfully. Buy a developer a beer!
