
    -----------------------------------------------------------------------
          Psi4: An Open-Source Ab Initio Electronic Structure Package
                               Psi4 1.9.1 release

                         Git: Rev {} zzzzzzz 


    D. G. A. Smith, L. A. Burns, A. C. Simmonett, R. M. Parrish,
    M. C. Schieber, R. Galvelis, P. Kraus, H. Kruse, R. Di Remigio,
    A. Alenaizan, A. M. James, S. Lehtola, J. P. Misiewicz, M. Scheurer,
    R. A. Shaw, J. B. Schriber, Y. Xie, Z. L. Glick, D. A. Sirianni,
    J. S. O'Brien, J. M. Waldrop, A. Kumar, E. G. Hohenstein,
    B. P. Pritchard, B. R. Brooks, H. F. Schaefer III, A. Yu. Sokolov,
    K. Patkowski, A. E. DePrince III, U. Bozkaya, R. A. King,
    F. A. Evangelista, J. M. Turney, T. D. Crawford, C. D. Sherrill,
    J. Chem. Phys. 152(18) 184108 (2020). https://doi.org/10.1063/5.0006002

                            Additional Code Authors
    E. T. Seidl, C. L. Janssen, E. F. Valeev, M. L. Leininger,
    J. F. Gonthier, R. M. Richard, H. R. McAlexander, M. Saitow, X. Wang,
    P. Verma, M. H. Lechner, A. Jiang, S. Behnle, A. G. Heide,
    M. F. Herbst, and D. L. Poole

             Previous Authors, Complete List of Code Contributors,
                       and Citations for Specific Modules
    https://github.com/psi4/psi4/blob/master/codemeta.json
    https://github.com/psi4/psi4/graphs/contributors
    http://psicode.org/psi4manual/master/introduction.html#citing-psifour

    -----------------------------------------------------------------------


    Psi4 started on: Sunday, 10 August 2025 05:46PM

    Process ID: 49456
    Host:       Mac.lan
    PSIDATADIR: /Users/joseantoniorodriguesromero/anaconda3/share/psi4
    Memory:     500.0 MiB
    Threads:    1
    
  ==> Input File <==

--------------------------------------------------------------------------
molecule { 
-1 3
O           0.000000           0.000000           0.000000
N           0.000000           0.000000           1.218489
}

set { 
basis              cc-pvtz
reference          uks
maxiter            500
DAMPING_PERCENTAGE 1
E_CONVERGENCE      1.0E-8
D_CONVERGENCE      1.0E-8
DIIS_MAX_VECS      400
MBIS_MAXITER       8000
guess              read
}

E, wfn = energy('b3lyp', restart_file='last_wfn', return_wfn=True)
properties('b3lyp','MBIS_CHARGES', wfn=wfn)
wfn.to_file('last_wfn')
--------------------------------------------------------------------------

Scratch directory: /tmp/
 Found user provided orbital data. Setting orbital guess to READ 
 Copying restart file <last_wfn.npy> to </tmp/scan_NO_27.default.49456.180.npy> for internal processing
   => Libint2 <=

    Primary   basis highest AM E, G, H:  6, 6, 3
    Auxiliary basis highest AM E, G, H:  7, 7, 4
    Onebody   basis highest AM E, G, H:  -, -, -
    Solid Harmonics ordering:            Gaussian

*** tstart() called on Mac.lan
*** at Sun Aug 10 17:46:42 2025

   => Loading Basis Set <=

    Name: CC-PVTZ
    Role: ORBITAL
    Keyword: BASIS
    atoms 1 entry O          line   262 file /Users/joseantoniorodriguesromero/anaconda3/share/psi4/basis/cc-pvtz.gbs 
    atoms 2 entry N          line   224 file /Users/joseantoniorodriguesromero/anaconda3/share/psi4/basis/cc-pvtz.gbs 


         ---------------------------------------------------------
                                   SCF
               by Justin Turney, Rob Parrish, Andy Simmonett
                          and Daniel G. A. Smith
                              UKS Reference
                        1 Threads,    500 MiB Core
         ---------------------------------------------------------

  ==> Geometry <==

    Molecular point group: c2v
    Full point group: C_inf_v

    Geometry (in Angstrom), charge = -1, multiplicity = 3:

       Center              X                  Y                   Z               Mass       
    ------------   -----------------  -----------------  -----------------  -----------------
         O            0.000000000000     0.000000000000    -0.568791189784    15.994914619570
         N            0.000000000000     0.000000000000     0.649697810216    14.003074004430

  Running in c2v symmetry.

  Rotational constants: A = ************  B =      1.52069  C =      1.52069 [cm^-1]
  Rotational constants: A = ************  B =  45589.07699  C =  45589.07699 [MHz]
  Nuclear repulsion =   24.320222667188627

  Charge       = -1
  Multiplicity = 3
  Electrons    = 16
  Nalpha       = 9
  Nbeta        = 7

  ==> Algorithm <==

  SCF Algorithm Type is DF.
  DIIS enabled.
  MOM disabled.
  Fractional occupation disabled.
  Guess Type is READ.
  Energy threshold   = 1.00e-08
  Density threshold  = 1.00e-08
  Integral threshold = 1.00e-12

  ==> Primary Basis <==

  Basis Set: CC-PVTZ
    Blend: CC-PVTZ
    Number of shells: 20
    Number of basis functions: 60
    Number of Cartesian functions: 70
    Spherical Harmonics?: true
    Max angular momentum: 3

  ==> DFT Potential <==

   => LibXC <=

    Version 6.2.2
    S. Lehtola, C. Steigemann, M. J.T. Oliveira, and M. A.L. Marques.,  SoftwareX 7, 1–5 (2018) (10.1016/j.softx.2017.11.002)

   => Composite Functional: B3LYP <= 

    B3LYP Hyb-GGA Exchange-Correlation Functional

    P. J. Stephens, F. J. Devlin, C. F. Chabalowski, and M. J. Frisch.,  J. Phys. Chem. 98, 11623 (1994) (10.1021/j100096a001)

    Deriv               =              1
    GGA                 =           TRUE
    Meta                =          FALSE

    Exchange Hybrid     =           TRUE
    MP2 Hybrid          =          FALSE

   => Exchange Functionals <=

    0.0800   Slater exchange
    0.7200         Becke 88

   => Exact (HF) Exchange <=

    0.2000               HF 

   => Correlation Functionals <=

    0.1900   Vosko, Wilk & Nusair (VWN5_RPA)
    0.8100   Lee, Yang & Parr

   => LibXC Density Thresholds  <==

    XC_HYB_GGA_XC_B3LYP:  1.00E-15 

   => Molecular Quadrature <=

    Radial Scheme          =       TREUTLER
    Pruning Scheme         =           NONE
    Nuclear Scheme         =       TREUTLER

    Blocking Scheme        =         OCTREE
    BS radius alpha        =              1
    Pruning alpha          =              1
    Radial Points          =             75
    Spherical Points       =            302
    Total Points           =          42716
    Total Blocks           =            380
    Max Points             =            256
    Max Functions          =             60
    Weights Tolerance      =       1.00E-15

   => Loading Basis Set <=

    Name: (CC-PVTZ AUX)
    Role: JKFIT
    Keyword: DF_BASIS_SCF
    atoms 1 entry O          line   229 file /Users/joseantoniorodriguesromero/anaconda3/share/psi4/basis/cc-pvtz-jkfit.gbs 
    atoms 2 entry N          line   177 file /Users/joseantoniorodriguesromero/anaconda3/share/psi4/basis/cc-pvtz-jkfit.gbs 

   => Loading Basis Set <=

    Name: CC-PVTZ
    Role: ORBITAL
    Keyword: BASIS
    atoms 1 entry O          line   262 file /Users/joseantoniorodriguesromero/anaconda3/share/psi4/basis/cc-pvtz.gbs 
    atoms 2 entry N          line   224 file /Users/joseantoniorodriguesromero/anaconda3/share/psi4/basis/cc-pvtz.gbs 

  Reading orbitals from file /tmp/scan_NO_27.default.49456.180.npy, no projection.

  ==> Integral Setup <==

  DFHelper Memory: AOs need 0.005 GiB; user supplied 0.295 GiB. 
  Using in-core AOs.

  ==> MemDFJK: Density-Fitted J/K Matrices <==

    J tasked:                   Yes
    K tasked:                   Yes
    wK tasked:                   No
    OpenMP threads:               1
    Memory [MiB]:               302
    Algorithm:                 Core
    Schwarz Cutoff:           1E-12
    Mask sparsity (%):       0.0000
    Fitting Condition:        1E-10

   => Auxiliary Basis Set <=

  Basis Set: (CC-PVTZ AUX)
    Blend: CC-PVTZ-JKFIT
    Number of shells: 50
    Number of basis functions: 158
    Number of Cartesian functions: 192
    Spherical Harmonics?: true
    Max angular momentum: 4

  Cached 100.0% of DFT collocation blocks in 0.071 [GiB].

  Minimum eigenvalue in the overlap matrix is 3.7595433215E-03.
  Reciprocal condition number of the overlap matrix is 9.7967345979E-04.
    Using symmetric orthogonalization.

  ==> Pre-Iterations <==

  SCF Guess: Orbitals guess was supplied from a previous computation.

   -------------------------------------------------------
    Irrep   Nso     Nmo     Nalpha   Nbeta   Ndocc  Nsocc
   -------------------------------------------------------
     A1        26      26       5       5       5       0
     A2         6       6       0       0       0       0
     B1        14      14       2       1       1       1
     B2        14      14       2       1       1       1
   -------------------------------------------------------
    Total      60      60       9       7       7       2
   -------------------------------------------------------

  ==> Iterations <==

                           Total Energy        Delta E     RMS |[F,P]|

   @DF-UKS iter   0:  -129.90423308929223   -1.29904e+02   3.57793e-03 
   @DF-UKS iter   1:  -129.92774121857369   -2.35081e-02   9.36172e-04 ADIIS/DIIS
   @DF-UKS iter   2:  -129.92663693692592    1.10428e-03   1.97074e-03 ADIIS/DIIS/DAMP=1%
   @DF-UKS iter   3:  -129.92748904296332   -8.52106e-04   1.28895e-04 ADIIS/DIIS/DAMP=1%
   @DF-UKS iter   4:  -129.92807032554330   -5.81283e-04   3.06847e-05 DIIS/DAMP=1%
   @DF-UKS iter   5:  -129.92814703383092   -7.67083e-05   7.00659e-06 DIIS/DAMP=1%
   @DF-UKS iter   6:  -129.92811494295282    3.20909e-05   2.28501e-06 DIIS/DAMP=1%
   @DF-UKS iter   7:  -129.92812484392667   -9.90097e-06   4.05545e-07 DIIS/DAMP=1%
   @DF-UKS iter   8:  -129.92812397953750    8.64389e-07   4.00266e-08 DIIS/DAMP=1%
   @DF-UKS iter   9:  -129.92812384675844    1.32779e-07   9.30218e-09 DIIS/DAMP=1%
   @DF-UKS iter  10:  -129.92812387565522   -2.88968e-08   6.33746e-10 DIIS/DAMP=1%
   @DF-UKS iter  11:  -129.92812387248659    3.16862e-09   1.41519e-10 DIIS/DAMP=1%
  Energy and wave function converged.


  ==> Post-Iterations <==

   Electrons on quadrature grid:
      Nalpha   =    9.0000005102 ; deviation = 5.102e-07
      Nbeta    =    7.0000002657 ; deviation = 2.657e-07
      Ntotal   =   16.0000007759 ; deviation = 7.759e-07 

   @Spin Contamination Metric:   7.685061049E-03
   @S^2 Expected:                2.000000000E+00
   @S^2 Observed:                2.007685061E+00
   @S   Expected:                1.000000000E+00
   @S   Observed:                1.000000000E+00

    Orbital Energies [Eh]
    ---------------------

    Alpha Occupied:                                                       

       1A1   -18.836582     2A1   -14.019176     3A1    -0.800279  
       4A1    -0.328727     1B1    -0.130972     1B2    -0.130972  
       5A1    -0.102118     2B2     0.140570     2B1     0.140570  

    Alpha Virtual:                                                        

       6A1     0.512327     3B1     0.726012     3B2     0.726012  
       7A1     0.759749     8A1     0.815184     9A1     0.882294  
       4B2     0.898680     4B1     0.898680     1A2     1.283271  
      10A1     1.283272     5B2     1.451388     5B1     1.451388  
      11A1     1.498954    12A1     1.856240     2A2     1.856241  
      13A1     1.932954     6B1     2.312726     6B2     2.312726  
      14A1     2.511443     7B2     3.188575     7B1     3.188575  
      15A1     3.438386     8B1     3.872696     8B2     3.872696  
       3A2     4.137334    16A1     4.137334     9B2     4.170913  
       9B1     4.170913    17A1     4.399074    10B1     4.421493  
      10B2     4.421493    18A1     4.539796     4A2     4.740536  
      19A1     4.740538    20A1     5.017720    11B1     5.076215  
      11B2     5.076215    12B1     5.428582    12B2     5.428582  
       5A2     5.806538    21A1     5.806539    22A1     6.382531  
      23A1     6.535415     6A2     6.535433    13B2     6.620608  
      13B1     6.620608    24A1     7.117838    14B2     7.160035  
      14B1     7.160035    25A1     7.573913    26A1    12.112999  

    Beta Occupied:                                                        

       1A1   -18.816900     2A1   -13.991521     3A1    -0.758466  
       4A1    -0.258290     5A1    -0.061960     1B1    -0.056033  
       1B2    -0.056033  

    Beta Virtual:                                                         

       2B2     0.306802     2B1     0.306802     6A1     0.527717  
       3B1     0.774160     3B2     0.774160     7A1     0.786284  
       8A1     0.844245     9A1     0.903876     4B2     0.933226  
       4B1     0.933226    10A1     1.334650     1A2     1.334650  
       5B2     1.483062     5B1     1.483062    11A1     1.518935  
       2A2     1.898836    12A1     1.898836    13A1     1.958701  
       6B1     2.342965     6B2     2.342965    14A1     2.534716  
       7B2     3.265664     7B1     3.265664    15A1     3.463937  
       8B1     3.921872     8B2     3.921872     3A2     4.181546  
      16A1     4.181547     9B2     4.253716     9B1     4.253716  
      17A1     4.436095    10B1     4.460429    10B2     4.460429  
      18A1     4.569692     4A2     4.855136    19A1     4.855139  
      20A1     5.050994    11B1     5.125313    11B2     5.125313  
      12B1     5.475084    12B2     5.475084     5A2     5.841632  
      21A1     5.841632    22A1     6.407574    23A1     6.605254  
       6A2     6.605272    13B2     6.658117    13B1     6.658117  
      24A1     7.142439    14B2     7.190950    14B1     7.190950  
      25A1     7.605948    26A1    12.147749  

    Final Occupation by Irrep:
             A1    A2    B1    B2 
    DOCC [     5,    0,    1,    1 ]
    SOCC [     0,    0,    1,    1 ]
    NA   [     5,    0,    2,    2 ]
    NB   [     5,    0,    1,    1 ]

  @DF-UKS Final Energy:  -129.92812387248659

   => Energetics <=

    Nuclear Repulsion Energy =             24.3202226671886272
    One-Electron Energy =                -231.3012031191848337
    Two-Electron Energy =                  89.7576652291228925
    DFT Exchange-Correlation Energy =     -12.7048086496132804
    Empirical Dispersion Energy =           0.0000000000000000
    VV10 Nonlocal Energy =                  0.0000000000000000
    Total Energy =                       -129.9281238724865943

  UHF NO Occupations:
  HONO-2 :    1 B1 1.9987524
  HONO-1 :    2 B2 1.0000000
  HONO-0 :    2 B1 1.0000000
  LUNO+0 :    3 B1 0.0012476
  LUNO+1 :    3 B2 0.0012476
  LUNO+2 :    6 A1 0.0011102
  LUNO+3 :    7 A1 0.0002003


Computation Completed


Properties will be evaluated at   0.000000,   0.000000,   0.000000 [a0]

Properties computed using the SCF density matrix


 Multipole Moments:

 ------------------------------------------------------------------------------------
     Multipole            Electronic (a.u.)      Nuclear  (a.u.)        Total (a.u.)
 ------------------------------------------------------------------------------------

 L = 1.  Multiply by 2.5417464519 to convert [e a0] to [Debye]
 Dipole X            :          0.0000000            0.0000000            0.0000000
 Dipole Y            :          0.0000000            0.0000000            0.0000000
 Dipole Z            :         -0.3294416           -0.0046201           -0.3340617
 Magnitude           :                                                    0.3340617

 ------------------------------------------------------------------------------------

*** tstop() called on Mac.lan at Sun Aug 10 17:46:43 2025
Module time:
	user time   =      14.65 seconds =       0.24 minutes
	system time =       2.22 seconds =       0.04 minutes
	total time  =          1 seconds =       0.02 minutes
Total time:
	user time   =      14.65 seconds =       0.24 minutes
	system time =       2.22 seconds =       0.04 minutes
	total time  =          1 seconds =       0.02 minutes

*** tstart() called on Mac.lan
*** at Sun Aug 10 17:46:44 2025

   => Libint2 <=

    Primary   basis highest AM E, G, H:  6, 6, 3
    Auxiliary basis highest AM E, G, H:  7, 7, 4
    Onebody   basis highest AM E, G, H:  -, -, -
    Solid Harmonics ordering:            Gaussian
   => Loading Basis Set <=

    Name: CC-PVTZ
    Role: ORBITAL
    Keyword: BASIS
    atoms 1 entry O          line   262 file /Users/joseantoniorodriguesromero/anaconda3/share/psi4/basis/cc-pvtz.gbs 
    atoms 2 entry N          line   224 file /Users/joseantoniorodriguesromero/anaconda3/share/psi4/basis/cc-pvtz.gbs 


         ---------------------------------------------------------
                                   SCF
               by Justin Turney, Rob Parrish, Andy Simmonett
                          and Daniel G. A. Smith
                              UKS Reference
                        1 Threads,    500 MiB Core
         ---------------------------------------------------------

  ==> Geometry <==

    Molecular point group: c2v
    Full point group: C_inf_v

    Geometry (in Angstrom), charge = -1, multiplicity = 3:

       Center              X                  Y                   Z               Mass       
    ------------   -----------------  -----------------  -----------------  -----------------
         O            0.000000000000     0.000000000000    -0.568791189784    15.994914619570
         N            0.000000000000     0.000000000000     0.649697810216    14.003074004430

  Running in c2v symmetry.

  Rotational constants: A = ************  B =      1.52069  C =      1.52069 [cm^-1]
  Rotational constants: A = ************  B =  45589.07699  C =  45589.07699 [MHz]
  Nuclear repulsion =   24.320222667188627

  Charge       = -1
  Multiplicity = 3
  Electrons    = 16
  Nalpha       = 9
  Nbeta        = 7

  ==> Algorithm <==

  SCF Algorithm Type is DF.
  DIIS enabled.
  MOM disabled.
  Fractional occupation disabled.
  Guess Type is READ.
  Energy threshold   = 1.00e-08
  Density threshold  = 1.00e-08
  Integral threshold = 1.00e-12

  ==> Primary Basis <==

  Basis Set: CC-PVTZ
    Blend: CC-PVTZ
    Number of shells: 20
    Number of basis functions: 60
    Number of Cartesian functions: 70
    Spherical Harmonics?: true
    Max angular momentum: 3

  ==> DFT Potential <==

   => LibXC <=

    Version 6.2.2
    S. Lehtola, C. Steigemann, M. J.T. Oliveira, and M. A.L. Marques.,  SoftwareX 7, 1–5 (2018) (10.1016/j.softx.2017.11.002)

   => Composite Functional: B3LYP <= 

    B3LYP Hyb-GGA Exchange-Correlation Functional

    P. J. Stephens, F. J. Devlin, C. F. Chabalowski, and M. J. Frisch.,  J. Phys. Chem. 98, 11623 (1994) (10.1021/j100096a001)

    Deriv               =              1
    GGA                 =           TRUE
    Meta                =          FALSE

    Exchange Hybrid     =           TRUE
    MP2 Hybrid          =          FALSE

   => Exchange Functionals <=

    0.0800   Slater exchange
    0.7200         Becke 88

   => Exact (HF) Exchange <=

    0.2000               HF 

   => Correlation Functionals <=

    0.1900   Vosko, Wilk & Nusair (VWN5_RPA)
    0.8100   Lee, Yang & Parr

   => LibXC Density Thresholds  <==

    XC_HYB_GGA_XC_B3LYP:  1.00E-15 

   => Molecular Quadrature <=

    Radial Scheme          =       TREUTLER
    Pruning Scheme         =           NONE
    Nuclear Scheme         =       TREUTLER

    Blocking Scheme        =         OCTREE
    BS radius alpha        =              1
    Pruning alpha          =              1
    Radial Points          =             75
    Spherical Points       =            302
    Total Points           =          42716
    Total Blocks           =            380
    Max Points             =            256
    Max Functions          =             60
    Weights Tolerance      =       1.00E-15

   => Loading Basis Set <=

    Name: (CC-PVTZ AUX)
    Role: JKFIT
    Keyword: DF_BASIS_SCF
    atoms 1 entry O          line   229 file /Users/joseantoniorodriguesromero/anaconda3/share/psi4/basis/cc-pvtz-jkfit.gbs 
    atoms 2 entry N          line   177 file /Users/joseantoniorodriguesromero/anaconda3/share/psi4/basis/cc-pvtz-jkfit.gbs 

   => Loading Basis Set <=

    Name: CC-PVTZ
    Role: ORBITAL
    Keyword: BASIS
    atoms 1 entry O          line   262 file /Users/joseantoniorodriguesromero/anaconda3/share/psi4/basis/cc-pvtz.gbs 
    atoms 2 entry N          line   224 file /Users/joseantoniorodriguesromero/anaconda3/share/psi4/basis/cc-pvtz.gbs 

  Reading orbitals from file /tmp/scan_NO_27.default.49456.180.npy, no projection.

  ==> Integral Setup <==

  DFHelper Memory: AOs need 0.005 GiB; user supplied 0.295 GiB. 
  Using in-core AOs.

  ==> MemDFJK: Density-Fitted J/K Matrices <==

    J tasked:                   Yes
    K tasked:                   Yes
    wK tasked:                   No
    OpenMP threads:               1
    Memory [MiB]:               302
    Algorithm:                 Core
    Schwarz Cutoff:           1E-12
    Mask sparsity (%):       0.0000
    Fitting Condition:        1E-10

   => Auxiliary Basis Set <=

  Basis Set: (CC-PVTZ AUX)
    Blend: CC-PVTZ-JKFIT
    Number of shells: 50
    Number of basis functions: 158
    Number of Cartesian functions: 192
    Spherical Harmonics?: true
    Max angular momentum: 4

  Cached 100.0% of DFT collocation blocks in 0.071 [GiB].

  Minimum eigenvalue in the overlap matrix is 3.7595433215E-03.
  Reciprocal condition number of the overlap matrix is 9.7967345979E-04.
    Using symmetric orthogonalization.

  ==> Pre-Iterations <==

  SCF Guess: Orbitals guess was supplied from a previous computation.

   -------------------------------------------------------
    Irrep   Nso     Nmo     Nalpha   Nbeta   Ndocc  Nsocc
   -------------------------------------------------------
     A1        26      26       5       5       5       0
     A2         6       6       0       0       0       0
     B1        14      14       2       1       1       1
     B2        14      14       2       1       1       1
   -------------------------------------------------------
    Total      60      60       9       7       7       2
   -------------------------------------------------------

  ==> Iterations <==

                           Total Energy        Delta E     RMS |[F,P]|

   @DF-UKS iter   0:  -129.92812387244695   -1.29928e+02   1.10774e-11 
   @DF-UKS iter   1:  -129.92812387244695    0.00000e+00   2.19017e-11 DIIS
  Energy and wave function converged.


  ==> Post-Iterations <==

   Electrons on quadrature grid:
      Nalpha   =    9.0000005102 ; deviation = 5.102e-07
      Nbeta    =    7.0000002657 ; deviation = 2.657e-07
      Ntotal   =   16.0000007759 ; deviation = 7.759e-07 

   @Spin Contamination Metric:   7.685061060E-03
   @S^2 Expected:                2.000000000E+00
   @S^2 Observed:                2.007685061E+00
   @S   Expected:                1.000000000E+00
   @S   Observed:                1.000000000E+00

    Orbital Energies [Eh]
    ---------------------

    Alpha Occupied:                                                       

       1A1   -18.836582     2A1   -14.019176     3A1    -0.800279  
       4A1    -0.328727     1B1    -0.130972     1B2    -0.130972  
       5A1    -0.102118     2B2     0.140570     2B1     0.140570  

    Alpha Virtual:                                                        

       6A1     0.512327     3B1     0.726012     3B2     0.726012  
       7A1     0.759749     8A1     0.815184     9A1     0.882294  
       4B2     0.898680     4B1     0.898680     1A2     1.283271  
      10A1     1.283272     5B2     1.451388     5B1     1.451388  
      11A1     1.498954    12A1     1.856240     2A2     1.856241  
      13A1     1.932954     6B1     2.312726     6B2     2.312726  
      14A1     2.511443     7B2     3.188575     7B1     3.188575  
      15A1     3.438386     8B1     3.872696     8B2     3.872696  
       3A2     4.137334    16A1     4.137334     9B2     4.170913  
       9B1     4.170913    17A1     4.399074    10B1     4.421493  
      10B2     4.421493    18A1     4.539796     4A2     4.740536  
      19A1     4.740538    20A1     5.017720    11B1     5.076215  
      11B2     5.076215    12B1     5.428582    12B2     5.428582  
       5A2     5.806538    21A1     5.806539    22A1     6.382531  
      23A1     6.535415     6A2     6.535433    13B2     6.620608  
      13B1     6.620608    24A1     7.117838    14B2     7.160035  
      14B1     7.160035    25A1     7.573913    26A1    12.112999  

    Beta Occupied:                                                        

       1A1   -18.816900     2A1   -13.991521     3A1    -0.758466  
       4A1    -0.258290     5A1    -0.061960     1B1    -0.056033  
       1B2    -0.056033  

    Beta Virtual:                                                         

       2B2     0.306802     2B1     0.306802     6A1     0.527717  
       3B1     0.774160     3B2     0.774160     7A1     0.786284  
       8A1     0.844245     9A1     0.903876     4B2     0.933226  
       4B1     0.933226    10A1     1.334650     1A2     1.334650  
       5B2     1.483062     5B1     1.483062    11A1     1.518935  
       2A2     1.898836    12A1     1.898836    13A1     1.958701  
       6B1     2.342965     6B2     2.342965    14A1     2.534716  
       7B2     3.265664     7B1     3.265664    15A1     3.463937  
       8B1     3.921872     8B2     3.921872     3A2     4.181546  
      16A1     4.181547     9B2     4.253716     9B1     4.253716  
      17A1     4.436095    10B1     4.460429    10B2     4.460429  
      18A1     4.569692     4A2     4.855136    19A1     4.855139  
      20A1     5.050994    11B1     5.125313    11B2     5.125313  
      12B1     5.475084    12B2     5.475084     5A2     5.841632  
      21A1     5.841632    22A1     6.407574    23A1     6.605254  
       6A2     6.605272    13B2     6.658117    13B1     6.658117  
      24A1     7.142439    14B2     7.190950    14B1     7.190950  
      25A1     7.605948    26A1    12.147749  

    Final Occupation by Irrep:
             A1    A2    B1    B2 
    DOCC [     5,    0,    1,    1 ]
    SOCC [     0,    0,    1,    1 ]
    NA   [     5,    0,    2,    2 ]
    NB   [     5,    0,    1,    1 ]

  @DF-UKS Final Energy:  -129.92812387244695

   => Energetics <=

    Nuclear Repulsion Energy =             24.3202226671886272
    One-Electron Energy =                -231.3012031159840376
    Two-Electron Energy =                  89.7576652255741294
    DFT Exchange-Correlation Energy =     -12.7048086492256793
    Empirical Dispersion Energy =           0.0000000000000000
    VV10 Nonlocal Energy =                  0.0000000000000000
    Total Energy =                       -129.9281238724469461

  UHF NO Occupations:
  HONO-2 :    1 B1 1.9987524
  HONO-1 :    2 B2 1.0000000
  HONO-0 :    2 B1 1.0000000
  LUNO+0 :    3 B1 0.0012476
  LUNO+1 :    3 B2 0.0012476
  LUNO+2 :    6 A1 0.0011102
  LUNO+3 :    7 A1 0.0002003


Computation Completed


Properties will be evaluated at   0.000000,   0.000000,   0.000000 [a0]

Properties computed using the B3LYP density matrix


 Multipole Moments:

 ------------------------------------------------------------------------------------
     Multipole            Electronic (a.u.)      Nuclear  (a.u.)        Total (a.u.)
 ------------------------------------------------------------------------------------

 L = 1.  Multiply by 2.5417464519 to convert [e a0] to [Debye]
 Dipole X            :          0.0000000            0.0000000            0.0000000
 Dipole Y            :          0.0000000            0.0000000            0.0000000
 Dipole Z            :         -0.3294416           -0.0046201           -0.3340617
 Magnitude           :                                                    0.3340617

 L = 2.  Multiply by 1.3450342976 to convert [e a0^2] to [Debye ang]
 Quadrupole XX       :         -9.5426707            0.0000000           -9.5426707
 Quadrupole XY       :          0.0000000            0.0000000            0.0000000
 Quadrupole XZ       :          0.0000000            0.0000000            0.0000000
 Quadrupole YY       :         -9.5426707            0.0000000           -9.5426707
 Quadrupole YZ       :          0.0000000            0.0000000            0.0000000
 Quadrupole ZZ       :        -31.9937562           19.7941911          -12.1995651
 Traceless XX        :          7.4836952           -6.5980637            0.8856315
 Traceless YY        :          7.4836952           -6.5980637            0.8856315
 Traceless ZZ        :        -14.9673903           13.1961274           -1.7712629

 ------------------------------------------------------------------------------------
  ==> Computing MBIS Charges <==

  Electron Count from Grid (Expected Number): 16.00000 (16.00000)
  Difference:  0.00000

  MBIS Charges: (a.u.)
   Center  Symbol  Z      Pop.       Charge
      1       O    8    8.420980   -0.420980
      2       N    7    7.579021   -0.579021

  MBIS Dipoles: [e a0]
   Center  Symbol  Z        X           Y           Z
      1       O    8   -0.000000   -0.000000    0.208798
      2       N    7   -0.000000   -0.000000   -0.284459

  MBIS Quadrupoles: [e a0^2]
   Center  Symbol  Z      XX        XY        XZ        YY        YZ        ZZ
      1       O    8   -4.2867    0.0000   -0.0000   -4.2867    0.0000   -4.3907
      2       N    7   -5.2559    0.0000    0.0000   -5.2559   -0.0000   -5.3024

  MBIS Octupoles: [e a0^3]
   Center  Symbol  Z      XXX       XXY       XXZ       XYY       XYZ       XZZ       YYY       YYZ       YZZ       ZZZ
      1       O    8   -0.0000   -0.0000    0.2778   -0.0000    0.0000   -0.0000   -0.0000    0.2778    0.0000    0.2235
      2       N    7   -0.0000   -0.0000   -0.4183   -0.0000   -0.0000   -0.0000   -0.0000   -0.4183   -0.0000    0.1075

  MBIS Radial Moments:
   Center  Symbol  Z      [a0^2]      [a0^3]      [a0^4]      
      1       O    8   12.964110   25.510729   60.085096
      2       N    7   15.814284   36.345597   98.851732

  MBIS Valence Widths: [a0]
   Center  Symbol  Z     Width
      1       O    8    0.400078
      2       N    7    0.475076

*** tstop() called on Mac.lan at Sun Aug 10 17:46:44 2025
Module time:
	user time   =       3.63 seconds =       0.06 minutes
	system time =       2.33 seconds =       0.04 minutes
	total time  =          0 seconds =       0.00 minutes
Total time:
	user time   =      18.36 seconds =       0.31 minutes
	system time =       4.65 seconds =       0.08 minutes
	total time  =          2 seconds =       0.03 minutes

    Psi4 stopped on: Sunday, 10 August 2025 05:46PM
    Psi4 wall time for execution: 0:00:02.23

*** Psi4 exiting successfully. Buy a developer a beer!
