
    -----------------------------------------------------------------------
          Psi4: An Open-Source Ab Initio Electronic Structure Package
                               Psi4 1.9.1 release

                         Git: Rev {} zzzzzzz 


    D. G. A. Smith, L. A. Burns, A. C. Simmonett, R. M. Parrish,
    M. C. Schieber, R. Galvelis, P. Kraus, H. Kruse, R. Di Remigio,
    A. Alenaizan, A. M. James, S. Lehtola, J. P. Misiewicz, M. Scheurer,
    R. A. Shaw, J. B. Schriber, Y. Xie, Z. L. Glick, D. A. Sirianni,
    J. S. O'Brien, J. M. Waldrop, A. Kumar, E. G. Hohenstein,
    B. P. Pritchard, B. R. Brooks, H. F. Schaefer III, A. Yu. Sokolov,
    K. Patkowski, A. E. DePrince III, U. Bozkaya, R. A. King,
    F. A. Evangelista, J. M. Turney, T. D. Crawford, C. D. Sherrill,
    J. Chem. Phys. 152(18) 184108 (2020). https://doi.org/10.1063/5.0006002

                            Additional Code Authors
    E. T. Seidl, C. L. Janssen, E. F. Valeev, M. L. Leininger,
    J. F. Gonthier, R. M. Richard, H. R. McAlexander, M. Saitow, X. Wang,
    P. Verma, M. H. Lechner, A. Jiang, S. Behnle, A. G. Heide,
    M. F. Herbst, and D. L. Poole

             Previous Authors, Complete List of Code Contributors,
                       and Citations for Specific Modules
    https://github.com/psi4/psi4/blob/master/codemeta.json
    https://github.com/psi4/psi4/graphs/contributors
    http://psicode.org/psi4manual/master/introduction.html#citing-psifour

    -----------------------------------------------------------------------


    Psi4 started on: Sunday, 10 August 2025 05:42PM

    Process ID: 49327
    Host:       Mac.lan
    PSIDATADIR: /Users/joseantoniorodriguesromero/anaconda3/share/psi4
    Memory:     500.0 MiB
    Threads:    1
    
  ==> Input File <==

--------------------------------------------------------------------------
molecule { 
-1 2
O           0.000000           0.000000           0.000000
C           0.000000           0.000000           0.571353
}

set { 
basis              cc-pvtz
reference          uks
maxiter            500
DAMPING_PERCENTAGE 1
E_CONVERGENCE      1.0E-8
D_CONVERGENCE      1.0E-8
DIIS_MAX_VECS      400
MBIS_MAXITER       8000
guess              read
}

E, wfn = energy('b3lyp', restart_file='last_wfn', return_wfn=True)
properties('b3lyp','MBIS_CHARGES', wfn=wfn)
wfn.to_file('last_wfn')
--------------------------------------------------------------------------

Scratch directory: /tmp/
 Found user provided orbital data. Setting orbital guess to READ 
 Copying restart file <last_wfn.npy> to </tmp/scan_CO_6.default.49327.180.npy> for internal processing
   => Libint2 <=

    Primary   basis highest AM E, G, H:  6, 6, 3
    Auxiliary basis highest AM E, G, H:  7, 7, 4
    Onebody   basis highest AM E, G, H:  -, -, -
    Solid Harmonics ordering:            Gaussian

*** tstart() called on Mac.lan
*** at Sun Aug 10 17:42:32 2025

   => Loading Basis Set <=

    Name: CC-PVTZ
    Role: ORBITAL
    Keyword: BASIS
    atoms 1 entry O          line   262 file /Users/joseantoniorodriguesromero/anaconda3/share/psi4/basis/cc-pvtz.gbs 
    atoms 2 entry C          line   186 file /Users/joseantoniorodriguesromero/anaconda3/share/psi4/basis/cc-pvtz.gbs 


         ---------------------------------------------------------
                                   SCF
               by Justin Turney, Rob Parrish, Andy Simmonett
                          and Daniel G. A. Smith
                              UKS Reference
                        1 Threads,    500 MiB Core
         ---------------------------------------------------------

  ==> Geometry <==

    Molecular point group: c2v
    Full point group: C_inf_v

    Geometry (in Angstrom), charge = -1, multiplicity = 2:

       Center              X                  Y                   Z               Mass       
    ------------   -----------------  -----------------  -----------------  -----------------
         O            0.000000000000     0.000000000000    -0.244910052171    15.994914619570
         C            0.000000000000     0.000000000000     0.326442947829    12.000000000000

  Running in c2v symmetry.

  Rotational constants: A = ************  B =      7.53188  C =      7.53188 [cm^-1]
  Rotational constants: A = ************  B = 225800.11058  C = 225800.11058 [MHz]
  Nuclear repulsion =   44.456765103464932

  Charge       = -1
  Multiplicity = 2
  Electrons    = 15
  Nalpha       = 8
  Nbeta        = 7

  ==> Algorithm <==

  SCF Algorithm Type is DF.
  DIIS enabled.
  MOM disabled.
  Fractional occupation disabled.
  Guess Type is READ.
  Energy threshold   = 1.00e-08
  Density threshold  = 1.00e-08
  Integral threshold = 1.00e-12

  ==> Primary Basis <==

  Basis Set: CC-PVTZ
    Blend: CC-PVTZ
    Number of shells: 20
    Number of basis functions: 60
    Number of Cartesian functions: 70
    Spherical Harmonics?: true
    Max angular momentum: 3

  ==> DFT Potential <==

   => LibXC <=

    Version 6.2.2
    S. Lehtola, C. Steigemann, M. J.T. Oliveira, and M. A.L. Marques.,  SoftwareX 7, 1–5 (2018) (10.1016/j.softx.2017.11.002)

   => Composite Functional: B3LYP <= 

    B3LYP Hyb-GGA Exchange-Correlation Functional

    P. J. Stephens, F. J. Devlin, C. F. Chabalowski, and M. J. Frisch.,  J. Phys. Chem. 98, 11623 (1994) (10.1021/j100096a001)

    Deriv               =              1
    GGA                 =           TRUE
    Meta                =          FALSE

    Exchange Hybrid     =           TRUE
    MP2 Hybrid          =          FALSE

   => Exchange Functionals <=

    0.0800   Slater exchange
    0.7200         Becke 88

   => Exact (HF) Exchange <=

    0.2000               HF 

   => Correlation Functionals <=

    0.1900   Vosko, Wilk & Nusair (VWN5_RPA)
    0.8100   Lee, Yang & Parr

   => LibXC Density Thresholds  <==

    XC_HYB_GGA_XC_B3LYP:  1.00E-15 

   => Molecular Quadrature <=

    Radial Scheme          =       TREUTLER
    Pruning Scheme         =           NONE
    Nuclear Scheme         =       TREUTLER

    Blocking Scheme        =         OCTREE
    BS radius alpha        =              1
    Pruning alpha          =              1
    Radial Points          =             75
    Spherical Points       =            302
    Total Points           =          43137
    Total Blocks           =            385
    Max Points             =            256
    Max Functions          =             60
    Weights Tolerance      =       1.00E-15

   => Loading Basis Set <=

    Name: (CC-PVTZ AUX)
    Role: JKFIT
    Keyword: DF_BASIS_SCF
    atoms 1 entry O          line   229 file /Users/joseantoniorodriguesromero/anaconda3/share/psi4/basis/cc-pvtz-jkfit.gbs 
    atoms 2 entry C          line   125 file /Users/joseantoniorodriguesromero/anaconda3/share/psi4/basis/cc-pvtz-jkfit.gbs 

   => Loading Basis Set <=

    Name: CC-PVTZ
    Role: ORBITAL
    Keyword: BASIS
    atoms 1 entry O          line   262 file /Users/joseantoniorodriguesromero/anaconda3/share/psi4/basis/cc-pvtz.gbs 
    atoms 2 entry C          line   186 file /Users/joseantoniorodriguesromero/anaconda3/share/psi4/basis/cc-pvtz.gbs 

  Reading orbitals from file /tmp/scan_CO_6.default.49327.180.npy, no projection.

  ==> Integral Setup <==

  DFHelper Memory: AOs need 0.005 GiB; user supplied 0.294 GiB. 
  Using in-core AOs.

  ==> MemDFJK: Density-Fitted J/K Matrices <==

    J tasked:                   Yes
    K tasked:                   Yes
    wK tasked:                   No
    OpenMP threads:               1
    Memory [MiB]:               301
    Algorithm:                 Core
    Schwarz Cutoff:           1E-12
    Mask sparsity (%):       0.0000
    Fitting Condition:        1E-10

   => Auxiliary Basis Set <=

  Basis Set: (CC-PVTZ AUX)
    Blend: CC-PVTZ-JKFIT
    Number of shells: 50
    Number of basis functions: 158
    Number of Cartesian functions: 192
    Spherical Harmonics?: true
    Max angular momentum: 4

  Cached 100.0% of DFT collocation blocks in 0.072 [GiB].

  Minimum eigenvalue in the overlap matrix is 1.4641842327E-03.
  Reciprocal condition number of the overlap matrix is 3.3556226935E-04.
    Using symmetric orthogonalization.

  ==> Pre-Iterations <==

  SCF Guess: Orbitals guess was supplied from a previous computation.

   -------------------------------------------------------
    Irrep   Nso     Nmo     Nalpha   Nbeta   Ndocc  Nsocc
   -------------------------------------------------------
     A1        26      26       5       5       5       0
     A2         6       6       0       0       0       0
     B1        14      14       2       1       1       1
     B2        14      14       1       1       1       0
   -------------------------------------------------------
    Total      60      60       8       7       7       1
   -------------------------------------------------------

  ==> Iterations <==

                           Total Energy        Delta E     RMS |[F,P]|

   @DF-UKS iter   0:  -109.77108361890511   -1.09771e+02   1.13687e-02 
   @DF-UKS iter   1:  -109.76093524686031    1.01484e-02   4.97112e-03 ADIIS/DIIS
   @DF-UKS iter   2:  -109.76169119167221   -7.55945e-04   4.73757e-03 ADIIS/DIIS/DAMP=1%
   @DF-UKS iter   3:  -109.76406576745065   -2.37458e-03   2.10393e-04 ADIIS/DIIS/DAMP=1%
   @DF-UKS iter   4:  -109.76917752559660   -5.11176e-03   3.51938e-05 DIIS/DAMP=1%
   @DF-UKS iter   5:  -109.76914547504710    3.20505e-05   4.39074e-06 DIIS/DAMP=1%
   @DF-UKS iter   6:  -109.76914067258592    4.80246e-06   4.70623e-07 DIIS/DAMP=1%
   @DF-UKS iter   7:  -109.76914429821274   -3.62563e-06   8.32437e-08 DIIS/DAMP=1%
   @DF-UKS iter   8:  -109.76914451737579   -2.19163e-07   1.80936e-08 DIIS/DAMP=1%
   @DF-UKS iter   9:  -109.76914439354645    1.23829e-07   2.21662e-09 DIIS/DAMP=1%
   @DF-UKS iter  10:  -109.76914441303526   -1.94888e-08   1.26499e-10 DIIS/DAMP=1%
   @DF-UKS iter  11:  -109.76914441137008    1.66519e-09   1.71084e-11 DIIS/DAMP=1%
  Energy and wave function converged.


  ==> Post-Iterations <==

   Electrons on quadrature grid:
      Nalpha   =    8.0000000534 ; deviation = 5.336e-08
      Nbeta    =    7.0000000512 ; deviation = 5.122e-08
      Ntotal   =   15.0000001046 ; deviation = 1.046e-07 

   @Spin Contamination Metric:   1.581633280E-03
   @S^2 Expected:                7.500000000E-01
   @S^2 Observed:                7.515816333E-01
   @S   Expected:                5.000000000E-01
   @S   Observed:                5.000000000E-01

    Orbital Energies [Eh]
    ---------------------

    Alpha Occupied:                                                       

       1A1   -19.031285     2A1   -10.120826     3A1    -0.893848  
       1B2    -0.569700     1B1    -0.567802     4A1    -0.219308  
       5A1    -0.027765     2B1     0.302942  

    Alpha Virtual:                                                        

       2B2     0.363536     6A1     0.375058     7A1     0.521526  
       3B2     0.620263     3B1     0.629042     8A1     0.805905  
       1A2     0.895548     9A1     0.898064     4B2     0.900063  
       4B1     0.901081    10A1     1.157295     5B2     1.462703  
       5B1     1.466181    11A1     1.656719     6B2     1.805547  
       6B1     1.812623     2A2     1.935211    12A1     1.936739  
      13A1     2.056421    14A1     2.562205     7B2     2.778849  
       7B1     2.783362     8B1     2.918110     8B2     2.918171  
       3A2     3.121441    15A1     3.122082    16A1     3.213911  
       9B2     3.387018     9B1     3.393034    17A1     3.646023  
       4A2     3.646437    18A1     3.678877    10B2     4.374632  
      10B1     4.379696    19A1     4.914864    11B2     4.942258  
      11B1     4.946551    12B1     5.709100    12B2     5.709111  
       5A2     6.388954    20A1     6.389257    21A1     6.425169  
      13B2     7.132046    13B1     7.135671     6A2     7.353784  
      22A1     7.353945    23A1     7.499316    14B2     8.915572  
      14B1     8.917235    24A1     9.214819    25A1    10.317425  
      26A1    20.411152  

    Beta Occupied:                                                        

       1A1   -19.028448     2A1   -10.121698     3A1    -0.889723  
       1B2    -0.568700     1B1    -0.557949     4A1    -0.217424  
       5A1    -0.021405  

    Beta Virtual:                                                         

       2B2     0.377033     6A1     0.388552     2B1     0.402937  
       7A1     0.537821     3B2     0.616748     3B1     0.628521  
       8A1     0.813534     4B2     0.901830     1A2     0.912747  
       9A1     0.913738     4B1     0.918060    10A1     1.163239  
       5B2     1.463416     5B1     1.481673    11A1     1.658567  
       6B2     1.804394     6B1     1.818590    12A1     1.945302  
       2A2     1.945366    13A1     2.059731    14A1     2.565065  
       7B2     2.778047     7B1     2.786829     8B2     2.921125  
       8B1     2.921138    15A1     3.123492     3A2     3.123870  
      16A1     3.214103     9B2     3.384445     9B1     3.397460  
      17A1     3.646748     4A2     3.648087    18A1     3.678758  
      10B2     4.374970    10B1     4.387571    19A1     4.917392  
      11B2     4.941939    11B1     4.952205    12B2     5.712324  
      12B1     5.712327    20A1     6.395372     5A2     6.395740  
      21A1     6.426717    13B2     7.132218    13B1     7.139824  
      22A1     7.357269     6A2     7.357343    23A1     7.501150  
      14B2     8.916209    14B1     8.922989    24A1     9.215758  
      25A1    10.320891    26A1    20.413635  

    Final Occupation by Irrep:
             A1    A2    B1    B2 
    DOCC [     5,    0,    1,    1 ]
    SOCC [     0,    0,    1,    0 ]
    NA   [     5,    0,    2,    1 ]
    NB   [     5,    0,    1,    1 ]

  @DF-UKS Final Energy:  -109.76914441137008

   => Energetics <=

    Nuclear Repulsion Energy =             44.4567651034649316
    One-Electron Energy =                -237.0467692670098643
    Two-Electron Energy =                  95.1998622539048966
    DFT Exchange-Correlation Energy =     -12.3790025017300387
    Empirical Dispersion Energy =           0.0000000000000000
    VV10 Nonlocal Energy =                  0.0000000000000000
    Total Energy =                       -109.7691444113700783

  UHF NO Occupations:
  HONO-2 :    1 B1 1.9999834
  HONO-1 :    5 A1 1.9992348
  HONO-0 :    2 B1 1.0000000
  LUNO+0 :    6 A1 0.0007652
  LUNO+1 :    3 B1 0.0000166
  LUNO+2 :    7 A1 0.0000065
  LUNO+3 :    2 B2 0.0000018


Computation Completed


Properties will be evaluated at   0.000000,   0.000000,   0.000000 [a0]

Properties computed using the SCF density matrix


 Multipole Moments:

 ------------------------------------------------------------------------------------
     Multipole            Electronic (a.u.)      Nuclear  (a.u.)        Total (a.u.)
 ------------------------------------------------------------------------------------

 L = 1.  Multiply by 2.5417464519 to convert [e a0] to [Debye]
 Dipole X            :          0.0000000            0.0000000            0.0000000
 Dipole Y            :          0.0000000            0.0000000            0.0000000
 Dipole Z            :         -1.7233246           -0.0011768           -1.7245013
 Magnitude           :                                                    1.7245013

 ------------------------------------------------------------------------------------

*** tstop() called on Mac.lan at Sun Aug 10 17:42:34 2025
Module time:
	user time   =      13.88 seconds =       0.23 minutes
	system time =       1.73 seconds =       0.03 minutes
	total time  =          2 seconds =       0.03 minutes
Total time:
	user time   =      13.88 seconds =       0.23 minutes
	system time =       1.73 seconds =       0.03 minutes
	total time  =          2 seconds =       0.03 minutes

*** tstart() called on Mac.lan
*** at Sun Aug 10 17:42:34 2025

   => Libint2 <=

    Primary   basis highest AM E, G, H:  6, 6, 3
    Auxiliary basis highest AM E, G, H:  7, 7, 4
    Onebody   basis highest AM E, G, H:  -, -, -
    Solid Harmonics ordering:            Gaussian
   => Loading Basis Set <=

    Name: CC-PVTZ
    Role: ORBITAL
    Keyword: BASIS
    atoms 1 entry O          line   262 file /Users/joseantoniorodriguesromero/anaconda3/share/psi4/basis/cc-pvtz.gbs 
    atoms 2 entry C          line   186 file /Users/joseantoniorodriguesromero/anaconda3/share/psi4/basis/cc-pvtz.gbs 


         ---------------------------------------------------------
                                   SCF
               by Justin Turney, Rob Parrish, Andy Simmonett
                          and Daniel G. A. Smith
                              UKS Reference
                        1 Threads,    500 MiB Core
         ---------------------------------------------------------

  ==> Geometry <==

    Molecular point group: c2v
    Full point group: C_inf_v

    Geometry (in Angstrom), charge = -1, multiplicity = 2:

       Center              X                  Y                   Z               Mass       
    ------------   -----------------  -----------------  -----------------  -----------------
         O            0.000000000000     0.000000000000    -0.244910052171    15.994914619570
         C            0.000000000000     0.000000000000     0.326442947829    12.000000000000

  Running in c2v symmetry.

  Rotational constants: A = ************  B =      7.53188  C =      7.53188 [cm^-1]
  Rotational constants: A = ************  B = 225800.11058  C = 225800.11058 [MHz]
  Nuclear repulsion =   44.456765103464932

  Charge       = -1
  Multiplicity = 2
  Electrons    = 15
  Nalpha       = 8
  Nbeta        = 7

  ==> Algorithm <==

  SCF Algorithm Type is DF.
  DIIS enabled.
  MOM disabled.
  Fractional occupation disabled.
  Guess Type is READ.
  Energy threshold   = 1.00e-08
  Density threshold  = 1.00e-08
  Integral threshold = 1.00e-12

  ==> Primary Basis <==

  Basis Set: CC-PVTZ
    Blend: CC-PVTZ
    Number of shells: 20
    Number of basis functions: 60
    Number of Cartesian functions: 70
    Spherical Harmonics?: true
    Max angular momentum: 3

  ==> DFT Potential <==

   => LibXC <=

    Version 6.2.2
    S. Lehtola, C. Steigemann, M. J.T. Oliveira, and M. A.L. Marques.,  SoftwareX 7, 1–5 (2018) (10.1016/j.softx.2017.11.002)

   => Composite Functional: B3LYP <= 

    B3LYP Hyb-GGA Exchange-Correlation Functional

    P. J. Stephens, F. J. Devlin, C. F. Chabalowski, and M. J. Frisch.,  J. Phys. Chem. 98, 11623 (1994) (10.1021/j100096a001)

    Deriv               =              1
    GGA                 =           TRUE
    Meta                =          FALSE

    Exchange Hybrid     =           TRUE
    MP2 Hybrid          =          FALSE

   => Exchange Functionals <=

    0.0800   Slater exchange
    0.7200         Becke 88

   => Exact (HF) Exchange <=

    0.2000               HF 

   => Correlation Functionals <=

    0.1900   Vosko, Wilk & Nusair (VWN5_RPA)
    0.8100   Lee, Yang & Parr

   => LibXC Density Thresholds  <==

    XC_HYB_GGA_XC_B3LYP:  1.00E-15 

   => Molecular Quadrature <=

    Radial Scheme          =       TREUTLER
    Pruning Scheme         =           NONE
    Nuclear Scheme         =       TREUTLER

    Blocking Scheme        =         OCTREE
    BS radius alpha        =              1
    Pruning alpha          =              1
    Radial Points          =             75
    Spherical Points       =            302
    Total Points           =          43137
    Total Blocks           =            385
    Max Points             =            256
    Max Functions          =             60
    Weights Tolerance      =       1.00E-15

   => Loading Basis Set <=

    Name: (CC-PVTZ AUX)
    Role: JKFIT
    Keyword: DF_BASIS_SCF
    atoms 1 entry O          line   229 file /Users/joseantoniorodriguesromero/anaconda3/share/psi4/basis/cc-pvtz-jkfit.gbs 
    atoms 2 entry C          line   125 file /Users/joseantoniorodriguesromero/anaconda3/share/psi4/basis/cc-pvtz-jkfit.gbs 

   => Loading Basis Set <=

    Name: CC-PVTZ
    Role: ORBITAL
    Keyword: BASIS
    atoms 1 entry O          line   262 file /Users/joseantoniorodriguesromero/anaconda3/share/psi4/basis/cc-pvtz.gbs 
    atoms 2 entry C          line   186 file /Users/joseantoniorodriguesromero/anaconda3/share/psi4/basis/cc-pvtz.gbs 

  Reading orbitals from file /tmp/scan_CO_6.default.49327.180.npy, no projection.

  ==> Integral Setup <==

  DFHelper Memory: AOs need 0.005 GiB; user supplied 0.294 GiB. 
  Using in-core AOs.

  ==> MemDFJK: Density-Fitted J/K Matrices <==

    J tasked:                   Yes
    K tasked:                   Yes
    wK tasked:                   No
    OpenMP threads:               1
    Memory [MiB]:               301
    Algorithm:                 Core
    Schwarz Cutoff:           1E-12
    Mask sparsity (%):       0.0000
    Fitting Condition:        1E-10

   => Auxiliary Basis Set <=

  Basis Set: (CC-PVTZ AUX)
    Blend: CC-PVTZ-JKFIT
    Number of shells: 50
    Number of basis functions: 158
    Number of Cartesian functions: 192
    Spherical Harmonics?: true
    Max angular momentum: 4

  Cached 100.0% of DFT collocation blocks in 0.072 [GiB].

  Minimum eigenvalue in the overlap matrix is 1.4641842327E-03.
  Reciprocal condition number of the overlap matrix is 3.3556226935E-04.
    Using symmetric orthogonalization.

  ==> Pre-Iterations <==

  SCF Guess: Orbitals guess was supplied from a previous computation.

   -------------------------------------------------------
    Irrep   Nso     Nmo     Nalpha   Nbeta   Ndocc  Nsocc
   -------------------------------------------------------
     A1        26      26       5       5       5       0
     A2         6       6       0       0       0       0
     B1        14      14       2       1       1       1
     B2        14      14       1       1       1       0
   -------------------------------------------------------
    Total      60      60       8       7       7       1
   -------------------------------------------------------

  ==> Iterations <==

                           Total Energy        Delta E     RMS |[F,P]|

   @DF-UKS iter   0:  -109.76914441133756   -1.09769e+02   2.31205e-12 
   @DF-UKS iter   1:  -109.76914441133766   -9.94760e-14   1.71883e-12 DIIS
  Energy and wave function converged.


  ==> Post-Iterations <==

   Electrons on quadrature grid:
      Nalpha   =    8.0000000534 ; deviation = 5.336e-08
      Nbeta    =    7.0000000512 ; deviation = 5.122e-08
      Ntotal   =   15.0000001046 ; deviation = 1.046e-07 

   @Spin Contamination Metric:   1.581633273E-03
   @S^2 Expected:                7.500000000E-01
   @S^2 Observed:                7.515816333E-01
   @S   Expected:                5.000000000E-01
   @S   Observed:                5.000000000E-01

    Orbital Energies [Eh]
    ---------------------

    Alpha Occupied:                                                       

       1A1   -19.031285     2A1   -10.120826     3A1    -0.893848  
       1B2    -0.569700     1B1    -0.567802     4A1    -0.219308  
       5A1    -0.027765     2B1     0.302942  

    Alpha Virtual:                                                        

       2B2     0.363536     6A1     0.375058     7A1     0.521526  
       3B2     0.620263     3B1     0.629042     8A1     0.805905  
       1A2     0.895548     9A1     0.898064     4B2     0.900063  
       4B1     0.901081    10A1     1.157295     5B2     1.462703  
       5B1     1.466181    11A1     1.656719     6B2     1.805547  
       6B1     1.812623     2A2     1.935211    12A1     1.936739  
      13A1     2.056421    14A1     2.562205     7B2     2.778849  
       7B1     2.783362     8B1     2.918110     8B2     2.918171  
       3A2     3.121441    15A1     3.122082    16A1     3.213911  
       9B2     3.387018     9B1     3.393034    17A1     3.646023  
       4A2     3.646437    18A1     3.678877    10B2     4.374632  
      10B1     4.379696    19A1     4.914864    11B2     4.942258  
      11B1     4.946551    12B1     5.709100    12B2     5.709111  
       5A2     6.388954    20A1     6.389257    21A1     6.425169  
      13B2     7.132046    13B1     7.135671     6A2     7.353784  
      22A1     7.353945    23A1     7.499316    14B2     8.915572  
      14B1     8.917235    24A1     9.214819    25A1    10.317425  
      26A1    20.411152  

    Beta Occupied:                                                        

       1A1   -19.028448     2A1   -10.121698     3A1    -0.889723  
       1B2    -0.568700     1B1    -0.557949     4A1    -0.217424  
       5A1    -0.021405  

    Beta Virtual:                                                         

       2B2     0.377033     6A1     0.388552     2B1     0.402937  
       7A1     0.537821     3B2     0.616748     3B1     0.628521  
       8A1     0.813534     4B2     0.901830     1A2     0.912747  
       9A1     0.913738     4B1     0.918060    10A1     1.163239  
       5B2     1.463416     5B1     1.481673    11A1     1.658567  
       6B2     1.804394     6B1     1.818590    12A1     1.945302  
       2A2     1.945366    13A1     2.059731    14A1     2.565065  
       7B2     2.778047     7B1     2.786829     8B2     2.921125  
       8B1     2.921138    15A1     3.123492     3A2     3.123870  
      16A1     3.214103     9B2     3.384445     9B1     3.397460  
      17A1     3.646748     4A2     3.648087    18A1     3.678758  
      10B2     4.374970    10B1     4.387571    19A1     4.917392  
      11B2     4.941939    11B1     4.952205    12B2     5.712324  
      12B1     5.712327    20A1     6.395372     5A2     6.395740  
      21A1     6.426717    13B2     7.132218    13B1     7.139824  
      22A1     7.357269     6A2     7.357343    23A1     7.501150  
      14B2     8.916209    14B1     8.922989    24A1     9.215758  
      25A1    10.320891    26A1    20.413635  

    Final Occupation by Irrep:
             A1    A2    B1    B2 
    DOCC [     5,    0,    1,    1 ]
    SOCC [     0,    0,    1,    0 ]
    NA   [     5,    0,    2,    1 ]
    NB   [     5,    0,    1,    1 ]

  @DF-UKS Final Energy:  -109.76914441133766

   => Energetics <=

    Nuclear Repulsion Energy =             44.4567651034649316
    One-Electron Energy =                -237.0467692658556018
    Two-Electron Energy =                  95.1998622526884333
    DFT Exchange-Correlation Energy =     -12.3790025016354317
    Empirical Dispersion Energy =           0.0000000000000000
    VV10 Nonlocal Energy =                  0.0000000000000000
    Total Energy =                       -109.7691444113376633

  UHF NO Occupations:
  HONO-2 :    1 B1 1.9999834
  HONO-1 :    5 A1 1.9992348
  HONO-0 :    2 B1 1.0000000
  LUNO+0 :    6 A1 0.0007652
  LUNO+1 :    3 B1 0.0000166
  LUNO+2 :    7 A1 0.0000065
  LUNO+3 :    2 B2 0.0000018


Computation Completed


Properties will be evaluated at   0.000000,   0.000000,   0.000000 [a0]

Properties computed using the B3LYP density matrix


 Multipole Moments:

 ------------------------------------------------------------------------------------
     Multipole            Electronic (a.u.)      Nuclear  (a.u.)        Total (a.u.)
 ------------------------------------------------------------------------------------

 L = 1.  Multiply by 2.5417464519 to convert [e a0] to [Debye]
 Dipole X            :          0.0000000            0.0000000            0.0000000
 Dipole Y            :          0.0000000            0.0000000            0.0000000
 Dipole Z            :         -1.7233246           -0.0011768           -1.7245013
 Magnitude           :                                                    1.7245013

 L = 2.  Multiply by 1.3450342976 to convert [e a0^2] to [Debye ang]
 Quadrupole XX       :        -14.4954083            0.0000000          -14.4954083
 Quadrupole XY       :          0.0000000            0.0000000            0.0000000
 Quadrupole XZ       :          0.0000000            0.0000000            0.0000000
 Quadrupole YY       :         -9.1107673            0.0000000           -9.1107673
 Quadrupole YZ       :          0.0000000            0.0000000            0.0000000
 Quadrupole ZZ       :        -16.1885882            3.9968695          -12.1917187
 Traceless XX        :         -1.2304870           -1.3322898           -2.5627769
 Traceless YY        :          4.1541540           -1.3322898            2.8218642
 Traceless ZZ        :         -2.9236670            2.6645797           -0.2590873

 ------------------------------------------------------------------------------------
  ==> Computing MBIS Charges <==

  Electron Count from Grid (Expected Number): 15.00000 (15.00000)
  Difference: -0.00000

  MBIS Charges: (a.u.)
   Center  Symbol  Z      Pop.       Charge
      1       O    8    7.608832    0.391168
      2       C    6    7.391167   -1.391167

  MBIS Dipoles: [e a0]
   Center  Symbol  Z        X           Y           Z
      1       O    8   -0.000000   -0.000000   -0.144659
      2       C    6   -0.000000    0.000000   -0.540612

  MBIS Quadrupoles: [e a0^2]
   Center  Symbol  Z      XX        XY        XZ        YY        YZ        ZZ
      1       O    8   -2.1802   -0.0000   -0.0000   -2.0968    0.0000   -2.5485
      2       C    6   -12.3152   -0.0000    0.0000   -7.0139    0.0000   -8.6645

  MBIS Octupoles: [e a0^3]
   Center  Symbol  Z      XXX       XXY       XXZ       XYY       XYZ       XZZ       YYY       YYZ       YZZ       ZZZ
      1       O    8    0.0000   -0.0000   -0.0647   -0.0000    0.0000    0.0000   -0.0000   -0.0239    0.0000    0.1731
      2       C    6    0.0000    0.0000   -3.8812    0.0000    0.0000    0.0000    0.0000   -1.5648    0.0000   -2.4179

  MBIS Radial Moments:
   Center  Symbol  Z      [a0^2]      [a0^3]      [a0^4]      
      1       O    8    6.825583   10.003802   17.729140
      2       C    6   27.993595   90.655653   339.485079

  MBIS Valence Widths: [a0]
   Center  Symbol  Z     Width
      1       O    8    0.305898
      2       C    6    0.647404

*** tstop() called on Mac.lan at Sun Aug 10 17:42:34 2025
Module time:
	user time   =       3.55 seconds =       0.06 minutes
	system time =       3.04 seconds =       0.05 minutes
	total time  =          0 seconds =       0.00 minutes
Total time:
	user time   =      17.53 seconds =       0.29 minutes
	system time =       4.96 seconds =       0.08 minutes
	total time  =          2 seconds =       0.03 minutes

    Psi4 stopped on: Sunday, 10 August 2025 05:42PM
    Psi4 wall time for execution: 0:00:02.17

*** Psi4 exiting successfully. Buy a developer a beer!
