
    -----------------------------------------------------------------------
          Psi4: An Open-Source Ab Initio Electronic Structure Package
                               Psi4 1.9.1 release

                         Git: Rev {} zzzzzzz 


    D. G. A. Smith, L. A. Burns, A. C. Simmonett, R. M. Parrish,
    M. C. Schieber, R. Galvelis, P. Kraus, H. Kruse, R. Di Remigio,
    A. Alenaizan, A. M. James, S. Lehtola, J. P. Misiewicz, M. Scheurer,
    R. A. Shaw, J. B. Schriber, Y. Xie, Z. L. Glick, D. A. Sirianni,
    J. S. O'Brien, J. M. Waldrop, A. Kumar, E. G. Hohenstein,
    B. P. Pritchard, B. R. Brooks, H. F. Schaefer III, A. Yu. Sokolov,
    K. Patkowski, A. E. DePrince III, U. Bozkaya, R. A. King,
    F. A. Evangelista, J. M. Turney, T. D. Crawford, C. D. Sherrill,
    J. Chem. Phys. 152(18) 184108 (2020). https://doi.org/10.1063/5.0006002

                            Additional Code Authors
    E. T. Seidl, C. L. Janssen, E. F. Valeev, M. L. Leininger,
    J. F. Gonthier, R. M. Richard, H. R. McAlexander, M. Saitow, X. Wang,
    P. Verma, M. H. Lechner, A. Jiang, S. Behnle, A. G. Heide,
    M. F. Herbst, and D. L. Poole

             Previous Authors, Complete List of Code Contributors,
                       and Citations for Specific Modules
    https://github.com/psi4/psi4/blob/master/codemeta.json
    https://github.com/psi4/psi4/graphs/contributors
    http://psicode.org/psi4manual/master/introduction.html#citing-psifour

    -----------------------------------------------------------------------


    Psi4 started on: Sunday, 10 August 2025 05:37PM

    Process ID: 49186
    Host:       Mac.lan
    PSIDATADIR: /Users/joseantoniorodriguesromero/anaconda3/share/psi4
    Memory:     500.0 MiB
    Threads:    1
    
  ==> Input File <==

--------------------------------------------------------------------------
molecule { 
-1 1
O           0.000000           0.000000           0.000000
H           0.000000           0.000000           1.000788
}

set { 
basis              cc-pvtz
reference          uks
maxiter            500
DAMPING_PERCENTAGE 1
E_CONVERGENCE      1.0E-8
D_CONVERGENCE      1.0E-8
DIIS_MAX_VECS      400
MBIS_MAXITER       8000
guess              read
}

E, wfn = energy('b3lyp', restart_file='last_wfn', return_wfn=True)
properties('b3lyp','MBIS_CHARGES', wfn=wfn)
wfn.to_file('last_wfn')
--------------------------------------------------------------------------

Scratch directory: /tmp/
 Found user provided orbital data. Setting orbital guess to READ 
 Copying restart file <last_wfn.npy> to </tmp/scan_HO_30.default.49186.180.npy> for internal processing
   => Libint2 <=

    Primary   basis highest AM E, G, H:  6, 6, 3
    Auxiliary basis highest AM E, G, H:  7, 7, 4
    Onebody   basis highest AM E, G, H:  -, -, -
    Solid Harmonics ordering:            Gaussian

*** tstart() called on Mac.lan
*** at Sun Aug 10 17:37:58 2025

   => Loading Basis Set <=

    Name: CC-PVTZ
    Role: ORBITAL
    Keyword: BASIS
    atoms 1 entry O          line   262 file /Users/joseantoniorodriguesromero/anaconda3/share/psi4/basis/cc-pvtz.gbs 
    atoms 2 entry H          line    23 file /Users/joseantoniorodriguesromero/anaconda3/share/psi4/basis/cc-pvtz.gbs 


         ---------------------------------------------------------
                                   SCF
               by Justin Turney, Rob Parrish, Andy Simmonett
                          and Daniel G. A. Smith
                              UKS Reference
                        1 Threads,    500 MiB Core
         ---------------------------------------------------------

  ==> Geometry <==

    Molecular point group: c2v
    Full point group: C_inf_v

    Geometry (in Angstrom), charge = -1, multiplicity = 1:

       Center              X                  Y                   Z               Mass       
    ------------   -----------------  -----------------  -----------------  -----------------
         O            0.000000000000     0.000000000000    -0.059320981148    15.994914619570
         H            0.000000000000     0.000000000000     0.941467018852     1.007825032230

  Running in c2v symmetry.

  Rotational constants: A = ************  B =     17.75269  C =     17.75269 [cm^-1]
  Rotational constants: A = ************  B = 532212.23999  C = 532212.23999 [MHz]
  Nuclear repulsion =    4.230084378869451

  Charge       = -1
  Multiplicity = 1
  Electrons    = 10
  Nalpha       = 5
  Nbeta        = 5

  ==> Algorithm <==

  SCF Algorithm Type is DF.
  DIIS enabled.
  MOM disabled.
  Fractional occupation disabled.
  Guess Type is READ.
  Energy threshold   = 1.00e-08
  Density threshold  = 1.00e-08
  Integral threshold = 1.00e-12

  ==> Primary Basis <==

  Basis Set: CC-PVTZ
    Blend: CC-PVTZ
    Number of shells: 16
    Number of basis functions: 44
    Number of Cartesian functions: 50
    Spherical Harmonics?: true
    Max angular momentum: 3

  ==> DFT Potential <==

   => LibXC <=

    Version 6.2.2
    S. Lehtola, C. Steigemann, M. J.T. Oliveira, and M. A.L. Marques.,  SoftwareX 7, 1–5 (2018) (10.1016/j.softx.2017.11.002)

   => Composite Functional: B3LYP <= 

    B3LYP Hyb-GGA Exchange-Correlation Functional

    P. J. Stephens, F. J. Devlin, C. F. Chabalowski, and M. J. Frisch.,  J. Phys. Chem. 98, 11623 (1994) (10.1021/j100096a001)

    Deriv               =              1
    GGA                 =           TRUE
    Meta                =          FALSE

    Exchange Hybrid     =           TRUE
    MP2 Hybrid          =          FALSE

   => Exchange Functionals <=

    0.0800   Slater exchange
    0.7200         Becke 88

   => Exact (HF) Exchange <=

    0.2000               HF 

   => Correlation Functionals <=

    0.1900   Vosko, Wilk & Nusair (VWN5_RPA)
    0.8100   Lee, Yang & Parr

   => LibXC Density Thresholds  <==

    XC_HYB_GGA_XC_B3LYP:  1.00E-15 

   => Molecular Quadrature <=

    Radial Scheme          =       TREUTLER
    Pruning Scheme         =           NONE
    Nuclear Scheme         =       TREUTLER

    Blocking Scheme        =         OCTREE
    BS radius alpha        =              1
    Pruning alpha          =              1
    Radial Points          =             75
    Spherical Points       =            302
    Total Points           =          44140
    Total Blocks           =            394
    Max Points             =            256
    Max Functions          =             44
    Weights Tolerance      =       1.00E-15

   => Loading Basis Set <=

    Name: (CC-PVTZ AUX)
    Role: JKFIT
    Keyword: DF_BASIS_SCF
    atoms 1 entry O          line   229 file /Users/joseantoniorodriguesromero/anaconda3/share/psi4/basis/cc-pvtz-jkfit.gbs 
    atoms 2 entry H          line    51 file /Users/joseantoniorodriguesromero/anaconda3/share/psi4/basis/cc-pvtz-jkfit.gbs 

   => Loading Basis Set <=

    Name: CC-PVTZ
    Role: ORBITAL
    Keyword: BASIS
    atoms 1 entry O          line   262 file /Users/joseantoniorodriguesromero/anaconda3/share/psi4/basis/cc-pvtz.gbs 
    atoms 2 entry H          line    23 file /Users/joseantoniorodriguesromero/anaconda3/share/psi4/basis/cc-pvtz.gbs 

  Reading orbitals from file /tmp/scan_HO_30.default.49186.180.npy, no projection.

  ==> Integral Setup <==

  DFHelper Memory: AOs need 0.002 GiB; user supplied 0.312 GiB. 
  Using in-core AOs.

  ==> MemDFJK: Density-Fitted J/K Matrices <==

    J tasked:                   Yes
    K tasked:                   Yes
    wK tasked:                   No
    OpenMP threads:               1
    Memory [MiB]:               319
    Algorithm:                 Core
    Schwarz Cutoff:           1E-12
    Mask sparsity (%):       0.0000
    Fitting Condition:        1E-10

   => Auxiliary Basis Set <=

  Basis Set: (CC-PVTZ AUX)
    Blend: CC-PVTZ-JKFIT
    Number of shells: 35
    Number of basis functions: 109
    Number of Cartesian functions: 131
    Spherical Harmonics?: true
    Max angular momentum: 4

  Cached 100.0% of DFT collocation blocks in 0.055 [GiB].

  Minimum eigenvalue in the overlap matrix is 4.5449248911E-03.
  Reciprocal condition number of the overlap matrix is 1.1582841158E-03.
    Using symmetric orthogonalization.

  ==> Pre-Iterations <==

  SCF Guess: Orbitals guess was supplied from a previous computation.

   -------------------------------------------------------
    Irrep   Nso     Nmo     Nalpha   Nbeta   Ndocc  Nsocc
   -------------------------------------------------------
     A1        20      20       3       3       3       0
     A2         4       4       0       0       0       0
     B1        10      10       1       1       1       0
     B2        10      10       1       1       1       0
   -------------------------------------------------------
    Total      44      44       5       5       5       0
   -------------------------------------------------------

  ==> Iterations <==

                           Total Energy        Delta E     RMS |[F,P]|

   @DF-UKS iter   0:   -75.78513583068052   -7.57851e+01   1.81468e-03 
   @DF-UKS iter   1:   -75.78971563923528   -4.57981e-03   3.66446e-04 ADIIS/DIIS
   @DF-UKS iter   2:   -75.78973712099378   -2.14818e-05   2.28227e-04 ADIIS/DIIS/DAMP=1%
   @DF-UKS iter   3:   -75.78983826482185   -1.01144e-04   7.95067e-05 DIIS/DAMP=1%
   @DF-UKS iter   4:   -75.78970470528675    1.33560e-04   3.22130e-06 DIIS/DAMP=1%
   @DF-UKS iter   5:   -75.78974795628109   -4.32510e-05   3.91903e-07 DIIS/DAMP=1%
   @DF-UKS iter   6:   -75.78975005308699   -2.09681e-06   2.81982e-08 DIIS/DAMP=1%
   @DF-UKS iter   7:   -75.78974980734120    2.45746e-07   4.88743e-09 DIIS/DAMP=1%
   @DF-UKS iter   8:   -75.78974982523926   -1.78981e-08   2.27112e-10 DIIS/DAMP=1%
   @DF-UKS iter   9:   -75.78974982220380    3.03545e-09   1.42426e-11 DIIS/DAMP=1%
  Energy and wave function converged.


  ==> Post-Iterations <==

   Electrons on quadrature grid:
      Nalpha   =    4.9999999914 ; deviation = -8.562e-09
      Nbeta    =    4.9999999914 ; deviation = -8.562e-09
      Ntotal   =    9.9999999829 ; deviation = -1.712e-08 

   @Spin Contamination Metric:   5.329070518E-15
   @S^2 Expected:                0.000000000E+00
   @S^2 Observed:                5.329070518E-15
   @S   Expected:                0.000000000E+00
   @S   Observed:                0.000000000E+00

    Orbital Energies [Eh]
    ---------------------

    Alpha Occupied:                                                       

       1A1   -18.676267     2A1    -0.512994     3A1    -0.024157  
       1B1     0.116591     1B2     0.116591  

    Alpha Virtual:                                                        

       4A1     0.312928     5A1     0.703587     6A1     0.856729  
       2B2     0.940621     2B1     0.940621     3B2     1.045441  
       3B1     1.045441     7A1     1.269102     8A1     1.586552  
       9A1     1.884326     1A2     1.884326     4B1     2.164363  
       4B2     2.164363    10A1     2.292693    11A1     2.808573  
      12A1     3.576351     2A2     3.576352     5B1     3.766191  
       5B2     3.766191     6B1     4.033357     6B2     4.033357  
      13A1     4.044792     7B1     4.450424     7B2     4.450424  
      14A1     4.670003    15A1     5.115472     8B2     5.585811  
       8B1     5.585811    16A1     5.798611     3A2     5.798611  
       4A2     6.673874    17A1     6.673875     9B2     6.719715  
       9B1     6.719715    18A1     6.753961    10B1     7.007000  
      10B2     7.007000    19A1     7.402780    20A1    10.356559  

    Beta Occupied:                                                        

       1A1   -18.676267     2A1    -0.512994     3A1    -0.024157  
       1B1     0.116591     1B2     0.116591  

    Beta Virtual:                                                         

       4A1     0.312928     5A1     0.703587     6A1     0.856729  
       2B2     0.940621     2B1     0.940621     3B2     1.045441  
       3B1     1.045441     7A1     1.269102     8A1     1.586552  
       9A1     1.884326     1A2     1.884326     4B1     2.164363  
       4B2     2.164363    10A1     2.292693    11A1     2.808573  
      12A1     3.576351     2A2     3.576352     5B1     3.766191  
       5B2     3.766191     6B1     4.033357     6B2     4.033357  
      13A1     4.044792     7B1     4.450424     7B2     4.450424  
      14A1     4.670003    15A1     5.115472     8B2     5.585811  
       8B1     5.585811    16A1     5.798611     3A2     5.798611  
       4A2     6.673874    17A1     6.673875     9B2     6.719715  
       9B1     6.719715    18A1     6.753961    10B1     7.007000  
      10B2     7.007000    19A1     7.402780    20A1    10.356559  

    Final Occupation by Irrep:
             A1    A2    B1    B2 
    DOCC [     3,    0,    1,    1 ]
    SOCC [     0,    0,    0,    0 ]
    NA   [     3,    0,    1,    1 ]
    NB   [     3,    0,    1,    1 ]

  @DF-UKS Final Energy:   -75.78974982220380

   => Energetics <=

    Nuclear Repulsion Energy =              4.2300843788694511
    One-Electron Energy =                -116.7262607859168213
    Two-Electron Energy =                  44.1583689245464228
    DFT Exchange-Correlation Energy =      -7.4519423397028586
    Empirical Dispersion Energy =           0.0000000000000000
    VV10 Nonlocal Energy =                  0.0000000000000000
    Total Energy =                        -75.7897498222038024

  UHF NO Occupations:
  HONO-2 :    2 A1 2.0000000
  HONO-1 :    1 B1 2.0000000
  HONO-0 :    3 A1 2.0000000
  LUNO+0 :    4 A1 0.0000000
  LUNO+1 :    5 A1 0.0000000
  LUNO+2 :    6 A1 0.0000000
  LUNO+3 :    7 A1 0.0000000


Computation Completed


Properties will be evaluated at   0.000000,   0.000000,   0.000000 [a0]

Properties computed using the SCF density matrix


 Multipole Moments:

 ------------------------------------------------------------------------------------
     Multipole            Electronic (a.u.)      Nuclear  (a.u.)        Total (a.u.)
 ------------------------------------------------------------------------------------

 L = 1.  Multiply by 2.5417464519 to convert [e a0] to [Debye]
 Dipole X            :          0.0000000            0.0000000            0.0000000
 Dipole Y            :          0.0000000            0.0000000            0.0000000
 Dipole Z            :         -0.4892567            0.8823116            0.3930549
 Magnitude           :                                                    0.3930549

 ------------------------------------------------------------------------------------

*** tstop() called on Mac.lan at Sun Aug 10 17:37:59 2025
Module time:
	user time   =       9.11 seconds =       0.15 minutes
	system time =       2.18 seconds =       0.04 minutes
	total time  =          1 seconds =       0.02 minutes
Total time:
	user time   =       9.11 seconds =       0.15 minutes
	system time =       2.18 seconds =       0.04 minutes
	total time  =          1 seconds =       0.02 minutes

*** tstart() called on Mac.lan
*** at Sun Aug 10 17:37:59 2025

   => Libint2 <=

    Primary   basis highest AM E, G, H:  6, 6, 3
    Auxiliary basis highest AM E, G, H:  7, 7, 4
    Onebody   basis highest AM E, G, H:  -, -, -
    Solid Harmonics ordering:            Gaussian
   => Loading Basis Set <=

    Name: CC-PVTZ
    Role: ORBITAL
    Keyword: BASIS
    atoms 1 entry O          line   262 file /Users/joseantoniorodriguesromero/anaconda3/share/psi4/basis/cc-pvtz.gbs 
    atoms 2 entry H          line    23 file /Users/joseantoniorodriguesromero/anaconda3/share/psi4/basis/cc-pvtz.gbs 


         ---------------------------------------------------------
                                   SCF
               by Justin Turney, Rob Parrish, Andy Simmonett
                          and Daniel G. A. Smith
                              UKS Reference
                        1 Threads,    500 MiB Core
         ---------------------------------------------------------

  ==> Geometry <==

    Molecular point group: c2v
    Full point group: C_inf_v

    Geometry (in Angstrom), charge = -1, multiplicity = 1:

       Center              X                  Y                   Z               Mass       
    ------------   -----------------  -----------------  -----------------  -----------------
         O            0.000000000000     0.000000000000    -0.059320981148    15.994914619570
         H            0.000000000000     0.000000000000     0.941467018852     1.007825032230

  Running in c2v symmetry.

  Rotational constants: A = ************  B =     17.75269  C =     17.75269 [cm^-1]
  Rotational constants: A = ************  B = 532212.23999  C = 532212.23999 [MHz]
  Nuclear repulsion =    4.230084378869451

  Charge       = -1
  Multiplicity = 1
  Electrons    = 10
  Nalpha       = 5
  Nbeta        = 5

  ==> Algorithm <==

  SCF Algorithm Type is DF.
  DIIS enabled.
  MOM disabled.
  Fractional occupation disabled.
  Guess Type is READ.
  Energy threshold   = 1.00e-08
  Density threshold  = 1.00e-08
  Integral threshold = 1.00e-12

  ==> Primary Basis <==

  Basis Set: CC-PVTZ
    Blend: CC-PVTZ
    Number of shells: 16
    Number of basis functions: 44
    Number of Cartesian functions: 50
    Spherical Harmonics?: true
    Max angular momentum: 3

  ==> DFT Potential <==

   => LibXC <=

    Version 6.2.2
    S. Lehtola, C. Steigemann, M. J.T. Oliveira, and M. A.L. Marques.,  SoftwareX 7, 1–5 (2018) (10.1016/j.softx.2017.11.002)

   => Composite Functional: B3LYP <= 

    B3LYP Hyb-GGA Exchange-Correlation Functional

    P. J. Stephens, F. J. Devlin, C. F. Chabalowski, and M. J. Frisch.,  J. Phys. Chem. 98, 11623 (1994) (10.1021/j100096a001)

    Deriv               =              1
    GGA                 =           TRUE
    Meta                =          FALSE

    Exchange Hybrid     =           TRUE
    MP2 Hybrid          =          FALSE

   => Exchange Functionals <=

    0.0800   Slater exchange
    0.7200         Becke 88

   => Exact (HF) Exchange <=

    0.2000               HF 

   => Correlation Functionals <=

    0.1900   Vosko, Wilk & Nusair (VWN5_RPA)
    0.8100   Lee, Yang & Parr

   => LibXC Density Thresholds  <==

    XC_HYB_GGA_XC_B3LYP:  1.00E-15 

   => Molecular Quadrature <=

    Radial Scheme          =       TREUTLER
    Pruning Scheme         =           NONE
    Nuclear Scheme         =       TREUTLER

    Blocking Scheme        =         OCTREE
    BS radius alpha        =              1
    Pruning alpha          =              1
    Radial Points          =             75
    Spherical Points       =            302
    Total Points           =          44140
    Total Blocks           =            394
    Max Points             =            256
    Max Functions          =             44
    Weights Tolerance      =       1.00E-15

   => Loading Basis Set <=

    Name: (CC-PVTZ AUX)
    Role: JKFIT
    Keyword: DF_BASIS_SCF
    atoms 1 entry O          line   229 file /Users/joseantoniorodriguesromero/anaconda3/share/psi4/basis/cc-pvtz-jkfit.gbs 
    atoms 2 entry H          line    51 file /Users/joseantoniorodriguesromero/anaconda3/share/psi4/basis/cc-pvtz-jkfit.gbs 

   => Loading Basis Set <=

    Name: CC-PVTZ
    Role: ORBITAL
    Keyword: BASIS
    atoms 1 entry O          line   262 file /Users/joseantoniorodriguesromero/anaconda3/share/psi4/basis/cc-pvtz.gbs 
    atoms 2 entry H          line    23 file /Users/joseantoniorodriguesromero/anaconda3/share/psi4/basis/cc-pvtz.gbs 

  Reading orbitals from file /tmp/scan_HO_30.default.49186.180.npy, no projection.

  ==> Integral Setup <==

  DFHelper Memory: AOs need 0.002 GiB; user supplied 0.312 GiB. 
  Using in-core AOs.

  ==> MemDFJK: Density-Fitted J/K Matrices <==

    J tasked:                   Yes
    K tasked:                   Yes
    wK tasked:                   No
    OpenMP threads:               1
    Memory [MiB]:               319
    Algorithm:                 Core
    Schwarz Cutoff:           1E-12
    Mask sparsity (%):       0.0000
    Fitting Condition:        1E-10

   => Auxiliary Basis Set <=

  Basis Set: (CC-PVTZ AUX)
    Blend: CC-PVTZ-JKFIT
    Number of shells: 35
    Number of basis functions: 109
    Number of Cartesian functions: 131
    Spherical Harmonics?: true
    Max angular momentum: 4

  Cached 100.0% of DFT collocation blocks in 0.055 [GiB].

  Minimum eigenvalue in the overlap matrix is 4.5449248911E-03.
  Reciprocal condition number of the overlap matrix is 1.1582841158E-03.
    Using symmetric orthogonalization.

  ==> Pre-Iterations <==

  SCF Guess: Orbitals guess was supplied from a previous computation.

   -------------------------------------------------------
    Irrep   Nso     Nmo     Nalpha   Nbeta   Ndocc  Nsocc
   -------------------------------------------------------
     A1        20      20       3       3       3       0
     A2         4       4       0       0       0       0
     B1        10      10       1       1       1       0
     B2        10      10       1       1       1       0
   -------------------------------------------------------
    Total      44      44       5       5       5       0
   -------------------------------------------------------

  ==> Iterations <==

                           Total Energy        Delta E     RMS |[F,P]|

   @DF-UKS iter   0:   -75.78974982231676   -7.57897e+01   3.03682e-12 
   @DF-UKS iter   1:   -75.78974982231684   -7.10543e-14   5.24971e-12 DIIS
  Energy and wave function converged.


  ==> Post-Iterations <==

   Electrons on quadrature grid:
      Nalpha   =    4.9999999914 ; deviation = -8.562e-09
      Nbeta    =    4.9999999914 ; deviation = -8.562e-09
      Ntotal   =    9.9999999829 ; deviation = -1.712e-08 

   @Spin Contamination Metric:   4.440892099E-15
   @S^2 Expected:                0.000000000E+00
   @S^2 Observed:                4.440892099E-15
   @S   Expected:                0.000000000E+00
   @S   Observed:                0.000000000E+00

    Orbital Energies [Eh]
    ---------------------

    Alpha Occupied:                                                       

       1A1   -18.676267     2A1    -0.512994     3A1    -0.024157  
       1B1     0.116591     1B2     0.116591  

    Alpha Virtual:                                                        

       4A1     0.312928     5A1     0.703587     6A1     0.856729  
       2B2     0.940621     2B1     0.940621     3B2     1.045441  
       3B1     1.045441     7A1     1.269102     8A1     1.586552  
       9A1     1.884326     1A2     1.884326     4B1     2.164363  
       4B2     2.164363    10A1     2.292693    11A1     2.808573  
      12A1     3.576351     2A2     3.576352     5B1     3.766191  
       5B2     3.766191     6B1     4.033357     6B2     4.033357  
      13A1     4.044792     7B1     4.450424     7B2     4.450424  
      14A1     4.670003    15A1     5.115472     8B2     5.585811  
       8B1     5.585811    16A1     5.798611     3A2     5.798611  
       4A2     6.673874    17A1     6.673875     9B2     6.719715  
       9B1     6.719715    18A1     6.753961    10B1     7.007000  
      10B2     7.007000    19A1     7.402780    20A1    10.356559  

    Beta Occupied:                                                        

       1A1   -18.676267     2A1    -0.512994     3A1    -0.024157  
       1B1     0.116591     1B2     0.116591  

    Beta Virtual:                                                         

       4A1     0.312928     5A1     0.703587     6A1     0.856729  
       2B2     0.940621     2B1     0.940621     3B2     1.045441  
       3B1     1.045441     7A1     1.269102     8A1     1.586552  
       9A1     1.884326     1A2     1.884326     4B1     2.164363  
       4B2     2.164363    10A1     2.292693    11A1     2.808573  
      12A1     3.576351     2A2     3.576352     5B1     3.766191  
       5B2     3.766191     6B1     4.033357     6B2     4.033357  
      13A1     4.044792     7B1     4.450424     7B2     4.450424  
      14A1     4.670003    15A1     5.115472     8B2     5.585811  
       8B1     5.585811    16A1     5.798611     3A2     5.798611  
       4A2     6.673874    17A1     6.673875     9B2     6.719715  
       9B1     6.719715    18A1     6.753961    10B1     7.007000  
      10B2     7.007000    19A1     7.402780    20A1    10.356559  

    Final Occupation by Irrep:
             A1    A2    B1    B2 
    DOCC [     3,    0,    1,    1 ]
    SOCC [     0,    0,    0,    0 ]
    NA   [     3,    0,    1,    1 ]
    NB   [     3,    0,    1,    1 ]

  @DF-UKS Final Energy:   -75.78974982231684

   => Energetics <=

    Nuclear Repulsion Energy =              4.2300843788694511
    One-Electron Energy =                -116.7262607844281774
    Two-Electron Energy =                  44.1583689227947787
    DFT Exchange-Correlation Energy =      -7.4519423395528905
    Empirical Dispersion Energy =           0.0000000000000000
    VV10 Nonlocal Energy =                  0.0000000000000000
    Total Energy =                        -75.7897498223168355

  UHF NO Occupations:
  HONO-2 :    2 A1 2.0000000
  HONO-1 :    1 B1 2.0000000
  HONO-0 :    3 A1 2.0000000
  LUNO+0 :    4 A1 0.0000000
  LUNO+1 :    5 A1 0.0000000
  LUNO+2 :    6 A1 0.0000000
  LUNO+3 :    7 A1 0.0000000


Computation Completed


Properties will be evaluated at   0.000000,   0.000000,   0.000000 [a0]

Properties computed using the B3LYP density matrix


 Multipole Moments:

 ------------------------------------------------------------------------------------
     Multipole            Electronic (a.u.)      Nuclear  (a.u.)        Total (a.u.)
 ------------------------------------------------------------------------------------

 L = 1.  Multiply by 2.5417464519 to convert [e a0] to [Debye]
 Dipole X            :          0.0000000            0.0000000            0.0000000
 Dipole Y            :          0.0000000            0.0000000            0.0000000
 Dipole Z            :         -0.4892567            0.8823116            0.3930549
 Magnitude           :                                                    0.3930549

 L = 2.  Multiply by 1.3450342976 to convert [e a0^2] to [Debye ang]
 Quadrupole XX       :         -6.3462158            0.0000000           -6.3462158
 Quadrupole XY       :          0.0000000            0.0000000            0.0000000
 Quadrupole XZ       :          0.0000000            0.0000000            0.0000000
 Quadrupole YY       :         -6.3462158            0.0000000           -6.3462158
 Quadrupole YZ       :          0.0000000            0.0000000            0.0000000
 Quadrupole ZZ       :         -8.4869568            3.2657816           -5.2211753
 Traceless XX        :          0.7135804           -1.0885939           -0.3750135
 Traceless YY        :          0.7135804           -1.0885939           -0.3750135
 Traceless ZZ        :         -1.4271607            2.1771877            0.7500270

 ------------------------------------------------------------------------------------
  ==> Computing MBIS Charges <==

  Electron Count from Grid (Expected Number): 10.00000 (10.00000)
  Difference: -0.00000

  MBIS Charges: (a.u.)
   Center  Symbol  Z      Pop.       Charge
      1       O    8    9.203651   -1.203651
      2       H    1    0.796349    0.203651

  MBIS Dipoles: [e a0]
   Center  Symbol  Z        X           Y           Z
      1       O    8   -0.000000   -0.000000   -0.117020
      2       H    1   -0.000000    0.000000    0.012828

  MBIS Quadrupoles: [e a0^2]
   Center  Symbol  Z      XX        XY        XZ        YY        YZ        ZZ
      1       O    8   -5.7503   -0.0000    0.0000   -5.7503    0.0000   -5.3310
      2       H    1   -0.5959   -0.0000    0.0000   -0.5959    0.0000   -0.5916

  MBIS Octupoles: [e a0^3]
   Center  Symbol  Z      XXX       XXY       XXZ       XYY       XYZ       XZZ       YYY       YYZ       YZZ       ZZZ
      1       O    8   -0.0000   -0.0000   -0.1726   -0.0000   -0.0000    0.0000   -0.0000   -0.1726   -0.0000   -0.9009
      2       H    1    0.0000    0.0000   -0.0000    0.0000    0.0000    0.0000   -0.0000   -0.0000    0.0000   -0.0137

  MBIS Radial Moments:
   Center  Symbol  Z      [a0^2]      [a0^3]      [a0^4]      
      1       O    8   16.831549   35.638355   89.390696
      2       H    1    1.783417    3.854646    9.889732

  MBIS Valence Widths: [a0]
   Center  Symbol  Z     Width
      1       O    8    0.433191
      2       H    1    0.430382

*** tstop() called on Mac.lan at Sun Aug 10 17:38:00 2025
Module time:
	user time   =       3.93 seconds =       0.07 minutes
	system time =       1.21 seconds =       0.02 minutes
	total time  =          1 seconds =       0.02 minutes
Total time:
	user time   =      13.14 seconds =       0.22 minutes
	system time =       3.46 seconds =       0.06 minutes
	total time  =          2 seconds =       0.03 minutes

    Psi4 stopped on: Sunday, 10 August 2025 05:38PM
    Psi4 wall time for execution: 0:00:01.62

*** Psi4 exiting successfully. Buy a developer a beer!
