
    -----------------------------------------------------------------------
          Psi4: An Open-Source Ab Initio Electronic Structure Package
                               Psi4 1.9.1 release

                         Git: Rev {} zzzzzzz 


    D. G. A. Smith, L. A. Burns, A. C. Simmonett, R. M. Parrish,
    M. C. Schieber, R. Galvelis, P. Kraus, H. Kruse, R. Di Remigio,
    A. Alenaizan, A. M. James, S. Lehtola, J. P. Misiewicz, M. Scheurer,
    R. A. Shaw, J. B. Schriber, Y. Xie, Z. L. Glick, D. A. Sirianni,
    J. S. O'Brien, J. M. Waldrop, A. Kumar, E. G. Hohenstein,
    B. P. Pritchard, B. R. Brooks, H. F. Schaefer III, A. Yu. Sokolov,
    K. Patkowski, A. E. DePrince III, U. Bozkaya, R. A. King,
    F. A. Evangelista, J. M. Turney, T. D. Crawford, C. D. Sherrill,
    J. Chem. Phys. 152(18) 184108 (2020). https://doi.org/10.1063/5.0006002

                            Additional Code Authors
    E. T. Seidl, C. L. Janssen, E. F. Valeev, M. L. Leininger,
    J. F. Gonthier, R. M. Richard, H. R. McAlexander, M. Saitow, X. Wang,
    P. Verma, M. H. Lechner, A. Jiang, S. Behnle, A. G. Heide,
    M. F. Herbst, and D. L. Poole

             Previous Authors, Complete List of Code Contributors,
                       and Citations for Specific Modules
    https://github.com/psi4/psi4/blob/master/codemeta.json
    https://github.com/psi4/psi4/graphs/contributors
    http://psicode.org/psi4manual/master/introduction.html#citing-psifour

    -----------------------------------------------------------------------


    Psi4 started on: Sunday, 10 August 2025 05:30PM

    Process ID: 48939
    Host:       Mac.lan
    PSIDATADIR: /Users/joseantoniorodriguesromero/anaconda3/share/psi4
    Memory:     500.0 MiB
    Threads:    1
    
  ==> Input File <==

--------------------------------------------------------------------------
molecule { 
-1 2
C           0.000000           0.000000           0.000000
C           0.000000           0.000000           0.439780
}

set { 
basis              cc-pvtz
reference          uks
maxiter            500
DAMPING_PERCENTAGE 1
E_CONVERGENCE      1.0E-8
D_CONVERGENCE      1.0E-8
DIIS_MAX_VECS      400
MBIS_MAXITER       8000
guess              read
}

E, wfn = energy('b3lyp', restart_file='last_wfn', return_wfn=True)
properties('b3lyp','MBIS_CHARGES', wfn=wfn)
wfn.to_file('last_wfn')
--------------------------------------------------------------------------

Scratch directory: /tmp/
 Found user provided orbital data. Setting orbital guess to READ 
 Copying restart file <last_wfn.npy> to </tmp/scan_CC_1.default.48939.180.npy> for internal processing
   => Libint2 <=

    Primary   basis highest AM E, G, H:  6, 6, 3
    Auxiliary basis highest AM E, G, H:  7, 7, 4
    Onebody   basis highest AM E, G, H:  -, -, -
    Solid Harmonics ordering:            Gaussian

*** tstart() called on Mac.lan
*** at Sun Aug 10 17:30:31 2025

   => Loading Basis Set <=

    Name: CC-PVTZ
    Role: ORBITAL
    Keyword: BASIS
    atoms 1-2 entry C          line   186 file /Users/joseantoniorodriguesromero/anaconda3/share/psi4/basis/cc-pvtz.gbs 


         ---------------------------------------------------------
                                   SCF
               by Justin Turney, Rob Parrish, Andy Simmonett
                          and Daniel G. A. Smith
                              UKS Reference
                        1 Threads,    500 MiB Core
         ---------------------------------------------------------

  ==> Geometry <==

    Molecular point group: d2h
    Full point group: D_inf_h

    Geometry (in Angstrom), charge = -1, multiplicity = 2:

       Center              X                  Y                   Z               Mass       
    ------------   -----------------  -----------------  -----------------  -----------------
         C            0.000000000000     0.000000000000    -0.219890000000    12.000000000000
         C            0.000000000000     0.000000000000     0.219890000000    12.000000000000

  Running in d2h symmetry.

  Rotational constants: A = ************  B =     14.52695  C =     14.52695 [cm^-1]
  Rotational constants: A = ************  B = 435506.85877  C = 435506.85877 [MHz]
  Nuclear repulsion =   43.317976224748733

  Charge       = -1
  Multiplicity = 2
  Electrons    = 13
  Nalpha       = 7
  Nbeta        = 6

  ==> Algorithm <==

  SCF Algorithm Type is DF.
  DIIS enabled.
  MOM disabled.
  Fractional occupation disabled.
  Guess Type is READ.
  Energy threshold   = 1.00e-08
  Density threshold  = 1.00e-08
  Integral threshold = 1.00e-12

  ==> Primary Basis <==

  Basis Set: CC-PVTZ
    Blend: CC-PVTZ
    Number of shells: 20
    Number of basis functions: 60
    Number of Cartesian functions: 70
    Spherical Harmonics?: true
    Max angular momentum: 3

  ==> DFT Potential <==

   => LibXC <=

    Version 6.2.2
    S. Lehtola, C. Steigemann, M. J.T. Oliveira, and M. A.L. Marques.,  SoftwareX 7, 1–5 (2018) (10.1016/j.softx.2017.11.002)

   => Composite Functional: B3LYP <= 

    B3LYP Hyb-GGA Exchange-Correlation Functional

    P. J. Stephens, F. J. Devlin, C. F. Chabalowski, and M. J. Frisch.,  J. Phys. Chem. 98, 11623 (1994) (10.1021/j100096a001)

    Deriv               =              1
    GGA                 =           TRUE
    Meta                =          FALSE

    Exchange Hybrid     =           TRUE
    MP2 Hybrid          =          FALSE

   => Exchange Functionals <=

    0.0800   Slater exchange
    0.7200         Becke 88

   => Exact (HF) Exchange <=

    0.2000               HF 

   => Correlation Functionals <=

    0.1900   Vosko, Wilk & Nusair (VWN5_RPA)
    0.8100   Lee, Yang & Parr

   => LibXC Density Thresholds  <==

    XC_HYB_GGA_XC_B3LYP:  1.00E-15 

   => Molecular Quadrature <=

    Radial Scheme          =       TREUTLER
    Pruning Scheme         =           NONE
    Nuclear Scheme         =       TREUTLER

    Blocking Scheme        =         OCTREE
    BS radius alpha        =              1
    Pruning alpha          =              1
    Radial Points          =             75
    Spherical Points       =            302
    Total Points           =          42636
    Total Blocks           =            384
    Max Points             =            253
    Max Functions          =             60
    Weights Tolerance      =       1.00E-15

   => Loading Basis Set <=

    Name: (CC-PVTZ AUX)
    Role: JKFIT
    Keyword: DF_BASIS_SCF
    atoms 1-2 entry C          line   125 file /Users/joseantoniorodriguesromero/anaconda3/share/psi4/basis/cc-pvtz-jkfit.gbs 

   => Loading Basis Set <=

    Name: CC-PVTZ
    Role: ORBITAL
    Keyword: BASIS
    atoms 1-2 entry C          line   186 file /Users/joseantoniorodriguesromero/anaconda3/share/psi4/basis/cc-pvtz.gbs 

  Reading orbitals from file /tmp/scan_CC_1.default.48939.180.npy, no projection.

  ==> Integral Setup <==

  DFHelper Memory: AOs need 0.005 GiB; user supplied 0.294 GiB. 
  Using in-core AOs.

  ==> MemDFJK: Density-Fitted J/K Matrices <==

    J tasked:                   Yes
    K tasked:                   Yes
    wK tasked:                   No
    OpenMP threads:               1
    Memory [MiB]:               300
    Algorithm:                 Core
    Schwarz Cutoff:           1E-12
    Mask sparsity (%):       0.0000
    Fitting Condition:        1E-10

   => Auxiliary Basis Set <=

  Basis Set: (CC-PVTZ AUX)
    Blend: CC-PVTZ-JKFIT
    Number of shells: 50
    Number of basis functions: 158
    Number of Cartesian functions: 192
    Spherical Harmonics?: true
    Max angular momentum: 4

  Cached 100.0% of DFT collocation blocks in 0.073 [GiB].

  Minimum eigenvalue in the overlap matrix is 4.6219163217E-04.
  Reciprocal condition number of the overlap matrix is 1.0983253114E-04.
    Using symmetric orthogonalization.

  ==> Pre-Iterations <==

  SCF Guess: Orbitals guess was supplied from a previous computation.

   -------------------------------------------------------
    Irrep   Nso     Nmo     Nalpha   Nbeta   Ndocc  Nsocc
   -------------------------------------------------------
     Ag        13      13       3       2       2       1
     B1g        3       3       0       0       0       0
     B2g        7       7       0       0       0       0
     B3g        7       7       0       0       0       0
     Au         3       3       0       0       0       0
     B1u       13      13       2       2       2       0
     B2u        7       7       1       1       1       0
     B3u        7       7       1       1       1       0
   -------------------------------------------------------
    Total      60      60       7       6       6       1
   -------------------------------------------------------

  ==> Iterations <==

                           Total Energy        Delta E     RMS |[F,P]|

   @DF-UKS iter   0:   -69.24451799195536   -6.92445e+01   1.94936e-02 
   @DF-UKS iter   1:   -69.58873976404433   -3.44222e-01   5.48304e-03 ADIIS/DIIS
   @DF-UKS iter   2:   -69.59331384168820   -4.57408e-03   5.67496e-03 ADIIS/DIIS/DAMP=1%
   @DF-UKS iter   3:   -69.60695203679671   -1.36382e-02   3.52385e-04 ADIIS/DIIS/DAMP=1%
   @DF-UKS iter   4:   -69.60274311389600    4.20892e-03   3.76683e-05 DIIS/DAMP=1%
   @DF-UKS iter   5:   -69.60246327323129    2.79841e-04   1.01790e-05 DIIS/DAMP=1%
   @DF-UKS iter   6:   -69.60243148936532    3.17839e-05   1.76790e-06 DIIS/DAMP=1%
   @DF-UKS iter   7:   -69.60243087699575    6.12370e-07   3.03352e-07 DIIS/DAMP=1%
   @DF-UKS iter   8:   -69.60243248208069   -1.60508e-06   1.69462e-08 DIIS/DAMP=1%
   @DF-UKS iter   9:   -69.60243228483576    1.97245e-07   7.68625e-10 DIIS/DAMP=1%
   @DF-UKS iter  10:   -69.60243228636919   -1.53344e-09   1.13285e-10 DIIS/DAMP=1%
  Energy and wave function converged.


  ==> Post-Iterations <==

   Electrons on quadrature grid:
      Nalpha   =    6.9999998947 ; deviation = -1.053e-07
      Nbeta    =    5.9999998956 ; deviation = -1.044e-07
      Ntotal   =   12.9999997903 ; deviation = -2.097e-07 

   @Spin Contamination Metric:   5.543407478E-03
   @S^2 Expected:                7.500000000E-01
   @S^2 Observed:                7.555434075E-01
   @S   Expected:                5.000000000E-01
   @S   Observed:                5.000000000E-01

    Orbital Energies [Eh]
    ---------------------

    Alpha Occupied:                                                       

       1Ag   -11.823091     1B1u  -10.144144     1B2u   -0.611475  
       1B3u   -0.611475     2Ag    -0.473857     2B1u    0.020193  
       3Ag     0.298606  

    Alpha Virtual:                                                        

       3B1u    0.372044     2B2u    0.383594     2B3u    0.383594  
       1B2g    0.416486     1B3g    0.416486     4Ag     0.596209  
       5Ag     0.676534     1B1g    0.854368     6Ag     0.854368  
       2B2g    0.871948     2B3g    0.871948     4B1u    0.978903  
       3B3u    1.229172     3B2u    1.229172     5B1u    1.237921  
       1Au     1.237921     6B1u    1.245366     7Ag     1.552223  
       4B3u    1.570600     4B2u    1.570600     3B3g    1.664168  
       3B2g    1.664168     8Ag     2.395110     2B1g    2.678284  
       9Ag     2.678285     7B1u    2.732689     5B3u    2.733931  
       5B2u    2.733931     8B1u    3.008469     9B1u    3.053894  
       2Au     3.053894     6B2u    3.092515     6B3u    3.092515  
       4B3g    3.228638     4B2g    3.228638    10Ag     3.634883  
       5B3g    3.661990     5B2g    3.661990     3B1g    3.672452  
      11Ag     3.672452    12Ag     3.692238     6B3g    3.718598  
       6B2g    3.718598    10B1u    5.579559    13Ag     5.646326  
       3Au     5.849209    11B1u    5.849210     7B2u    6.190881  
       7B3u    6.190881     7B3g    7.865322     7B2g    7.865322  
      12B1u    9.579684    13B1u   28.190453  

    Beta Occupied:                                                        

       1Ag   -11.819158     1B1u  -10.140055     1B2u   -0.601620  
       1B3u   -0.601620     2Ag    -0.467956     2B1u    0.033970  

    Beta Virtual:                                                         

       2B2u    0.387722     2B3u    0.387722     3Ag     0.392180  
       3B1u    0.404471     1B2g    0.435132     1B3g    0.435132  
       4Ag     0.593651     5Ag     0.698141     6Ag     0.854568  
       1B1g    0.854568     2B2g    0.875862     2B3g    0.875862  
       4B1u    0.989009     1Au     1.240816     5B1u    1.240816  
       3B3u    1.245099     3B2u    1.245099     6B1u    1.275674  
       7Ag     1.569391     4B3u    1.578019     4B2u    1.578019  
       3B3g    1.675894     3B2g    1.675894     8Ag     2.402745  
       9Ag     2.687439     2B1g    2.687439     5B3u    2.738304  
       5B2u    2.738304     7B1u    2.740287     8B1u    3.014206  
       2Au     3.052403     9B1u    3.052403     6B2u    3.095979  
       6B3u    3.095979     4B3g    3.232701     4B2g    3.232701  
      10Ag     3.641339     5B3g    3.659275     5B2g    3.659275  
       3B1g    3.671436    11Ag     3.671436    12Ag     3.694597  
       6B3g    3.720687     6B2g    3.720687    10B1u    5.587510  
      13Ag     5.654341     3Au     5.851292    11B1u    5.851292  
       7B2u    6.199177     7B3u    6.199177     7B3g    7.866344  
       7B2g    7.866344    12B1u    9.581683    13B1u   28.194734  

    Final Occupation by Irrep:
             Ag   B1g   B2g   B3g    Au   B1u   B2u   B3u 
    DOCC [     2,    0,    0,    0,    0,    2,    1,    1 ]
    SOCC [     1,    0,    0,    0,    0,    0,    0,    0 ]
    NA   [     3,    0,    0,    0,    0,    2,    1,    1 ]
    NB   [     2,    0,    0,    0,    0,    2,    1,    1 ]

  @DF-UKS Final Energy:   -69.60243228636919

   => Energetics <=

    Nuclear Repulsion Energy =             43.3179762247487332
    One-Electron Energy =                -171.9418197764103411
    Two-Electron Energy =                  68.7123693820449688
    DFT Exchange-Correlation Energy =      -9.6909581167525563
    Empirical Dispersion Energy =           0.0000000000000000
    VV10 Nonlocal Energy =                  0.0000000000000000
    Total Energy =                        -69.6024322863691793

  UHF NO Occupations:
  HONO-2 :    2 Ag 1.9999249
  HONO-1 :    2B1u 1.9973138
  HONO-0 :    3 Ag 1.0000000
  LUNO+0 :    3B1u 0.0026862
  LUNO+1 :    4 Ag 0.0000751
  LUNO+2 :    2B3u 0.0000070
  LUNO+3 :    2B2u 0.0000070


Computation Completed


Properties will be evaluated at   0.000000,   0.000000,   0.000000 [a0]

Properties computed using the SCF density matrix


 Multipole Moments:

 ------------------------------------------------------------------------------------
     Multipole            Electronic (a.u.)      Nuclear  (a.u.)        Total (a.u.)
 ------------------------------------------------------------------------------------

 L = 1.  Multiply by 2.5417464519 to convert [e a0] to [Debye]
 Dipole X            :          0.0000000            0.0000000            0.0000000
 Dipole Y            :          0.0000000            0.0000000            0.0000000
 Dipole Z            :          0.0000000            0.0000000            0.0000000
 Magnitude           :                                                    0.0000000

 ------------------------------------------------------------------------------------

*** tstop() called on Mac.lan at Sun Aug 10 17:30:33 2025
Module time:
	user time   =      14.49 seconds =       0.24 minutes
	system time =       2.29 seconds =       0.04 minutes
	total time  =          2 seconds =       0.03 minutes
Total time:
	user time   =      14.49 seconds =       0.24 minutes
	system time =       2.29 seconds =       0.04 minutes
	total time  =          2 seconds =       0.03 minutes

*** tstart() called on Mac.lan
*** at Sun Aug 10 17:30:33 2025

   => Libint2 <=

    Primary   basis highest AM E, G, H:  6, 6, 3
    Auxiliary basis highest AM E, G, H:  7, 7, 4
    Onebody   basis highest AM E, G, H:  -, -, -
    Solid Harmonics ordering:            Gaussian
   => Loading Basis Set <=

    Name: CC-PVTZ
    Role: ORBITAL
    Keyword: BASIS
    atoms 1-2 entry C          line   186 file /Users/joseantoniorodriguesromero/anaconda3/share/psi4/basis/cc-pvtz.gbs 


         ---------------------------------------------------------
                                   SCF
               by Justin Turney, Rob Parrish, Andy Simmonett
                          and Daniel G. A. Smith
                              UKS Reference
                        1 Threads,    500 MiB Core
         ---------------------------------------------------------

  ==> Geometry <==

    Molecular point group: d2h
    Full point group: D_inf_h

    Geometry (in Angstrom), charge = -1, multiplicity = 2:

       Center              X                  Y                   Z               Mass       
    ------------   -----------------  -----------------  -----------------  -----------------
         C            0.000000000000     0.000000000000    -0.219890000000    12.000000000000
         C            0.000000000000     0.000000000000     0.219890000000    12.000000000000

  Running in d2h symmetry.

  Rotational constants: A = ************  B =     14.52695  C =     14.52695 [cm^-1]
  Rotational constants: A = ************  B = 435506.85877  C = 435506.85877 [MHz]
  Nuclear repulsion =   43.317976224748733

  Charge       = -1
  Multiplicity = 2
  Electrons    = 13
  Nalpha       = 7
  Nbeta        = 6

  ==> Algorithm <==

  SCF Algorithm Type is DF.
  DIIS enabled.
  MOM disabled.
  Fractional occupation disabled.
  Guess Type is READ.
  Energy threshold   = 1.00e-08
  Density threshold  = 1.00e-08
  Integral threshold = 1.00e-12

  ==> Primary Basis <==

  Basis Set: CC-PVTZ
    Blend: CC-PVTZ
    Number of shells: 20
    Number of basis functions: 60
    Number of Cartesian functions: 70
    Spherical Harmonics?: true
    Max angular momentum: 3

  ==> DFT Potential <==

   => LibXC <=

    Version 6.2.2
    S. Lehtola, C. Steigemann, M. J.T. Oliveira, and M. A.L. Marques.,  SoftwareX 7, 1–5 (2018) (10.1016/j.softx.2017.11.002)

   => Composite Functional: B3LYP <= 

    B3LYP Hyb-GGA Exchange-Correlation Functional

    P. J. Stephens, F. J. Devlin, C. F. Chabalowski, and M. J. Frisch.,  J. Phys. Chem. 98, 11623 (1994) (10.1021/j100096a001)

    Deriv               =              1
    GGA                 =           TRUE
    Meta                =          FALSE

    Exchange Hybrid     =           TRUE
    MP2 Hybrid          =          FALSE

   => Exchange Functionals <=

    0.0800   Slater exchange
    0.7200         Becke 88

   => Exact (HF) Exchange <=

    0.2000               HF 

   => Correlation Functionals <=

    0.1900   Vosko, Wilk & Nusair (VWN5_RPA)
    0.8100   Lee, Yang & Parr

   => LibXC Density Thresholds  <==

    XC_HYB_GGA_XC_B3LYP:  1.00E-15 

   => Molecular Quadrature <=

    Radial Scheme          =       TREUTLER
    Pruning Scheme         =           NONE
    Nuclear Scheme         =       TREUTLER

    Blocking Scheme        =         OCTREE
    BS radius alpha        =              1
    Pruning alpha          =              1
    Radial Points          =             75
    Spherical Points       =            302
    Total Points           =          42636
    Total Blocks           =            384
    Max Points             =            253
    Max Functions          =             60
    Weights Tolerance      =       1.00E-15

   => Loading Basis Set <=

    Name: (CC-PVTZ AUX)
    Role: JKFIT
    Keyword: DF_BASIS_SCF
    atoms 1-2 entry C          line   125 file /Users/joseantoniorodriguesromero/anaconda3/share/psi4/basis/cc-pvtz-jkfit.gbs 

   => Loading Basis Set <=

    Name: CC-PVTZ
    Role: ORBITAL
    Keyword: BASIS
    atoms 1-2 entry C          line   186 file /Users/joseantoniorodriguesromero/anaconda3/share/psi4/basis/cc-pvtz.gbs 

  Reading orbitals from file /tmp/scan_CC_1.default.48939.180.npy, no projection.

  ==> Integral Setup <==

  DFHelper Memory: AOs need 0.005 GiB; user supplied 0.294 GiB. 
  Using in-core AOs.

  ==> MemDFJK: Density-Fitted J/K Matrices <==

    J tasked:                   Yes
    K tasked:                   Yes
    wK tasked:                   No
    OpenMP threads:               1
    Memory [MiB]:               300
    Algorithm:                 Core
    Schwarz Cutoff:           1E-12
    Mask sparsity (%):       0.0000
    Fitting Condition:        1E-10

   => Auxiliary Basis Set <=

  Basis Set: (CC-PVTZ AUX)
    Blend: CC-PVTZ-JKFIT
    Number of shells: 50
    Number of basis functions: 158
    Number of Cartesian functions: 192
    Spherical Harmonics?: true
    Max angular momentum: 4

  Cached 100.0% of DFT collocation blocks in 0.073 [GiB].

  Minimum eigenvalue in the overlap matrix is 4.6219163217E-04.
  Reciprocal condition number of the overlap matrix is 1.0983253114E-04.
    Using symmetric orthogonalization.

  ==> Pre-Iterations <==

  SCF Guess: Orbitals guess was supplied from a previous computation.

   -------------------------------------------------------
    Irrep   Nso     Nmo     Nalpha   Nbeta   Ndocc  Nsocc
   -------------------------------------------------------
     Ag        13      13       3       2       2       1
     B1g        3       3       0       0       0       0
     B2g        7       7       0       0       0       0
     B3g        7       7       0       0       0       0
     Au         3       3       0       0       0       0
     B1u       13      13       2       2       2       0
     B2u        7       7       1       1       1       0
     B3u        7       7       1       1       1       0
   -------------------------------------------------------
    Total      60      60       7       6       6       1
   -------------------------------------------------------

  ==> Iterations <==

                           Total Energy        Delta E     RMS |[F,P]|

   @DF-UKS iter   0:   -69.60243228662233   -6.96024e+01   5.21203e-12 
   @DF-UKS iter   1:   -69.60243228662233    0.00000e+00   1.22704e-12 DIIS
  Energy and wave function converged.


  ==> Post-Iterations <==

   Electrons on quadrature grid:
      Nalpha   =    6.9999998947 ; deviation = -1.053e-07
      Nbeta    =    5.9999998956 ; deviation = -1.044e-07
      Ntotal   =   12.9999997903 ; deviation = -2.097e-07 

   @Spin Contamination Metric:   5.543407480E-03
   @S^2 Expected:                7.500000000E-01
   @S^2 Observed:                7.555434075E-01
   @S   Expected:                5.000000000E-01
   @S   Observed:                5.000000000E-01

    Orbital Energies [Eh]
    ---------------------

    Alpha Occupied:                                                       

       1Ag   -11.823091     1B1u  -10.144144     1B2u   -0.611475  
       1B3u   -0.611475     2Ag    -0.473857     2B1u    0.020193  
       3Ag     0.298606  

    Alpha Virtual:                                                        

       3B1u    0.372044     2B2u    0.383594     2B3u    0.383594  
       1B2g    0.416486     1B3g    0.416486     4Ag     0.596209  
       5Ag     0.676534     1B1g    0.854368     6Ag     0.854368  
       2B2g    0.871948     2B3g    0.871948     4B1u    0.978903  
       3B3u    1.229172     3B2u    1.229172     5B1u    1.237921  
       1Au     1.237921     6B1u    1.245366     7Ag     1.552223  
       4B3u    1.570600     4B2u    1.570600     3B3g    1.664168  
       3B2g    1.664168     8Ag     2.395110     2B1g    2.678284  
       9Ag     2.678285     7B1u    2.732689     5B3u    2.733931  
       5B2u    2.733931     8B1u    3.008469     9B1u    3.053894  
       2Au     3.053894     6B2u    3.092515     6B3u    3.092515  
       4B3g    3.228638     4B2g    3.228638    10Ag     3.634883  
       5B3g    3.661990     5B2g    3.661990     3B1g    3.672452  
      11Ag     3.672452    12Ag     3.692238     6B3g    3.718598  
       6B2g    3.718598    10B1u    5.579559    13Ag     5.646326  
       3Au     5.849209    11B1u    5.849210     7B2u    6.190881  
       7B3u    6.190881     7B3g    7.865322     7B2g    7.865322  
      12B1u    9.579684    13B1u   28.190453  

    Beta Occupied:                                                        

       1Ag   -11.819158     1B1u  -10.140055     1B2u   -0.601620  
       1B3u   -0.601620     2Ag    -0.467956     2B1u    0.033970  

    Beta Virtual:                                                         

       2B2u    0.387722     2B3u    0.387722     3Ag     0.392180  
       3B1u    0.404471     1B2g    0.435132     1B3g    0.435132  
       4Ag     0.593651     5Ag     0.698141     6Ag     0.854568  
       1B1g    0.854568     2B2g    0.875862     2B3g    0.875862  
       4B1u    0.989009     1Au     1.240816     5B1u    1.240816  
       3B3u    1.245099     3B2u    1.245099     6B1u    1.275674  
       7Ag     1.569391     4B3u    1.578019     4B2u    1.578019  
       3B3g    1.675894     3B2g    1.675894     8Ag     2.402745  
       9Ag     2.687439     2B1g    2.687439     5B3u    2.738304  
       5B2u    2.738304     7B1u    2.740287     8B1u    3.014206  
       2Au     3.052403     9B1u    3.052403     6B2u    3.095979  
       6B3u    3.095979     4B3g    3.232701     4B2g    3.232701  
      10Ag     3.641339     5B3g    3.659275     5B2g    3.659275  
       3B1g    3.671436    11Ag     3.671436    12Ag     3.694597  
       6B3g    3.720687     6B2g    3.720687    10B1u    5.587510  
      13Ag     5.654341     3Au     5.851292    11B1u    5.851292  
       7B2u    6.199177     7B3u    6.199177     7B3g    7.866344  
       7B2g    7.866344    12B1u    9.581683    13B1u   28.194734  

    Final Occupation by Irrep:
             Ag   B1g   B2g   B3g    Au   B1u   B2u   B3u 
    DOCC [     2,    0,    0,    0,    0,    2,    1,    1 ]
    SOCC [     1,    0,    0,    0,    0,    0,    0,    0 ]
    NA   [     3,    0,    0,    0,    0,    2,    1,    1 ]
    NB   [     2,    0,    0,    0,    0,    2,    1,    1 ]

  @DF-UKS Final Energy:   -69.60243228662233

   => Energetics <=

    Nuclear Repulsion Energy =             43.3179762247487332
    One-Electron Energy =                -171.9418197900398297
    Two-Electron Energy =                  68.7123693967623979
    DFT Exchange-Correlation Energy =      -9.6909581180936311
    Empirical Dispersion Energy =           0.0000000000000000
    VV10 Nonlocal Energy =                  0.0000000000000000
    Total Energy =                        -69.6024322866223457

  UHF NO Occupations:
  HONO-2 :    2 Ag 1.9999249
  HONO-1 :    2B1u 1.9973138
  HONO-0 :    3 Ag 1.0000000
  LUNO+0 :    3B1u 0.0026862
  LUNO+1 :    4 Ag 0.0000751
  LUNO+2 :    2B3u 0.0000070
  LUNO+3 :    2B2u 0.0000070


Computation Completed


Properties will be evaluated at   0.000000,   0.000000,   0.000000 [a0]

Properties computed using the B3LYP density matrix


 Multipole Moments:

 ------------------------------------------------------------------------------------
     Multipole            Electronic (a.u.)      Nuclear  (a.u.)        Total (a.u.)
 ------------------------------------------------------------------------------------

 L = 1.  Multiply by 2.5417464519 to convert [e a0] to [Debye]
 Dipole X            :          0.0000000            0.0000000            0.0000000
 Dipole Y            :          0.0000000            0.0000000            0.0000000
 Dipole Z            :          0.0000000            0.0000000            0.0000000
 Magnitude           :                                                    0.0000000

 L = 2.  Multiply by 1.3450342976 to convert [e a0^2] to [Debye ang]
 Quadrupole XX       :         -8.4188428            0.0000000           -8.4188428
 Quadrupole XY       :          0.0000000            0.0000000            0.0000000
 Quadrupole XZ       :          0.0000000            0.0000000            0.0000000
 Quadrupole YY       :         -8.4188428            0.0000000           -8.4188428
 Quadrupole YZ       :          0.0000000            0.0000000            0.0000000
 Quadrupole ZZ       :        -21.9215320            2.0720009          -19.8495311
 Traceless XX        :          4.5008964           -0.6906670            3.8102294
 Traceless YY        :          4.5008964           -0.6906670            3.8102294
 Traceless ZZ        :         -9.0017928            1.3813339           -7.6204589

 ------------------------------------------------------------------------------------
  ==> Computing MBIS Charges <==

  Electron Count from Grid (Expected Number): 13.00000 (13.00000)
  Difference:  0.00000

  MBIS Charges: (a.u.)
   Center  Symbol  Z      Pop.       Charge
      1       C    6    6.500001   -0.500001
      2       C    6    6.500001   -0.500001

  MBIS Dipoles: [e a0]
   Center  Symbol  Z        X           Y           Z
      1       C    6    0.000000   -0.000000    0.597327
      2       C    6   -0.000000   -0.000000   -0.597327

  MBIS Quadrupoles: [e a0^2]
   Center  Symbol  Z      XX        XY        XZ        YY        YZ        ZZ
      1       C    6   -4.2094    0.0000   -0.0000   -4.2094    0.0000   -9.3420
      2       C    6   -4.2094    0.0000   -0.0000   -4.2094   -0.0000   -9.3420

  MBIS Octupoles: [e a0^3]
   Center  Symbol  Z      XXX       XXY       XXZ       XYY       XYZ       XZZ       YYY       YYZ       YZZ       ZZZ
      1       C    6   -0.0000   -0.0000    1.5687   -0.0000   -0.0000   -0.0000   -0.0000    1.5687   -0.0000    6.4945
      2       C    6   -0.0000   -0.0000   -1.5687   -0.0000    0.0000   -0.0000   -0.0000   -1.5687   -0.0000   -6.4945

  MBIS Radial Moments:
   Center  Symbol  Z      [a0^2]      [a0^3]      [a0^4]      
      1       C    6   17.760858   54.764733   206.142267
      2       C    6   17.760858   54.764733   206.142267

  MBIS Valence Widths: [a0]
   Center  Symbol  Z     Width
      1       C    6    0.537449
      2       C    6    0.537449

*** tstop() called on Mac.lan at Sun Aug 10 17:30:33 2025
Module time:
	user time   =       3.83 seconds =       0.06 minutes
	system time =       2.53 seconds =       0.04 minutes
	total time  =          0 seconds =       0.00 minutes
Total time:
	user time   =      18.40 seconds =       0.31 minutes
	system time =       4.93 seconds =       0.08 minutes
	total time  =          2 seconds =       0.03 minutes

    Psi4 stopped on: Sunday, 10 August 2025 05:30PM
    Psi4 wall time for execution: 0:00:02.27

*** Psi4 exiting successfully. Buy a developer a beer!
